INSANE! Membrane UpperLeaflet>loPI:POPI:DPPI:PYPI:ERGO=20.0:5.0:3.0:2.0:10.0 LowerLeaflet>PSPI:POPI:POPS:YOPS:POPE:YOPE:POPC:YOPC:ERGO=6.0:14.0:21.0:9.0:9.0:21.0:12.0:48.0:60.0
48947
    1loPI    C1    1  17.891  15.248  10.790  0.2931  0.0630  0.2159
    1loPI    C2    2  17.874  15.639  10.870 -0.0237  0.0673  0.1405
    1loPI    C3    3  17.592  15.393  11.013  0.1615 -0.1308  0.1687
    1loPI   PO4    4  18.095  15.272  10.564  0.0535  0.2515 -0.2903
    1loPI   GL1    5  18.175  15.300  10.091 -0.3293  0.0279  0.2008
    1loPI   GL2    6  18.460  15.324  10.031 -0.2900 -0.1601  0.0045
    1loPI   C1A    7  18.153  15.034   9.811 -0.0671  0.0438  0.0955
    1loPI   C2A    8  18.109  14.922   9.400  0.0433  0.1221 -0.1455
    1loPI   C3A    9  18.035  14.982   8.978 -0.0531  0.1057  0.0974
    1loPI   C4A   10  18.102  14.986   8.508 -0.1336  0.0572 -0.0376
    1loPI   C5A   11  18.014  14.769   8.135 -0.0372 -0.0956 -0.0382
    1loPI   C6A   12  17.985  14.857   7.691  0.0072 -0.2859  0.1075
    1loPI   C1B   13  18.637  15.387   9.654 -0.1622  0.3664 -0.1334
    1loPI   C2B   14  18.510  15.498   9.328  0.2411  0.1778  0.0505
    1loPI   C3B   15  18.457  15.265   9.037 -0.0550  0.1485 -0.1865
    1loPI   C4B   16  18.463  15.332   8.590  0.0104 -0.4182 -0.0705
    2loPI    C1   17   4.400   2.464  10.856  0.1154  0.1091 -0.0318
    2loPI    C2   18   4.700   2.248  11.009  0.0329  0.0515  0.0491
    2loPI    C3   19   4.498   2.502  11.242  0.1688  0.2618 -0.0596
    2loPI   PO4   20   4.181   2.239  10.712  0.0322  0.1174  0.2108
    2loPI   GL1   21   3.990   2.305  10.258 -0.1010 -0.0283 -0.0334
    2loPI   GL2   22   4.341   2.374  10.291  0.0187  0.3008  0.1078
    2loPI   C1A   23   3.743   2.190   9.915 -0.1601 -0.0151 -0.1661
    2loPI   C2A   24   3.629   2.193   9.403 -0.0143  0.0068  0.0714
    2loPI   C3A   25   3.764   1.962   8.935  0.0196  0.1471  0.0271
    2loPI   C4A   26   4.122   1.840   8.824  0.0356 -0.2174  0.0954
    2loPI   C5A   27   4.291   1.520   8.845  0.1065 -0.0083  0.1523
    2loPI   C6A   28   4.268   1.209   8.481  0.0817  0.2725  0.0409
    2loPI   C1B   29   4.286   2.349   9.826  0.3170  0.0356 -0.1763
    2loPI   C2B   30   4.323   2.305   9.401  0.0703  0.1118  0.1114
    2loPI   C3B   31   4.032   2.401   9.006  0.2722 -0.1110  0.3795
    2loPI   C4B   32   3.861   2.432   8.670 -0.1238 -0.0893  0.0181
    3loPI    C1   33   2.598   9.336  10.177 -0.2488 -0.0974 -0.1307
    3loPI    C2   34   2.986   9.317  10.083 -0.2310  0.1691 -0.1178
    3loPI    C3   35   2.872   9.305  10.466 -0.2324  0.1344 -0.1194
    3loPI   PO4   36   2.490   9.273   9.969 -0.1526  0.2238 -0.3210
    3loPI   GL1   37   2.312   9.377   9.519 -0.0971  0.0492  0.0127
    3loPI   GL2   38   2.543   9.244   9.424 -0.2274 -0.0944  0.4746
    3loPI   C1A   39   2.375   9.676   9.302 -0.1555  0.0409 -0.1400
    3loPI   C2A   40   2.324   9.884   8.890 -0.0449 -0.0890 -0.2040
    3loPI   C3A   41   2.215   9.852   8.546 -0.3544 -0.0376  0.0347
    3loPI   C4A   42   2.411   9.862   8.129 -0.1596  0.2264  0.1191
    3loPI   C5A   43   2.531   9.927   7.655  0.0411 -0.3374 -0.2411
    3loPI   C6A   44   2.553  10.281   7.447 -0.2134 -0.2204 -0.2164
    3loPI   C1B   45   2.388   9.227   9.031  0.0198  0.1801  0.0744
    3loPI   C2B   46   2.346   9.422   8.686 -0.2584 -0.0913  0.1541
    3loPI   C3B   47   2.316   9.351   8.271 -0.1463  0.0430 -0.2142
    3loPI   C4B   48   2.249   9.493   7.878 -0.3950  0.3472 -0.1509
    4loPI    C1   49  17.209   6.405  10.432 -0.0524 -0.0507  0.1695
    4loPI    C2   50  17.432   6.420  10.765 -0.1564  0.3516  0.2263
    4loPI    C3   51  17.059   6.565  10.767 -0.2861  0.0309  0.0276
    4loPI   PO4   52  17.395   6.428  10.306  0.1464  0.1559  0.0371
    4loPI   GL1   53  17.386   6.272   9.894 -0.7865  0.1243 -0.1503
    4loPI   GL2   54  17.571   6.492   9.878  0.1068 -0.0214  0.1577
    4loPI   C1A   55  17.464   6.109   9.461  0.2592  0.0818 -0.1477
    4loPI   C2A   56  17.562   6.099   9.150 -0.1030  0.0047 -0.1520
    4loPI   C3A   57  17.722   5.968   8.799 -0.0928  0.0498  0.0345
    4loPI   C4A   58  17.818   5.977   8.348 -0.0773  0.1562 -0.1418
    4loPI   C5A   59  17.949   6.192   7.966 -0.1012  0.2046  0.3244
    4loPI   C6A   60  18.166   6.420   7.659  0.0843  0.4458  0.0582
    4loPI   C1B   61  17.762   6.516   9.440 -0.1747  0.0787  0.1744
    4loPI   C2B   62  17.805   6.495   8.938  0.0884 -0.1618 -0.0491
    4loPI   C3B   63  17.884   6.591   8.539 -0.2246 -0.1783 -0.0656
    4loPI   C4B   64  17.957   6.584   8.222 -0.4533 -0.0019 -0.2396
    5loPI    C1   65   3.317  13.148  10.618  0.0223 -0.0150  0.0809
    5loPI    C2   66   3.339  12.749  10.593  0.0053 -0.0279  0.2603
    5loPI    C3   67   3.126  12.920  10.885  0.0458  0.1131  0.2081
    5loPI   PO4   68   3.343  13.180  10.296  0.3699 -0.0327  0.1136
    5loPI   GL1   69   3.174  13.000   9.911  0.1862 -0.1502  0.1640
    5loPI   GL2   70   3.441  13.235   9.788 -0.0517  0.0202  0.6024
    5loPI   C1A   71   3.059  13.232   9.505  0.1067  0.2406  0.0374
    5loPI   C2A   72   3.234  13.282   9.056 -0.2648 -0.4249 -0.0689
    5loPI   C3A   73   3.200  13.230   8.522  0.1856 -0.2092  0.1445
    5loPI   C4A   74   3.131  13.368   8.129  0.0656 -0.1472 -0.2686
    5loPI   C5A   75   3.004  13.747   7.924 -0.2063 -0.3368 -0.0991
    5loPI   C6A   76   2.945  14.098   7.626  0.0380 -0.0928 -0.1425
    5loPI   C1B   77   3.624  13.200   9.331 -0.1361  0.0976 -0.0079
    5loPI   C2B   78   3.650  13.293   8.808  0.1101 -0.3758 -0.5835
    5loPI   C3B   79   3.789  13.433   8.379 -0.2944 -0.0172  0.2196
    5loPI   C4B   80   4.063  13.898   8.186 -0.2582  0.1496  0.0932
    6loPI    C1   81  14.390  15.986  10.560 -0.2199  0.1665  0.1817
    6loPI    C2   82  14.375  16.198  10.899 -0.1228  0.1946  0.1686
    6loPI    C3   83  14.074  15.952  10.804 -0.1653  0.2112  0.2592
    6loPI   PO4   84  14.451  16.155  10.388  0.0278 -0.3941  0.1190
    6loPI   GL1   85  14.624  16.151   9.884  0.2463 -0.0909  0.0254
    6loPI   GL2   86  14.784  16.533   9.885 -0.1808 -0.0108  0.2771
    6loPI   C1A   87  14.415  16.250   9.508 -0.5365 -0.0153 -0.0161
    6loPI   C2A   88  14.473  16.361   9.095  0.1316 -0.0832 -0.0536
    6loPI   C3A   89  14.560  16.577   8.669  0.1927 -0.0665 -0.0449
    6loPI   C4A   90  14.651  16.383   8.317 -0.0491  0.0615  0.0827
    6loPI   C5A   91  14.823  16.198   7.988  0.0366  0.0187 -0.1293
    6loPI   C6A   92  14.487  15.959   7.949 -0.1342 -0.0895  0.0335
    6loPI   C1B   93  14.908  16.350   9.503  0.0067 -0.1653  0.0492
    6loPI   C2B   94  14.981  16.513   9.151 -0.0031  0.2679  0.3344
    6loPI   C3B   95  14.922  16.264   8.794 -0.1171  0.1863  0.1029
    6loPI   C4B   96  14.912  16.024   8.489  0.0936  0.1511  0.1676
    7loPI    C1   97   4.967  13.212  10.566 -0.0390 -0.1453 -0.0227
    7loPI    C2   98   4.655  13.414  10.715  0.0856  0.1916 -0.2089
    7loPI    C3   99   4.923  13.250  10.962 -0.1496  0.0382 -0.0513
    7loPI   PO4  100   4.972  13.384  10.255 -0.0401  0.1050  0.3629
    7loPI   GL1  101   4.710  13.560  10.021  0.1373  0.1792  0.0142
    7loPI   GL2  102   4.476  13.762   9.800 -0.1603  0.0958  0.1258
    7loPI   C1A  103   4.843  13.506   9.589 -0.1569 -0.0362  0.0696
    7loPI   C2A  104   4.745  13.385   9.100 -0.0475 -0.0232  0.0157
    7loPI   C3A  105   4.441  13.340   8.732 -0.1735  0.0511  0.1392
    7loPI   C4A  106   4.438  13.449   8.397  0.0858 -0.1315  0.0289
    7loPI   C5A  107   4.420  13.603   8.029  0.0208 -0.2377  0.1682
    7loPI   C6A  108   4.567  13.824   7.655  0.0510  0.0978 -0.2098
    7loPI   C1B  109   4.526  13.801   9.344  0.2150 -0.0084  0.2439
    7loPI   C2B  110   4.584  13.779   8.894 -0.3498 -0.3537  0.3140
    7loPI   C3B  111   4.536  13.967   8.488 -0.0228  0.3094 -0.0305
    7loPI   C4B  112   4.641  14.062   8.143 -0.2762  0.1123  0.2046
    8loPI    C1  113   8.309   1.281  10.451 -0.0858 -0.3332 -0.2880
    8loPI    C2  114   7.952   1.124  10.538 -0.1083 -0.0435  0.1792
    8loPI    C3  115   8.279   0.996  10.730 -0.0158 -0.0420  0.0242
    8loPI   PO4  116   8.313   1.269  10.180  0.1133 -0.3418  0.0495
    8loPI   GL1  117   8.238   1.510   9.785  0.0604  0.0838  0.2927
    8loPI   GL2  118   8.395   1.708   9.965  0.0863  0.2128 -0.4135
    8loPI   C1A  119   8.403   1.329   9.436  0.0033  0.2187 -0.2073
    8loPI   C2A  120   8.378   1.149   9.060 -0.0904  0.1623  0.0334
    8loPI   C3A  121   8.519   1.003   8.639  0.3936 -0.0487  0.2243
    8loPI   C4A  122   8.628   1.054   8.292  0.0082 -0.2626 -0.0816
    8loPI   C5A  123   8.485   0.969   7.953 -0.3062 -0.1063  0.0683
    8loPI   C6A  124   8.314   1.018   7.525 -0.0472  0.1079 -0.0216
    8loPI   C1B  125   8.262   2.063   9.785  0.1701 -0.0685  0.2195
    8loPI   C2B  126   8.053   2.099   9.371 -0.3056 -0.2250  0.2475
    8loPI   C3B  127   8.028   2.076   8.879 -0.2118  0.0923 -0.1083
    8loPI   C4B  128   8.046   1.825   8.532  0.1425 -0.0496  0.0992
    9loPI    C1  129  18.172   8.425  10.458 -0.0368  0.0071  0.0427
    9loPI    C2  130  18.416   8.648  10.233 -0.0361 -0.1145 -0.0778
    9loPI    C3  131  18.531   8.533  10.598 -0.0373  0.0835 -0.0142
    9loPI   PO4  132  17.910   8.494  10.273  0.0641  0.0648  0.1574
    9loPI   GL1  133  17.825   8.283   9.797  0.1574  0.0779  0.2075
    9loPI   GL2  134  18.016   8.202   9.560  0.0366  0.1124  0.1062
    9loPI   C1A  135  17.499   8.437   9.584  0.0347  0.1970 -0.2373
    9loPI   C2A  136  17.314   8.514   9.106 -0.2285  0.0220  0.0199
    9loPI   C3A  137  17.613   8.562   8.707 -0.2680  0.2609 -0.0078
    9loPI   C4A  138  17.551   8.690   8.273 -0.3382  0.1385  0.1318
    9loPI   C5A  139  17.575   8.712   7.786 -0.3179  0.1813  0.0229
    9loPI   C6A  140  17.502   8.527   7.422 -0.0096  0.3178 -0.0144
    9loPI   C1B  141  17.934   8.455   9.296 -0.3923  0.1682  0.2396
    9loPI   C2B  142  18.043   8.570   8.898  0.1385 -0.2848 -0.1443
    9loPI   C3B  143  18.022   8.532   8.425  0.1082 -0.3289  0.0138
    9loPI   C4B  144  18.028   8.549   8.011  0.0747 -0.0655 -0.1139
   10loPI    C1  145   3.413   7.426  10.317 -0.1066  0.3650 -0.0108
   10loPI    C2  146   3.091   7.211  10.417  0.0665  0.0381 -0.1411
   10loPI    C3  147   3.108   7.393  10.061  0.0401  0.0263 -0.1484
   10loPI   PO4  148   3.635   7.266  10.283  0.0110 -0.0764  0.0021
   10loPI   GL1  149   3.724   7.046   9.813  0.2215 -0.0001  0.0301
   10loPI   GL2  150   3.488   6.814   9.613 -0.4167 -0.4496 -0.1369
   10loPI   C1A  151   4.051   7.002   9.423  0.1075  0.0785 -0.0154
   10loPI   C2A  152   4.233   6.837   9.091  0.1583  0.0897 -0.4701
   10loPI   C3A  153   4.492   6.577   8.770  0.0836 -0.2574 -0.2021
   10loPI   C4A  154   4.522   6.511   8.358  0.3017  0.2357  0.2965
   10loPI   C5A  155   4.582   6.709   7.926 -0.0249  0.1997  0.2389
   10loPI   C6A  156   4.208   6.862   7.672 -0.2409 -0.1581 -0.0590
   10loPI   C1B  157   3.304   6.945   9.229 -0.2022  0.1915  0.1656
   10loPI   C2B  158   3.297   7.055   8.875  0.2442 -0.2261  0.0727
   10loPI   C3B  159   3.247   6.887   8.463 -0.1603 -0.1559 -0.1832
   10loPI   C4B  160   3.386   7.061   8.138 -0.1384 -0.0561  0.1503
   11loPI    C1  161  14.176   0.711  10.403  0.1035  0.0042 -0.0186
   11loPI    C2  162  14.121   0.364  10.594  0.2636 -0.0473 -0.0650
   11loPI    C3  163  14.395   0.392  10.304  0.3019  0.1371 -0.0119
   11loPI   PO4  164  13.952   0.794  10.310 -0.1748  0.0557 -0.0029
   11loPI   GL1  165  13.726   0.787   9.921 -0.0830  0.2612 -0.1706
   11loPI   GL2  166  13.704   0.900   9.653 -0.0916  0.2176  0.1134
   11loPI   C1A  167  13.861   0.353   9.617 -0.0883 -0.2096 -0.0318
   11loPI   C2A  168  14.032   0.137   9.230  0.0873 -0.1222 -0.2032
   11loPI   C3A  169  14.055   0.258   8.802 -0.2007 -0.0857 -0.3107
   11loPI   C4A  170  14.065   0.091   8.408 -0.2267 -0.2239 -0.3318
   11loPI   C5A  171  14.124  -0.335   8.243 -0.1030  0.2162 -0.1395
   11loPI   C6A  172  13.944  -0.820   8.231 -0.1057 -0.1151  0.1690
   11loPI   C1B  173  13.702   0.987   9.317  0.0807 -0.3640  0.2486
   11loPI   C2B  174  13.697   1.095   8.946  0.0064  0.0912  0.0680
   11loPI   C3B  175  13.842   1.121   8.541 -0.1940 -0.0914  0.0236
   11loPI   C4B  176  13.730   0.856   8.242 -0.3193  0.0271 -0.2667
   12loPI    C1  177  16.789  13.312  10.292  0.0467 -0.2921 -0.0541
   12loPI    C2  178  16.609  13.009  10.482  0.0541 -0.1079  0.2536
   12loPI    C3  179  16.793  13.296  10.692  0.0523  0.1079 -0.0337
   12loPI   PO4  180  16.933  13.170  10.125 -0.0429  0.3712  0.0953
   12loPI   GL1  181  16.896  12.841   9.795  0.2537  0.0343 -0.1854
   12loPI   GL2  182  16.668  13.087   9.677  0.3722  0.4451 -0.0271
   12loPI   C1A  183  16.920  12.865   9.265 -0.0007  0.1184 -0.1297
   12loPI   C2A  184  16.795  12.870   8.830  0.3182 -0.0283  0.2277
   12loPI   C3A  185  16.727  12.883   8.387  0.1864  0.1627  0.0135
   12loPI   C4A  186  16.884  12.998   7.951  0.0065  0.0576  0.1508
   12loPI   C5A  187  17.276  12.879   7.734  0.1105 -0.0135 -0.4196
   12loPI   C6A  188  17.612  13.014   7.641 -0.1613  0.2532 -0.0208
   12loPI   C1B  189  16.364  13.035   9.269  0.0168 -0.1141  0.0004
   12loPI   C2B  190  16.285  13.118   8.809  0.0282 -0.1261  0.0285
   12loPI   C3B  191  16.211  12.991   8.402 -0.0344  0.2265 -0.0652
   12loPI   C4B  192  16.381  13.052   7.984  0.2103  0.1470 -0.3429
   13loPI    C1  193  13.086  17.160  10.615 -0.0555  0.1852  0.1243
   13loPI    C2  194  12.901  17.128  10.968  0.0759  0.0275  0.1803
   13loPI    C3  195  13.097  16.814  10.816 -0.1789  0.0212 -0.1453
   13loPI   PO4  196  12.888  17.346  10.449 -0.0323 -0.3002 -0.1534
   13loPI   GL1  197  12.845  17.520  10.058  0.0367  0.1248  0.1273
   13loPI   GL2  198  12.809  17.282   9.893 -0.2707 -0.4322 -0.1892
   13loPI   C1A  199  12.853  17.609   9.566 -0.3912 -0.0235 -0.0203
   13loPI   C2A  200  12.843  17.655   9.100  0.0796  0.1916  0.0721
   13loPI   C3A  201  12.738  17.711   8.698  0.0683  0.3199  0.0469
   13loPI   C4A  202  12.630  17.753   8.324 -0.2133  0.2241  0.3173
   13loPI   C5A  203  12.337  17.811   7.962 -0.1228  0.2611  0.4894
   13loPI   C6A  204  12.476  17.736   7.529 -0.1116 -0.0040 -0.1679
   13loPI   C1B  205  12.874  17.051   9.532  0.1599 -0.0504  0.0249
   13loPI   C2B  206  12.889  17.148   9.105 -0.3593  0.1220  0.1713
   13loPI   C3B  207  12.795  17.108   8.657 -0.0367  0.0056  0.1941
   13loPI   C4B  208  12.800  16.848   8.250 -0.1671  0.3354  0.1129
   14loPI    C1  209   1.670  13.107  10.103 -0.0854 -0.1404  0.2520
   14loPI    C2  210   1.725  13.402  10.367 -0.0486  0.1344 -0.0547
   14loPI    C3  211   1.541  13.064  10.479  0.0562  0.2032  0.3433
   14loPI   PO4  212   1.842  13.068   9.992  0.0915 -0.0877  0.0290
   14loPI   GL1  213   1.991  13.027   9.649  0.2678  0.3174 -0.0469
   14loPI   GL2  214   1.876  13.388   9.389  0.1269 -0.0065 -0.2763
   14loPI   C1A  215   2.231  13.062   9.206 -0.1023 -0.1340 -0.1682
   14loPI   C2A  216   2.378  13.010   8.834 -0.1481  0.2244  0.0036
   14loPI   C3A  217   2.259  12.851   8.488  0.4474 -0.0718  0.1789
   14loPI   C4A  218   2.372  12.921   8.068 -0.2715 -0.1345 -0.2554
   14loPI   C5A  219   2.746  12.724   7.949 -0.1107 -0.2104 -0.0450
   14loPI   C6A  220   3.103  12.916   7.827 -0.2703 -0.1934  0.0506
   14loPI   C1B  221   1.970  13.347   8.940  0.1621 -0.1891  0.0526
   14loPI   C2B  222   1.665  13.526   8.574  0.1102 -0.2842 -0.0449
   14loPI   C3B  223   1.632  13.587   8.171 -0.4925  0.1298 -0.1926
   14loPI   C4B  224   1.433  14.002   7.878 -0.0238 -0.0556  0.0858
   15loPI    C1  225  12.774   0.420  10.456  0.0298 -0.3059 -0.2921
   15loPI    C2  226  12.947   0.067  10.384  0.3044 -0.2380  0.0122
   15loPI    C3  227  13.089   0.304  10.674 -0.0544 -0.0022  0.0010
   15loPI   PO4  228  12.854   0.597  10.255  0.0434  0.0485 -0.2729
   15loPI   GL1  229  12.598   0.737   9.876  0.1455 -0.2148 -0.0008
   15loPI   GL2  230  12.615   1.038   9.837 -0.3306  0.0157  0.0058
   15loPI   C1A  231  12.253   0.459   9.580  0.2085 -0.1103  0.0896
   15loPI   C2A  232  12.493   0.202   9.303 -0.0787 -0.3632 -0.1521
   15loPI   C3A  233  12.657   0.272   8.918 -0.2557  0.1830  0.0542
   15loPI   C4A  234  12.634   0.564   8.516  0.1613 -0.0865 -0.1665
   15loPI   C5A  235  12.756   0.650   8.125  0.0575  0.1003  0.1076
   15loPI   C6A  236  12.720   1.045   7.940 -0.2589  0.0611  0.2582
   15loPI   C1B  237  12.623   0.834   9.344  0.0525  0.2267  0.1913
   15loPI   C2B  238  12.541   0.818   8.955  0.0067  0.1361  0.1641
   15loPI   C3B  239  12.379   1.046   8.584  0.0100 -0.2154  0.2728
   15loPI   C4B  240  12.212   1.269   8.296  0.0010 -0.1748 -0.1534
   16loPI    C1  241  11.267   5.845  10.594 -0.0152  0.0504  0.1026
   16loPI    C2  242  10.933   5.760  10.797 -0.0811 -0.0559 -0.0485
   16loPI    C3  243  10.996   6.131  10.662  0.0411  0.0571  0.3065
   16loPI   PO4  244  11.308   5.502  10.402  0.0173  0.0010 -0.1050
   16loPI   GL1  245  11.421   5.227   9.949  0.2882  0.1610  0.1331
   16loPI   GL2  246  11.494   4.926   9.955  0.1293 -0.0240  0.2161
   16loPI   C1A  247  11.680   5.411   9.655 -0.0085  0.2289 -0.1824
   16loPI   C2A  248  11.938   5.631   9.437  0.0888  0.1293 -0.2436
   16loPI   C3A  249  12.232   5.574   9.170 -0.0472 -0.3323 -0.2241
   16loPI   C4A  250  12.191   5.460   8.771 -0.0066 -0.0650  0.0073
   16loPI   C5A  251  11.757   5.460   8.539  0.2124  0.0080 -0.0582
   16loPI   C6A  252  11.518   5.725   8.290 -0.0683 -0.1507  0.4599
   16loPI   C1B  253  11.399   5.010   9.541  0.0153  0.1267  0.1485
   16loPI   C2B  254  11.254   5.070   9.035 -0.1559  0.1408 -0.2968
   16loPI   C3B  255  10.826   5.147   8.773  0.3098  0.3943 -0.3663
   16loPI   C4B  256  10.769   5.175   8.333  0.0555  0.3915 -0.1904
   17loPI    C1  257   6.088   5.496  10.539 -0.0174 -0.0277 -0.0531
   17loPI    C2  258   6.196   5.869  10.636 -0.0052  0.0102 -0.2099
   17loPI    C3  259   5.920   5.808  10.353  0.0476 -0.1015 -0.2380
   17loPI   PO4  260   6.422   5.273  10.400 -0.1400  0.0047  0.2337
   17loPI   GL1  261   6.684   5.196  10.083 -0.2918 -0.1570  0.0284
   17loPI   GL2  262   6.621   4.923   9.908 -0.0195  0.2569 -0.0042
   17loPI   C1A  263   6.573   5.494   9.740 -0.2288 -0.0205  0.1021
   17loPI   C2A  264   6.527   5.637   9.415 -0.2315 -0.0874 -0.0404
   17loPI   C3A  265   6.561   5.521   8.965  0.2060  0.1947 -0.2058
   17loPI   C4A  266   6.646   5.589   8.533  0.1516 -0.2273 -0.0999
   17loPI   C5A  267   6.622   5.697   8.090  0.0184  0.0396 -0.0200
   17loPI   C6A  268   6.386   6.004   7.865  0.2420  0.1680 -0.0176
   17loPI   C1B  269   6.653   5.012   9.518  0.0097  0.1365  0.1550
   17loPI   C2B  270   6.635   5.020   9.015  0.0541 -0.3033  0.0969
   17loPI   C3B  271   6.580   5.050   8.637 -0.2331  0.2222 -0.0695
   17loPI   C4B  272   6.526   5.127   8.128 -0.0621 -0.1217  0.2302
   18loPI    C1  273  10.195   4.113  10.469 -0.0769 -0.0251 -0.0180
   18loPI    C2  274   9.908   3.834  10.451 -0.0971  0.0025 -0.1301
   18loPI    C3  275   9.939   4.069  10.773 -0.2547  0.0568 -0.1540
   18loPI   PO4  276  10.447   3.946  10.409  0.0707 -0.3826 -0.1216
   18loPI   GL1  277  10.655   3.965   9.902  0.2712  0.3210 -0.1892
   18loPI   GL2  278  10.308   4.069   9.975  0.1023  0.0462  0.0146
   18loPI   C1A  279  10.503   4.044   9.465  0.2779 -0.2892 -0.4758
   18loPI   C2A  280  10.552   4.026   8.996  0.2369 -0.0852 -0.0585
   18loPI   C3A  281  10.765   4.260   8.644  0.0881 -0.0887 -0.0032
   18loPI   C4A  282  10.662   4.670   8.475  0.0853  0.0691 -0.1529
   18loPI   C5A  283  10.623   4.849   8.016  0.0788 -0.0684  0.0861
   18loPI   C6A  284  10.731   4.953   7.506 -0.0701 -0.3168 -0.0165
   18loPI   C1B  285  10.024   4.003   9.655  0.0576 -0.2935  0.3729
   18loPI   C2B  286   9.952   4.020   9.136 -0.3219  0.1001 -0.1300
   18loPI   C3B  287   9.987   4.084   8.797 -0.0115  0.2301  0.0295
   18loPI   C4B  288   9.939   3.837   8.426  0.1950  0.2331  0.0249
   19loPI    C1  289   5.537  11.434  10.303 -0.3110  0.1305 -0.0255
   19loPI    C2  290   5.367  11.450  10.665  0.1171 -0.0092  0.1886
   19loPI    C3  291   5.663  11.702  10.571  0.3346 -0.2884  0.1115
   19loPI   PO4  292   5.348  11.459  10.134  0.2177  0.0551  0.0085
   19loPI   GL1  293   5.426  11.570   9.827 -0.2465 -0.0189 -0.0772
   19loPI   GL2  294   5.350  11.881   9.897  0.0615 -0.1310  0.0595
   19loPI   C1A  295   5.197  11.597   9.493  0.0241  0.2904 -0.1084
   19loPI   C2A  296   5.178  11.636   9.016  0.0174  0.1059 -0.1953
   19loPI   C3A  297   5.228  11.540   8.572 -0.0204  0.3550  0.2412
   19loPI   C4A  298   5.428  11.322   8.376 -0.0744 -0.1864  0.0244
   19loPI   C5A  299   5.257  11.196   7.933  0.0462  0.0969  0.2252
   19loPI   C6A  300   5.151  10.897   7.706 -0.4699  0.1208  0.3258
   19loPI   C1B  301   5.308  12.136   9.583  0.0367 -0.0211 -0.1182
   19loPI   C2B  302   5.207  12.141   9.203  0.0084  0.2837  0.0993
   19loPI   C3B  303   5.268  12.069   8.744 -0.2679  0.1139 -0.0471
   19loPI   C4B  304   5.294  12.494   8.560 -0.2801 -0.0357  0.0080
   20loPI    C1  305   5.291   4.753  10.426  0.0541  0.0741  0.1632
   20loPI    C2  306   5.284   5.109  10.609  0.0814  0.1713 -0.0226
   20loPI    C3  307   5.274   4.773  10.825 -0.0034  0.2844  0.1516
   20loPI   PO4  308   5.370   4.855  10.170  0.1460  0.2925  0.0504
   20loPI   GL1  309   5.637   4.950   9.943 -0.2999 -0.0659  0.2428
   20loPI   GL2  310   5.646   5.213   9.765 -0.0354  0.2339 -0.1978
   20loPI   C1A  311   5.826   4.678   9.710  0.2579 -0.1996 -0.1189
   20loPI   C2A  312   5.984   4.603   9.389 -0.2072 -0.2995 -0.1311
   20loPI   C3A  313   5.947   4.763   9.000 -0.0158  0.3960  0.2064
   20loPI   C4A  314   6.018   4.774   8.565  0.1018  0.1819 -0.1667
   20loPI   C5A  315   6.040   4.971   8.149 -0.3263  0.3408 -0.1719
   20loPI   C6A  316   6.347   4.777   7.814  0.2779 -0.3686 -0.1199
   20loPI   C1B  317   5.605   4.960   9.354  0.0131 -0.2129  0.0533
   20loPI   C2B  318   5.559   4.982   8.882  0.1619  0.0217 -0.1336
   20loPI   C3B  319   5.503   4.993   8.382  0.1176 -0.1068  0.0413
   20loPI   C4B  320   5.556   5.022   7.967  0.2816  0.0842  0.0396
   21loPI    C1  321  12.432  13.261  10.195 -0.1349 -0.3207 -0.0788
   21loPI    C2  322  12.074  13.429  10.137  0.0044 -0.0237 -0.0973
   21loPI    C3  323  12.287  13.519  10.464  0.0151 -0.2856 -0.0302
   21loPI   PO4  324  12.487  13.085  10.246  0.3230  0.1013  0.0301
   21loPI   GL1  325  12.857  12.978   9.855 -0.1256  0.0622  0.0440
   21loPI   GL2  326  12.645  12.639   9.964  0.0340 -0.0376 -0.2542
   21loPI   C1A  327  12.965  12.976   9.514 -0.0092  0.1526  0.1342
   21loPI   C2A  328  13.110  13.024   9.134 -0.0398  0.1229 -0.1514
   21loPI   C3A  329  13.340  13.246   8.738 -0.1502  0.0283  0.1189
   21loPI   C4A  330  13.468  13.101   8.369 -0.1214  0.0064 -0.0501
   21loPI   C5A  331  13.448  12.850   8.033 -0.0569 -0.2687 -0.1884
   21loPI   C6A  332  13.573  12.813   7.662 -0.2286  0.1257 -0.0161
   21loPI   C1B  333  12.544  12.637   9.561  0.1600 -0.0805  0.1628
   21loPI   C2B  334  12.375  12.518   9.213 -0.1216 -0.1167  0.1644
   21loPI   C3B  335  12.314  12.611   8.740 -0.0970  0.3537  0.2250
   21loPI   C4B  336  12.211  12.578   8.360 -0.0367  0.1773 -0.0050
   22loPI    C1  337   7.883   8.442  10.152 -0.1480  0.2140  0.1157
   22loPI    C2  338   7.580   8.313  10.379 -0.0986 -0.0067  0.0586
   22loPI    C3  339   7.619   8.703  10.301 -0.2010  0.0548  0.3048
   22loPI   PO4  340   7.870   8.297   9.981 -0.0841 -0.0268 -0.2316
   22loPI   GL1  341   7.891   8.299   9.576 -0.1586  0.3415 -0.0230
   22loPI   GL2  342   7.625   8.110   9.559 -0.0577  0.1648  0.3148
   22loPI   C1A  343   8.252   8.503   9.397 -0.0692 -0.2749 -0.3337
   22loPI   C2A  344   8.240   8.599   9.082  0.0746  0.0808  0.0128
   22loPI   C3A  345   8.329   8.607   8.704 -0.0328  0.0267  0.2005
   22loPI   C4A  346   8.417   8.524   8.266 -0.1886 -0.0043 -0.0231
   22loPI   C5A  347   8.639   8.088   8.032  0.4281 -0.1324  0.1240
   22loPI   C6A  348   8.750   7.602   7.820  0.0757 -0.0527  0.0118
   22loPI   C1B  349   7.527   8.375   9.183  0.1122 -0.0886  0.0869
   22loPI   C2B  350   7.478   8.338   8.697  0.1939 -0.0744 -0.3408
   22loPI   C3B  351   7.400   8.723   8.363 -0.0632 -0.0619 -0.1988
   22loPI   C4B  352   7.709   9.027   8.111  0.1513  0.3019 -0.3920
   23loPI    C1  353   0.723  15.589  10.616 -0.0704  0.0487  0.1903
   23loPI    C2  354   0.885  15.926  10.475  0.1114 -0.0875  0.0691
   23loPI    C3  355   0.958  15.812  10.851  0.1192 -0.0361  0.0834
   23loPI   PO4  356   0.626  15.513  10.309  0.0290 -0.1381 -0.0311
   23loPI   GL1  357   0.454  15.832   9.966 -0.0738 -0.1058 -0.1806
   23loPI   GL2  358   0.089  15.846  10.030  0.1485  0.0815  0.0023
   23loPI   C1A  359   0.230  15.897   9.601 -0.0000 -0.1857  0.3039
   23loPI   C2A  360   0.286  15.941   9.177 -0.0088 -0.0011 -0.1887
   23loPI   C3A  361   0.334  15.760   8.803  0.0484  0.2618 -0.1530
   23loPI   C4A  362   0.154  15.799   8.389  0.0165  0.0650  0.0438
   23loPI   C5A  363  -0.023  15.730   7.969  0.0273 -0.0751  0.5011
   23loPI   C6A  364  -0.413  15.755   7.597  0.1001  0.1148  0.0072
   23loPI   C1B  365  -0.251  15.941   9.717  0.1118 -0.0532  0.3000
   23loPI   C2B  366  -0.204  15.841   9.207 -0.3576 -0.1782 -0.0193
   23loPI   C3B  367  -0.222  15.891   8.761  0.0695  0.1652  0.1114
   23loPI   C4B  368  -0.212  16.116   8.299  0.1495 -0.2260  0.2485
   24loPI    C1  369   3.828  17.002  10.539 -0.1022 -0.3100  0.0593
   24loPI    C2  370   4.193  17.165  10.562 -0.0772 -0.3567 -0.0037
   24loPI    C3  371   4.065  16.919  10.851 -0.1379 -0.1801  0.1216
   24loPI   PO4  372   3.791  16.962  10.326 -0.0019  0.1261  0.1561
   24loPI   GL1  373   3.702  17.043   9.946  0.3657 -0.0495 -0.1238
   24loPI   GL2  374   4.024  16.971   9.680  0.0504 -0.0138 -0.2152
   24loPI   C1A  375   3.381  17.215   9.676 -0.3238 -0.2304  0.0304
   24loPI   C2A  376   3.166  17.432   9.368  0.1539 -0.2689  0.1996
   24loPI   C3A  377   3.150  17.511   8.879  0.0048  0.0828 -0.2456
   24loPI   C4A  378   3.300  17.455   8.419 -0.1961 -0.2579 -0.1761
   24loPI   C5A  379   3.376  17.424   8.024  0.2158 -0.1578  0.1322
   24loPI   C6A  380   3.610  17.653   7.663 -0.1040 -0.2730  0.2105
   24loPI   C1B  381   4.236  17.163   9.386 -0.1518 -0.2681  0.1266
   24loPI   C2B  382   4.536  17.415   9.111  0.1756  0.1338  0.0044
   24loPI   C3B  383   4.715  17.514   8.626  0.1120 -0.0589  0.3135
   24loPI   C4B  384   4.619  17.729   8.376 -0.1302  0.3003  0.0706
   25loPI    C1  385  17.425   7.598  10.168 -0.0820  0.2319  0.1346
   25loPI    C2  386  17.241   7.377  10.446  0.1079 -0.0344  0.0524
   25loPI    C3  387  17.414   7.723  10.548 -0.1532  0.0579  0.1910
   25loPI   PO4  388  17.239   7.513   9.951 -0.0405  0.2069  0.2791
   25loPI   GL1  389  17.112   7.618   9.478 -0.2185  0.1434  0.2018
   25loPI   GL2  390  17.119   7.942   9.741 -0.1376  0.0266  0.1562
   25loPI   C1A  391  16.838   7.429   9.129  0.0616 -0.2053  0.1094
   25loPI   C2A  392  16.775   7.434   8.606  0.0309  0.2210 -0.0340
   25loPI   C3A  393  16.874   7.510   8.132 -0.1020 -0.1768  0.1912
   25loPI   C4A  394  16.644   7.214   7.834  0.1124  0.1592  0.1952
   25loPI   C5A  395  16.784   7.030   7.455  0.2554  0.2405  0.0118
   25loPI   C6A  396  16.860   6.892   7.017  0.1585 -0.0079 -0.1189
   25loPI   C1B  397  17.025   8.093   9.301 -0.1601 -0.1725 -0.2883
   25loPI   C2B  398  17.210   7.801   8.987 -0.2784 -0.0126  0.0953
   25loPI   C3B  399  17.012   7.839   8.492 -0.5532 -0.3171 -0.1075
   25loPI   C4B  400  16.937   7.987   8.071  0.0996 -0.0227  0.2584
   26loPI    C1  401  16.947  16.918  10.588 -0.1264 -0.0035  0.1668
   26loPI    C2  402  16.984  17.298  10.468 -0.1976 -0.0224  0.0838
   26loPI    C3  403  17.026  17.206  10.854 -0.0448  0.0502  0.0852
   26loPI   PO4  404  16.996  16.789  10.336  0.0322 -0.0049 -0.0248
   26loPI   GL1  405  17.080  16.395  10.150  0.3095  0.2192 -0.1254
   26loPI   GL2  406  16.751  16.525   9.942  0.3511  0.0111  0.0260
   26loPI   C1A  407  17.142  16.527   9.688 -0.1069 -0.0174 -0.0116
   26loPI   C2A  408  17.172  16.611   9.242  0.1719 -0.3831  0.4290
   26loPI   C3A  409  17.211  16.524   8.865 -0.3338  0.0566 -0.2211
   26loPI   C4A  410  17.411  16.338   8.542 -0.1884 -0.3506 -0.1134
   26loPI   C5A  411  17.694  16.155   8.198 -0.1558  0.1986 -0.0875
   26loPI   C6A  412  17.959  16.296   7.818 -0.1464 -0.3403 -0.3289
   26loPI   C1B  413  16.696  16.783   9.563  0.0558  0.1816  0.1712
   26loPI   C2B  414  16.645  16.931   9.208  0.1559  0.1775  0.0184
   26loPI   C3B  415  16.801  16.860   8.853 -0.0777 -0.1454  0.0533
   26loPI   C4B  416  16.798  16.820   8.452 -0.0495  0.0545  0.1254
   27loPI    C1  417  15.149  12.933  10.669  0.3399  0.1521 -0.0304
   27loPI    C2  418  15.412  12.725  10.887  0.2583  0.0875  0.0068
   27loPI    C3  419  15.326  13.104  10.984  0.0296 -0.0217  0.2444
   27loPI   PO4  420  15.258  12.898  10.376 -0.0596 -0.0111  0.2478
   27loPI   GL1  421  15.117  12.955   9.925 -0.2452 -0.1404 -0.2130
   27loPI   GL2  422  15.094  12.752   9.655 -0.1032 -0.1349  0.0540
   27loPI   C1A  423  15.261  13.256   9.584 -0.0445  0.4231 -0.0961
   27loPI   C2A  424  15.267  12.985   9.190  0.0760  0.0452  0.1204
   27loPI   C3A  425  15.271  13.174   8.740  0.0775  0.1440 -0.3524
   27loPI   C4A  426  15.251  13.367   8.328  0.0139 -0.0019 -0.1511
   27loPI   C5A  427  15.476  13.539   7.953  0.3116 -0.0892  0.2128
   27loPI   C6A  428  15.573  13.295   7.580 -0.1463  0.0916 -0.2290
   27loPI   C1B  429  14.938  12.613   9.189 -0.3423  0.1663 -0.0343
   27loPI   C2B  430  14.857  12.752   8.759  0.0826  0.2298 -0.0645
   27loPI   C3B  431  14.980  12.841   8.368  0.0090  0.0097 -0.0001
   27loPI   C4B  432  15.329  12.705   8.203  0.1376  0.0919 -0.0221
   28loPI    C1  433   3.657  17.919  10.547 -0.0453  0.0160  0.1769
   28loPI    C2  434   3.894  18.165  10.339 -0.0659 -0.0306  0.0978
   28loPI    C3  435   3.747  18.281  10.692 -0.1339  0.0990  0.0280
   28loPI   PO4  436   3.475  17.866  10.165 -0.3139 -0.1425  0.1131
   28loPI   GL1  437   3.488  18.110   9.736 -0.0606 -0.1020  0.3137
   28loPI   GL2  438   3.656  18.270   9.905 -0.3337 -0.3463 -0.0061
   28loPI   C1A  439   3.485  17.781   9.430 -0.0959 -0.2901  0.4087
   28loPI   C2A  440   3.550  17.666   9.129  0.0683  0.2046 -0.0679
   28loPI   C3A  441   3.741  17.695   8.703 -0.2260 -0.1169  0.0292
   28loPI   C4A  442   3.842  17.715   8.370  0.0472  0.0852 -0.0597
   28loPI   C5A  443   4.115  17.846   8.052  0.0955 -0.0795 -0.2345
   28loPI   C6A  444   4.377  18.180   7.785  0.0621 -0.0378  0.2245
   28loPI   C1B  445   3.820  18.444   9.533 -0.1232 -0.0569  0.1471
   28loPI   C2B  446   3.993  18.595   9.155 -0.2470  0.0599 -0.0563
   28loPI   C3B  447   3.908  18.825   8.812 -0.0952  0.0100 -0.3237
   28loPI   C4B  448   3.756  18.901   8.467  0.1134 -0.1486  0.0418
   29loPI    C1  449  18.278  12.251  10.593  0.1957 -0.2576 -0.2907
   29loPI    C2  450  18.409  11.909  10.755  0.2371 -0.1796 -0.1580
   29loPI    C3  451  18.627  12.243  10.789  0.0281 -0.0589  0.0255
   29loPI   PO4  452  18.081  12.173  10.420  0.1217 -0.2344  0.1068
   29loPI   GL1  453  18.159  12.170   9.976  0.1109  0.1386  0.0207
   29loPI   GL2  454  18.345  11.971   9.837 -0.0778 -0.2465  0.2057
   29loPI   C1A  455  18.046  12.232   9.542 -0.1898 -0.2546  0.0743
   29loPI   C2A  456  18.139  12.146   9.099 -0.1879 -0.2957  0.1122
   29loPI   C3A  457  18.346  12.043   8.754  0.3395 -0.1659 -0.1256
   29loPI   C4A  458  18.336  11.786   8.348  0.3048  0.2976  0.0289
   29loPI   C5A  459  18.585  11.717   8.032  0.2163 -0.1742 -0.1353
   29loPI   C6A  460  18.874  12.093   7.890 -0.0581 -0.2003 -0.1652
   29loPI   C1B  461  18.445  11.985   9.389 -0.0945 -0.1267 -0.1863
   29loPI   C2B  462  18.576  11.708   9.029 -0.3498  0.2504  0.3320
   29loPI   C3B  463  18.770  11.582   8.687 -0.2144  0.0415 -0.1130
   29loPI   C4B  464  18.836  11.340   8.405 -0.1718  0.0720 -0.0475
   30loPI    C1  465   0.550   1.006  10.543  0.2052 -0.2693  0.0559
   30loPI    C2  466   0.675   1.244  10.839  0.0087 -0.1132  0.0155
   30loPI    C3  467   0.362   1.003  10.896 -0.0021 -0.1151 -0.0510
   30loPI   PO4  468   0.722   0.959  10.445  0.0405  0.2012  0.2152
   30loPI   GL1  469   0.576   0.674  10.054  0.1101  0.1679 -0.0820
   30loPI   GL2  470   0.951   0.503  10.101 -0.0623  0.1444  0.1611
   30loPI   C1A  471   0.359   0.573   9.638  0.2603 -0.0320 -0.4040
   30loPI   C2A  472   0.091   0.461   9.186  0.1373  0.2021 -0.1251
   30loPI   C3A  473   0.073   0.504   8.799 -0.1760 -0.2142  0.0184
   30loPI   C4A  474   0.331   0.363   8.600  0.0950  0.1187 -0.1537
   30loPI   C5A  475   0.377   0.239   8.180  0.0296 -0.2373  0.3744
   30loPI   C6A  476   0.633  -0.064   7.876  0.2913 -0.2405 -0.2227
   30loPI   C1B  477   0.945   0.439   9.692  0.2021 -0.1585  0.1872
   30loPI   C2B  478   0.787   0.419   9.339  0.1052 -0.1090  0.0281
   30loPI   C3B  479   0.552   0.602   9.097  0.2748 -0.1083  0.0455
   30loPI   C4B  480   0.785   0.599   8.792  0.0872  0.0085  0.2079
   31loPI    C1  481  11.479   4.454  10.615 -0.2507  0.0358  0.1264
   31loPI    C2  482  11.414   4.063  10.671 -0.0756 -0.0204 -0.0492
   31loPI    C3  483  11.150   4.332  10.806 -0.0168 -0.1802  0.4012
   31loPI   PO4  484  11.555   4.550  10.275  0.1228 -0.0069  0.3204
   31loPI   GL1  485  11.766   4.486   9.930  0.2784  0.3008  0.1848
   31loPI   GL2  486  11.677   4.250   9.741  0.0903 -0.2357 -0.0877
   31loPI   C1A  487  11.926   4.577   9.494 -0.2385 -0.0185  0.0021
   31loPI   C2A  488  12.029   4.665   9.049  0.0742 -0.1250  0.1202
   31loPI   C3A  489  11.969   4.488   8.520 -0.1330  0.3387 -0.2907
   31loPI   C4A  490  11.906   4.851   8.221 -0.0516  0.0993 -0.3626
   31loPI   C5A  491  11.862   4.832   7.869  0.1461 -0.1508  0.1817
   31loPI   C6A  492  11.835   5.021   7.544  0.0066  0.0285  0.0363
   31loPI   C1B  493  11.736   4.086   9.281  0.1889  0.1225 -0.2391
   31loPI   C2B  494  11.928   4.057   8.929 -0.0502  0.1220 -0.1384
   31loPI   C3B  495  12.037   3.920   8.577  0.0997  0.0408 -0.1980
   31loPI   C4B  496  12.353   3.517   8.542  0.1485 -0.1496 -0.1107
   32loPI    C1  497  16.733   2.111  10.438  0.0260  0.2568  0.2966
   32loPI    C2  498  16.638   1.723  10.420  0.2410  0.2086  0.1493
   32loPI    C3  499  16.621   1.917  10.769 -0.0911  0.1269  0.1824
   32loPI   PO4  500  16.895   2.120  10.315 -0.0416 -0.2117 -0.1813
   32loPI   GL1  501  16.923   1.870   9.893  0.2010 -0.2996  0.0943
   32loPI   GL2  502  16.558   2.015   9.873 -0.2053  0.0540 -0.1129
   32loPI   C1A  503  16.948   1.908   9.447  0.0297 -0.0712  0.0150
   32loPI   C2A  504  17.209   2.045   8.996  0.2404  0.0705 -0.1215
   32loPI   C3A  505  17.299   1.931   8.617 -0.1194  0.1065  0.0635
   32loPI   C4A  506  17.289   1.858   8.146  0.2280  0.1962  0.1194
   32loPI   C5A  507  16.970   1.836   7.878  0.0551  0.4836  0.0630
   32loPI   C6A  508  16.777   1.944   7.559  0.1858 -0.2145 -0.1080
   32loPI   C1B  509  16.387   1.899   9.531  0.1947  0.1907  0.5275
   32loPI   C2B  510  16.512   1.968   9.104  0.0485 -0.0841 -0.0563
   32loPI   C3B  511  16.728   1.847   8.762 -0.1335 -0.0683  0.2267
   32loPI   C4B  512  16.865   1.845   8.360 -0.1719  0.0493  0.2181
   33loPI    C1  513   2.208   1.011  10.469 -0.3190  0.0186  0.0510
   33loPI    C2  514   1.856   0.843  10.558 -0.2619 -0.0158  0.2176
   33loPI    C3  515   1.957   1.193  10.722 -0.2697  0.0543  0.0745
   33loPI   PO4  516   2.260   1.013  10.167  0.0126 -0.2761  0.0415
   33loPI   GL1  517   2.286   0.743   9.841  0.1480  0.0318 -0.1813
   33loPI   GL2  518   2.040   0.885   9.726 -0.1056  0.2101 -0.0002
   33loPI   C1A  519   2.432   0.613   9.452  0.1120  0.1369  0.0717
   33loPI   C2A  520   2.417   0.689   9.077  0.1636  0.1221  0.2083
   33loPI   C3A  521   2.282   0.756   8.591  0.1226  0.3748  0.0514
   33loPI   C4A  522   2.318   0.893   8.237  0.1599  0.2011  0.1435
   33loPI   C5A  523   2.863   0.849   8.150  0.1492  0.0469  0.1219
   33loPI   C6A  524   3.132   0.535   7.976  0.3451 -0.1465  0.2729
   33loPI   C1B  525   1.885   0.799   9.266 -0.1944  0.0061  0.0573
   33loPI   C2B  526   1.864   0.713   8.860  0.1782 -0.0528 -0.1158
   33loPI   C3B  527   1.764   0.374   8.598  0.3066 -0.3695 -0.1212
   33loPI   C4B  528   1.595   0.279   8.152  0.1676 -0.0757  0.1089
   34loPI    C1  529  11.578   9.108  10.630  0.1413  0.5393 -0.0793
   34loPI    C2  530  11.275   9.274  10.833  0.0109  0.0377  0.1509
   34loPI    C3  531  11.602   9.149  11.027  0.0113 -0.1767  0.0165
   34loPI   PO4  532  11.507   8.952  10.481  0.0058  0.0727  0.2111
   34loPI   GL1  533  11.484   9.124   9.993  0.1175  0.0850 -0.1683
   34loPI   GL2  534  11.647   9.355  10.135  0.1326 -0.0943  0.0740
   34loPI   C1A  535  11.663   9.243   9.549 -0.0100 -0.1572  0.2549
   34loPI   C2A  536  11.682   9.163   9.113  0.0624 -0.2272  0.1581
   34loPI   C3A  537  11.650   9.050   8.680 -0.0852 -0.1636  0.0583
   34loPI   C4A  538  11.607   9.252   8.321  0.1275  0.1208  0.0470
   34loPI   C5A  539  11.717   9.451   7.903  0.0850 -0.2499 -0.1325
   34loPI   C6A  540  11.478   9.700   7.680  0.3041 -0.2184 -0.1681
   34loPI   C1B  541  11.583   9.665   9.847 -0.4998 -0.1957  0.2984
   34loPI   C2B  542  11.323   9.918   9.500 -0.5681 -0.2320  0.1843
   34loPI   C3B  543  11.239  10.001   9.065 -0.2536  0.1462 -0.3230
   34loPI   C4B  544  11.217   9.997   8.652  0.1951 -0.0256  0.2836
   35loPI    C1  545   0.423   8.288  10.194  0.0396 -0.4262 -0.1463
   35loPI    C2  546   0.734   8.284  10.446  0.0445 -0.0389 -0.1406
   35loPI    C3  547   0.548   7.942  10.353  0.2083 -0.2201  0.1806
   35loPI   PO4  548   0.486   8.432   9.997  0.1656 -0.1693 -0.0530
   35loPI   GL1  549   0.824   8.539   9.706 -0.1761 -0.1132 -0.2123
   35loPI   GL2  550   1.056   8.731   9.676 -0.1622 -0.1269  0.0002
   35loPI   C1A  551   0.677   8.489   9.376 -0.0847 -0.1380 -0.0994
   35loPI   C2A  552   0.573   8.410   8.963  0.0850  0.0937  0.1650
   35loPI   C3A  553   0.460   8.516   8.501  0.0046  0.0017  0.2747
   35loPI   C4A  554   0.476   8.487   8.085 -0.1014  0.0886  0.1220
   35loPI   C5A  555   0.567   8.436   7.665  0.1677  0.3627 -0.2530
   35loPI   C6A  556   1.000   8.382   7.534 -0.2625 -0.0054 -0.2183
   35loPI   C1B  557   1.043   8.820   9.310  0.2109  0.0957 -0.3402
   35loPI   C2B  558   0.961   8.934   8.864 -0.2155  0.0606 -0.0272
   35loPI   C3B  559   0.945   8.821   8.283  0.3847  0.1393 -0.1391
   35loPI   C4B  560   0.809   8.787   7.885 -0.0018 -0.0181  0.1372
   36loPI    C1  561   2.061  11.541  10.152 -0.1302 -0.0526  0.2685
   36loPI    C2  562   1.832  11.792   9.942  0.0759  0.0380  0.1486
   36loPI    C3  563   1.874  11.842  10.337  0.0673  0.1552  0.1349
   36loPI   PO4  564   2.196  11.449   9.904  0.4073  0.2436 -0.2229
   36loPI   GL1  565   2.446  11.388   9.486 -0.0457 -0.1956  0.1170
   36loPI   GL2  566   2.781  11.487   9.397 -0.2426  0.0005  0.0897
   36loPI   C1A  567   2.365  11.518   9.169  0.0886 -0.1548  0.2769
   36loPI   C2A  568   2.343  11.475   8.834  0.0613  0.1544 -0.2352
   36loPI   C3A  569   2.274  11.601   8.443 -0.0206 -0.1744  0.1608
   36loPI   C4A  570   2.387  11.799   8.166 -0.3335 -0.0513  0.0472
   36loPI   C5A  571   2.584  11.953   7.725 -0.1567 -0.2215 -0.1201
   36loPI   C6A  572   2.985  12.010   7.571 -0.2128  0.0406  0.1102
   36loPI   C1B  573   2.800  11.566   8.948 -0.1571 -0.1868  0.1703
   36loPI   C2B  574   2.812  11.700   8.473  0.0581 -0.3005  0.0253
   36loPI   C3B  575   2.815  11.640   7.983 -0.1640  0.0498  0.0180
   36loPI   C4B  576   3.165  11.601   7.747  0.1072 -0.0592 -0.1997
   37loPI    C1  577   3.714  14.455  10.620 -0.0533 -0.1033  0.0848
   37loPI    C2  578   3.476  14.175  10.779 -0.1966  0.0610  0.1633
   37loPI    C3  579   3.701  14.406  11.017 -0.2114  0.1301  0.1105
   37loPI   PO4  580   3.762  14.510  10.365  0.0159  0.1691 -0.2531
   37loPI   GL1  581   3.615  14.407   9.965  0.1541 -0.1533  0.0109
   37loPI   GL2  582   3.880  14.229   9.954 -0.2796  0.0724  0.3241
   37loPI   C1A  583   3.426  14.648   9.586 -0.2303 -0.1427 -0.0706
   37loPI   C2A  584   3.454  14.647   9.191 -0.0781  0.3729 -0.0563
   37loPI   C3A  585   3.502  14.934   8.870  0.3105  0.2406 -0.2896
   37loPI   C4A  586   3.647  15.106   8.419  0.0558 -0.0804  0.0266
   37loPI   C5A  587   3.845  15.156   8.038 -0.1501 -0.0957  0.2746
   37loPI   C6A  588   4.109  15.324   7.778 -0.1264 -0.1455  0.2061
   37loPI   C1B  589   4.055  14.545   9.579 -0.1614  0.0674  0.0465
   37loPI   C2B  590   4.306  14.623   9.252 -0.0002 -0.2069  0.2568
   37loPI   C3B  591   4.383  14.657   8.823 -0.0211 -0.0219  0.0244
   37loPI   C4B  592   4.483  14.616   8.333 -0.0381  0.1199  0.2682
   38loPI    C1  593  10.959   3.167  10.374  0.0943 -0.1468  0.1319
   38loPI    C2  594  10.752   3.039  10.692 -0.0059  0.3609  0.2815
   38loPI    C3  595  11.015   3.337  10.732  0.0093  0.4048 -0.1063
   38loPI   PO4  596  10.927   2.869  10.227  0.1948  0.0360  0.0092
   38loPI   GL1  597  10.601   2.616   9.915 -0.0688  0.2180 -0.0693
   38loPI   GL2  598  10.322   2.667   9.828 -0.0501 -0.1767 -0.0665
   38loPI   C1A  599  10.806   2.424   9.586  0.4372  0.3829 -0.2781
   38loPI   C2A  600  10.919   2.022   9.399  0.2140 -0.2932  0.0062
   38loPI   C3A  601  10.650   1.995   9.002 -0.0659  0.2017  0.1467
   38loPI   C4A  602  10.555   1.937   8.579 -0.5824  0.3751 -0.1713
   38loPI   C5A  603  10.486   1.804   8.200 -0.1632  0.0747  0.0359
   38loPI   C6A  604  10.710   1.760   7.751  0.0003 -0.0790  0.0277
   38loPI   C1B  605  10.406   2.874   9.427 -0.2045 -0.1330  0.0618
   38loPI   C2B  606  10.394   2.906   9.098 -0.1791 -0.2280  0.1497
   38loPI   C3B  607  10.259   2.866   8.667 -0.0269  0.2206  0.0793
   38loPI   C4B  608  10.267   3.041   8.280  0.0428 -0.0080  0.2656
   39loPI    C1  609  15.357  10.153  10.793  0.1849 -0.0551 -0.0124
   39loPI    C2  610  15.576  10.480  10.861  0.1984 -0.0505 -0.0783
   39loPI    C3  611  15.177  10.501  10.875  0.2025 -0.0649  0.0693
   39loPI   PO4  612  15.457  10.025  10.536  0.0244 -0.2065  0.0490
   39loPI   GL1  613  15.297  10.113  10.143  0.2476 -0.1699  0.2801
   39loPI   GL2  614  15.420   9.779  10.067 -0.2316  0.0029 -0.4349
   39loPI   C1A  615  15.098  10.342   9.757  0.1619 -0.0761  0.1045
   39loPI   C2A  616  15.116  10.469   9.285  0.0158  0.1756 -0.1571
   39loPI   C3A  617  15.083  10.536   8.888 -0.0279  0.2244  0.1129
   39loPI   C4A  618  14.948  10.700   8.493 -0.1524  0.0181 -0.0914
   39loPI   C5A  619  14.991  10.921   8.159  0.1787 -0.0257 -0.4084
   39loPI   C6A  620  15.130  11.256   8.046  0.2570  0.1512  0.2337
   39loPI   C1B  621  15.302   9.798   9.718  0.3624  0.2653 -0.0501
   39loPI   C2B  622  15.174   9.899   9.357  0.0737  0.0318 -0.0731
   39loPI   C3B  623  15.012  10.025   8.994 -0.1569  0.3203 -0.1506
   39loPI   C4B  624  14.958   9.630   8.634  0.0633 -0.2065  0.3339
   40loPI    C1  625   3.933  11.750  10.385 -0.1774 -0.0311 -0.0333
   40loPI    C2  626   4.232  11.788  10.649 -0.3625  0.2176  0.1457
   40loPI    C3  627   3.904  11.579  10.746 -0.2063 -0.1481 -0.0905
   40loPI   PO4  628   3.921  11.961  10.280  0.0538 -0.1158  0.0675
   40loPI   GL1  629   3.693  12.161   9.929  0.1399  0.2646  0.0899
   40loPI   GL2  630   3.999  12.259   9.741 -0.3304 -0.1284  0.1914
   40loPI   C1A  631   3.486  12.228   9.515  0.0983 -0.2224  0.2798
   40loPI   C2A  632   3.529  12.240   9.078 -0.1198 -0.1266 -0.1002
   40loPI   C3A  633   3.471  12.282   8.637  0.2361  0.2233 -0.0673
   40loPI   C4A  634   3.565  12.506   8.259 -0.2334 -0.1956  0.2398
   40loPI   C5A  635   3.821  12.561   7.986 -0.0175  0.1886 -0.1025
   40loPI   C6A  636   4.241  12.683   7.828 -0.1418  0.0276 -0.0500
   40loPI   C1B  637   3.944  12.410   9.272  0.0639 -0.1688  0.0575
   40loPI   C2B  638   3.920  12.417   8.879  0.1889  0.1468  0.0816
   40loPI   C3B  639   3.973  12.518   8.499  0.0252  0.0827 -0.3049
   40loPI   C4B  640   4.248  12.504   8.285  0.2874 -0.0284 -0.2789
   41loPI    C1  641   5.191  12.362  10.061  0.1582  0.0022  0.0693
   41loPI    C2  642   5.358  12.114  10.327 -0.0374  0.0645  0.2533
   41loPI    C3  643   5.406  12.509  10.364  0.2941  0.0583 -0.0531
   41loPI   PO4  644   4.874  12.260  10.036 -0.0262 -0.1196  0.0705
   41loPI   GL1  645   4.852  12.022   9.705 -0.0360 -0.0696  0.2669
   41loPI   GL2  646   4.678  11.703   9.719  0.0785  0.0485 -0.0864
   41loPI   C1A  647   4.742  12.347   9.373 -0.0653 -0.0047  0.0630
   41loPI   C2A  648   4.885  12.433   8.955  0.2452  0.0097  0.0432
   41loPI   C3A  649   4.807  12.378   8.500 -0.0323  0.0119  0.3559
   41loPI   C4A  650   4.965  12.322   8.035  0.1819  0.0105 -0.0666
   41loPI   C5A  651   5.411  12.533   7.984 -0.0806 -0.0552  0.2486
   41loPI   C6A  652   5.674  12.793   8.053  0.1050 -0.1169 -0.1789
   41loPI   C1B  653   4.748  11.835   9.254  0.1130 -0.1012 -0.1464
   41loPI   C2B  654   4.721  11.894   8.760 -0.2358 -0.2399 -0.1017
   41loPI   C3B  655   4.880  11.888   8.405  0.3584  0.1879 -0.2240
   41loPI   C4B  656   5.344  11.926   8.256 -0.1237  0.1472 -0.1217
   42loPI    C1  657   8.847  11.098  10.370  0.1374  0.1669  0.1693
   42loPI    C2  658   8.716  11.001  10.735  0.2578 -0.1856  0.1232
   42loPI    C3  659   9.105  10.970  10.648  0.2210 -0.1612 -0.0533
   42loPI   PO4  660   8.715  10.969  10.195 -0.1385 -0.3091  0.0070
   42loPI   GL1  661   8.867  11.119   9.779  0.0410  0.4100  0.5527
   42loPI   GL2  662   9.040  10.967   9.821 -0.1886 -0.0867  0.0509
   42loPI   C1A  663   8.828  11.162   9.327  0.1491 -0.0883  0.2613
   42loPI   C2A  664   8.847  11.233   8.850  0.0788  0.1461  0.2549
   42loPI   C3A  665   9.025  11.209   8.426  0.1018  0.0795 -0.2394
   42loPI   C4A  666   9.233  11.123   8.046  0.1155  0.3522  0.0316
   42loPI   C5A  667   9.644  11.018   8.210 -0.3038  0.1334  0.0675
   42loPI   C6A  668  10.105  11.072   8.071 -0.2428 -0.3236  0.1167
   42loPI   C1B  669   9.342  11.083   9.510  0.1176  0.1181  0.1089
   42loPI   C2B  670   9.450  11.107   9.184 -0.0888 -0.2688 -0.2505
   42loPI   C3B  671   9.505  10.947   8.784  0.1087 -0.0169  0.2145
   42loPI   C4B  672   9.524  10.600   8.474  0.0972  0.1840  0.2046
   43loPI    C1  673  11.010  10.663  10.491  0.0340  0.2515  0.0116
   43loPI    C2  674  10.954  10.538  10.867 -0.0491 -0.2085 -0.1474
   43loPI    C3  675  11.321  10.535  10.708 -0.0212 -0.0593 -0.0876
   43loPI   PO4  676  10.912  10.528  10.372  0.0554 -0.5677 -0.3329
   43loPI   GL1  677  10.952  10.430   9.986  0.1353  0.0831  0.0989
   43loPI   GL2  678  10.762  10.576   9.868 -0.0224 -0.1268  0.0349
   43loPI   C1A  679  11.194  10.360   9.676  0.1505  0.3315  0.0637
   43loPI   C2A  680  11.363  10.483   9.325  0.0854  0.3026  0.0919
   43loPI   C3A  681  11.378  10.524   8.867  0.2205 -0.0667  0.4039
   43loPI   C4A  682  11.219  10.473   8.370  0.1082  0.2232  0.0443
   43loPI   C5A  683  10.862  10.510   8.184  0.2233 -0.0567  0.0121
   43loPI   C6A  684  10.561  10.404   8.000  0.1741 -0.1789  0.4550
   43loPI   C1B  685  10.866  10.857   9.528 -0.1796  0.2017 -0.0236
   43loPI   C2B  686  10.859  10.766   9.026  0.1544  0.0897  0.1789
   43loPI   C3B  687  10.996  10.899   8.573 -0.2656  0.2178  0.1893
   43loPI   C4B  688  11.002  11.026   8.149 -0.1709 -0.0286  0.3693
   44loPI    C1  689  10.154  15.670  10.343 -0.0140 -0.0638  0.2908
   44loPI    C2  690   9.854  15.593  10.595 -0.2196 -0.0506  0.0540
   44loPI    C3  691  10.101  15.899  10.666 -0.4611  0.1416  0.0800
   44loPI   PO4  692  10.059  15.673  10.085 -0.1562  0.3177 -0.0867
   44loPI   GL1  693  10.148  15.993   9.763 -0.1505  0.0297  0.0788
   44loPI   GL2  694  10.096  16.258   9.695 -0.1024 -0.6747 -0.1738
   44loPI   C1A  695  10.288  16.038   9.279  0.1542  0.0946 -0.1388
   44loPI   C2A  696  10.553  16.101   8.995  0.0730 -0.3346 -0.0082
   44loPI   C3A  697  10.562  15.957   8.625 -0.2878 -0.0658  0.2440
   44loPI   C4A  698  10.543  15.898   8.212  0.0553 -0.0335 -0.0954
   44loPI   C5A  699  10.753  15.903   7.894 -0.0056 -0.1315 -0.2031
   44loPI   C6A  700  10.910  15.736   7.539  0.0317 -0.2437  0.0146
   44loPI   C1B  701   9.790  16.448   9.325 -0.0098 -0.2255 -0.1666
   44loPI   C2B  702   9.820  16.439   8.964 -0.2824  0.2257  0.3080
   44loPI   C3B  703   9.778  16.193   8.551 -0.0749  0.0346  0.1684
   44loPI   C4B  704   9.532  16.387   8.173 -0.0792 -0.0668  0.0617
   45loPI    C1  705   5.885  12.274  10.183 -0.1476 -0.0606  0.0298
   45loPI    C2  706   6.034  11.995  10.428 -0.0085 -0.0527 -0.0452
   45loPI    C3  707   5.904  12.343  10.576  0.1417 -0.0196  0.0108
   45loPI   PO4  708   5.781  12.184   9.982  0.1135 -0.1593  0.1057
   45loPI   GL1  709   5.809  12.083   9.647 -0.0845 -0.1619 -0.3283
   45loPI   GL2  710   5.851  11.862   9.508 -0.0581 -0.0488  0.1025
   45loPI   C1A  711   5.755  12.333   9.208  0.2164  0.0735  0.1252
   45loPI   C2A  712   5.703  12.242   8.841 -0.0251 -0.3825 -0.0183
   45loPI   C3A  713   5.737  12.338   8.406 -0.0326  0.0642 -0.1944
   45loPI   C4A  714   5.715  12.188   8.056  0.0980 -0.1546 -0.1505
   45loPI   C5A  715   5.843  12.289   7.564 -0.0602 -0.3993  0.0588
   45loPI   C6A  716   5.943  12.061   7.225  0.2133 -0.0023 -0.3440
   45loPI   C1B  717   5.608  11.806   9.248 -0.0409 -0.3134 -0.0469
   45loPI   C2B  718   5.631  11.768   8.825  0.1519  0.2048 -0.0393
   45loPI   C3B  719   5.828  11.663   8.390  0.0834  0.1379 -0.0532
   45loPI   C4B  720   5.713  11.602   7.984  0.0071  0.1099 -0.1089
   46loPI    C1  721   2.298  13.440  10.312 -0.0227 -0.1813 -0.1032
   46loPI    C2  722   2.192  13.259  10.652 -0.1053 -0.1076 -0.0891
   46loPI    C3  723   2.345  13.628  10.662  0.1086 -0.1942 -0.1134
   46loPI   PO4  724   2.386  13.297  10.131 -0.0676 -0.1233  0.3654
   46loPI   GL1  725   2.437  13.402   9.739  0.2039  0.0810  0.0416
   46loPI   GL2  726   2.465  13.113   9.671 -0.0814  0.2215 -0.0174
   46loPI   C1A  727   2.517  13.436   9.302 -0.2176  0.1403  0.0205
   46loPI   C2A  728   2.775  13.453   9.000  0.1709  0.1422  0.0661
   46loPI   C3A  729   2.682  13.529   8.677 -0.0801  0.0282 -0.0734
   46loPI   C4A  730   2.589  13.846   8.322  0.3100  0.1417  0.4008
   46loPI   C5A  731   2.179  13.778   8.062 -0.1588 -0.1516  0.1931
   46loPI   C6A  732   1.869  13.723   7.760 -0.0615  0.0035 -0.0710
   46loPI   C1B  733   2.771  12.912   9.268  0.0046 -0.3261  0.0415
   46loPI   C2B  734   2.873  12.947   8.848  0.1798  0.2723  0.0902
   46loPI   C3B  735   2.777  13.083   8.445 -0.0134 -0.0898 -0.4860
   46loPI   C4B  736   2.545  13.373   8.203 -0.2727 -0.0650 -0.2195
   47loPI    C1  737   0.577  18.219  10.844  0.0621  0.0909 -0.2831
   47loPI    C2  738   0.713  17.843  10.829 -0.2417 -0.0353 -0.0045
   47loPI    C3  739   0.538  17.979  11.162 -0.3077  0.2939 -0.1691
   47loPI   PO4  740   0.730  18.318  10.515  0.1231 -0.1977  0.0956
   47loPI   GL1  741   0.795  18.233  10.017 -0.0589  0.3235 -0.0201
   47loPI   GL2  742   0.608  18.513  10.059 -0.0925  0.1044 -0.1662
   47loPI   C1A  743   0.809  18.222   9.668 -0.3562 -0.0768 -0.0982
   47loPI   C2A  744   0.769  18.035   9.294 -0.0002 -0.3052 -0.0610
   47loPI   C3A  745   0.764  17.855   8.932  0.0233 -0.3156  0.0799
   47loPI   C4A  746   1.012  17.957   8.635 -0.1212 -0.1993 -0.0969
   47loPI   C5A  747   1.095  17.921   8.163  0.0864 -0.1207 -0.2864
   47loPI   C6A  748   1.275  18.267   7.907  0.1671 -0.2404 -0.1248
   47loPI   C1B  749   0.368  18.457   9.763  0.2782 -0.3559  0.0594
   47loPI   C2B  750   0.422  18.395   9.213 -0.1537  0.3836  0.1129
   47loPI   C3B  751   0.586  18.486   8.934  0.1675 -0.0414 -0.1362
   47loPI   C4B  752   0.570  18.293   8.532  0.1646  0.0057 -0.0470
   48loPI    C1  753   6.039   6.905  10.102  0.0647  0.1750 -0.2475
   48loPI    C2  754   5.918   7.263  10.234 -0.2339 -0.0602  0.1348
   48loPI    C3  755   6.218   7.072  10.418 -0.1029 -0.0270 -0.0423
   48loPI   PO4  756   6.023   6.944   9.839  0.1843 -0.3675 -0.3295
   48loPI   GL1  757   5.762   7.127   9.584 -0.1765  0.2759  0.0364
   48loPI   GL2  758   5.616   6.786   9.573  0.1025 -0.0671 -0.2383
   48loPI   C1A  759   6.000   6.958   9.249  0.0780  0.0226 -0.1616
   48loPI   C2A  760   6.089   6.886   8.804  0.1042 -0.2226  0.1541
   48loPI   C3A  761   6.120   6.867   8.407 -0.1952  0.3456  0.0022
   48loPI   C4A  762   6.347   6.979   7.967  0.0183  0.0097  0.0583
   48loPI   C5A  763   6.521   7.077   7.607  0.2574 -0.0578  0.1712
   48loPI   C6A  764   6.645   7.010   7.183  0.0285 -0.0456  0.0541
   48loPI   C1B  765   5.666   6.610   9.287 -0.0077 -0.0039  0.1170
   48loPI   C2B  766   5.740   6.481   8.869  0.3300  0.1561 -0.0428
   48loPI   C3B  767   5.674   6.625   8.417  0.2295  0.1573 -0.1104
   48loPI   C4B  768   5.450   6.587   8.007  0.0634 -0.1235  0.3239
   49loPI    C1  769   3.464   1.915  10.886 -0.0182  0.0401 -0.0466
   49loPI    C2  770   3.816   1.753  10.985 -0.1043 -0.1102  0.0177
   49loPI    C3  771   3.762   2.149  11.014  0.0406 -0.0932  0.0619
   49loPI   PO4  772   3.423   1.790  10.663  0.0054  0.2131 -0.1475
   49loPI   GL1  773   3.139   1.505  10.550  0.3470  0.3287  0.0375
   49loPI   GL2  774   3.032   1.758  10.331  0.4138  0.2148 -0.3422
   49loPI   C1A  775   3.187   1.353  10.063 -0.0585 -0.1208  0.2545
   49loPI   C2A  776   3.041   1.207   9.735 -0.0961 -0.1866  0.3609
   49loPI   C3A  777   2.746   1.202   9.429  0.0319  0.0951  0.2305
   49loPI   C4A  778   2.646   1.164   9.027 -0.1342 -0.2871  0.1921
   49loPI   C5A  779   2.780   1.176   8.568 -0.3371 -0.0580  0.0279
   49loPI   C6A  780   2.897   1.385   8.093  0.0188  0.0883 -0.1810
   49loPI   C1B  781   2.847   1.704   9.900  0.6830  0.1641 -0.1429
   49loPI   C2B  782   2.949   1.640   9.473 -0.2786 -0.1049  0.1090
   49loPI   C3B  783   3.033   1.522   9.084 -0.0376  0.2221  0.1128
   49loPI   C4B  784   3.069   1.570   8.601 -0.4737 -0.1235  0.1568
   50loPI    C1  785   6.141  13.943  10.274 -0.0402  0.0140  0.2132
   50loPI    C2  786   5.951  13.592  10.290 -0.0086  0.0006  0.3005
   50loPI    C3  787   6.117  13.744  10.620  0.1819 -0.0155  0.2133
   50loPI   PO4  788   5.917  14.082  10.076 -0.0777 -0.1055 -0.2927
   50loPI   GL1  789   5.930  14.243   9.617 -0.1486  0.1842 -0.0875
   50loPI   GL2  790   5.608  14.163   9.693 -0.1351  0.2627  0.3599
   50loPI   C1A  791   5.955  14.094   9.297 -0.1173  0.2407  0.1390
   50loPI   C2A  792   6.163  14.181   8.919 -0.0885 -0.0390 -0.0258
   50loPI   C3A  793   6.158  14.225   8.565 -0.2186  0.2307 -0.0276
   50loPI   C4A  794   6.322  14.411   8.181  0.0951  0.4163 -0.0901
   50loPI   C5A  795   6.394  14.301   7.831 -0.0166 -0.0967 -0.1488
   50loPI   C6A  796   6.278  14.020   7.607 -0.0908  0.0517  0.1230
   50loPI   C1B  797   5.538  13.838   9.423 -0.0527  0.1948 -0.1652
   50loPI   C2B  798   5.664  13.650   9.070 -0.1143  0.3499 -0.0446
   50loPI   C3B  799   5.548  13.564   8.602  0.2500 -0.0938  0.0384
   50loPI   C4B  800   5.537  13.565   8.153 -0.3747  0.4794 -0.1100
   51loPI    C1  801   3.140  17.067  10.106  0.0233 -0.0508 -0.0835
   51loPI    C2  802   3.248  17.094  10.490 -0.2420 -0.1277 -0.0007
   51loPI    C3  803   3.109  17.416  10.298  0.1204 -0.0291 -0.1068
   51loPI   PO4  804   2.986  16.804  10.038  0.0303 -0.3550  0.2455
   51loPI   GL1  805   2.881  16.713   9.667 -0.1334 -0.2514  0.1343
   51loPI   GL2  806   2.730  16.499   9.684 -0.2016  0.1310 -0.1693
   51loPI   C1A  807   3.142  16.938   9.333 -0.0374  0.4887 -0.0730
   51loPI   C2A  808   3.257  17.050   8.818  0.1523  0.1457  0.0635
   51loPI   C3A  809   3.390  16.979   8.355 -0.0578  0.2788  0.3554
   51loPI   C4A  810   3.606  16.715   8.076 -0.2864  0.1270  0.3292
   51loPI   C5A  811   4.080  16.767   8.079 -0.0545 -0.1286  0.0858
   51loPI   C6A  812   4.495  16.627   8.029  0.0576 -0.1444  0.2761
   51loPI   C1B  813   2.720  16.577   9.213 -0.4048 -0.0517  0.1468
   51loPI   C2B  814   2.676  16.454   8.759  0.0568 -0.0688 -0.0676
   51loPI   C3B  815   2.648  16.560   8.439 -0.3497 -0.0226 -0.1483
   51loPI   C4B  816   2.619  16.218   8.150 -0.0345 -0.2134 -0.1830
   52loPI    C1  817   4.633   7.248  10.038  0.0318  0.2621  0.0057
   52loPI    C2  818   4.657   7.097  10.407 -0.1053  0.3017  0.0312
   52loPI    C3  819   4.381   7.373  10.322 -0.1911  0.1637 -0.1459
   52loPI   PO4  820   4.548   7.024   9.824 -0.1557  0.0034  0.2638
   52loPI   GL1  821   4.649   6.694   9.552  0.0249 -0.1213  0.0751
   52loPI   GL2  822   4.798   6.485   9.533 -0.1493  0.0345  0.2230
   52loPI   C1A  823   4.700   6.853   9.175  0.0255 -0.2811  0.1075
   52loPI   C2A  824   4.663   7.080   8.824  0.1438  0.0393  0.1490
   52loPI   C3A  825   4.649   7.082   8.445  0.0953  0.0636  0.2492
   52loPI   C4A  826   4.411   7.259   8.067  0.3035 -0.2090  0.0444
   52loPI   C5A  827   4.508   7.431   7.655 -0.0309 -0.0582  0.0815
   52loPI   C6A  828   4.502   7.524   7.228  0.3402  0.0209 -0.0500
   52loPI   C1B  829   4.825   6.284   9.071 -0.0366  0.0748 -0.4074
   52loPI   C2B  830   4.710   6.089   8.649 -0.1582 -0.1719 -0.3160
   52loPI   C3B  831   4.752   5.928   8.126 -0.0433  0.0984  0.2574
   52loPI   C4B  832   4.602   6.189   7.831 -0.3153  0.1712 -0.0298
   53loPI    C1  833   6.290   7.617  10.437  0.0075  0.0865  0.0470
   53loPI    C2  834   6.518   7.530  10.754 -0.0991  0.1364  0.1378
   53loPI    C3  835   6.120   7.539  10.790 -0.1274 -0.1553 -0.0696
   53loPI   PO4  836   6.407   7.515  10.219  0.2184 -0.0934  0.2217
   53loPI   GL1  837   6.119   7.423   9.813  0.2469 -0.1974 -0.0258
   53loPI   GL2  838   6.368   7.645   9.728  0.0021 -0.1157 -0.0735
   53loPI   C1A  839   6.156   7.580   9.312 -0.0169 -0.1801 -0.3272
   53loPI   C2A  840   5.978   7.398   9.000 -0.1573 -0.0004 -0.1379
   53loPI   C3A  841   5.986   7.300   8.530 -0.0327 -0.2642 -0.0689
   53loPI   C4A  842   5.930   7.220   8.058  0.0883  0.0883  0.0016
   53loPI   C5A  843   6.016   7.306   7.631  0.1843  0.0411 -0.1072
   53loPI   C6A  844   5.901   7.731   7.371 -0.2075 -0.3096  0.0894
   53loPI   C1B  845   6.460   8.006   9.428 -0.0855  0.0376 -0.1138
   53loPI   C2B  846   6.309   7.950   8.997 -0.0059  0.0557  0.0350
   53loPI   C3B  847   6.337   7.763   8.569  0.1099 -0.0361  0.1035
   53loPI   C4B  848   6.339   7.436   8.149 -0.2219 -0.0877  0.1525
   54loPI    C1  849   7.009   2.625  10.551 -0.0045 -0.0165  0.1206
   54loPI    C2  850   7.404   2.616  10.616 -0.0018 -0.1057  0.0927
   54loPI    C3  851   7.150   2.620  10.926  0.0260  0.2716  0.1157
   54loPI   PO4  852   7.130   2.484  10.231  0.2532 -0.0712  0.1300
   54loPI   GL1  853   7.334   2.594   9.750 -0.0725  0.0058 -0.1407
   54loPI   GL2  854   7.433   2.903   9.644  0.0333 -0.0857  0.0265
   54loPI   C1A  855   7.250   2.507   9.333 -0.0349  0.0033 -0.0617
   54loPI   C2A  856   7.107   2.510   8.955 -0.2495 -0.0272  0.0660
   54loPI   C3A  857   6.967   2.558   8.505 -0.0421  0.1875  0.0669
   54loPI   C4A  858   7.008   2.451   8.196  0.0932 -0.0664 -0.2491
   54loPI   C5A  859   7.418   2.550   8.002  0.3564 -0.3930  0.1291
   54loPI   C6A  860   7.802   2.728   8.243 -0.1172  0.3045  0.0973
   54loPI   C1B  861   7.546   2.890   9.165  0.1655  0.1806 -0.1019
   54loPI   C2B  862   7.415   2.803   8.743  0.0031  0.2144  0.1070
   54loPI   C3B  863   7.350   2.845   8.454 -0.3462  0.1933  0.2127
   54loPI   C4B  864   7.357   2.998   8.083  0.0505 -0.0935 -0.1942
   55loPI    C1  865  16.878   3.516  10.622  0.0139 -0.2297 -0.0026
   55loPI    C2  866  17.058   3.321  10.921 -0.1157  0.1496  0.3332
   55loPI    C3  867  16.664   3.283  10.867 -0.0518 -0.1336  0.0324
   55loPI   PO4  868  17.077   3.624  10.424 -0.1634 -0.1536 -0.1830
   55loPI   GL1  869  17.367   3.463  10.098  0.0777  0.0907  0.3016
   55loPI   GL2  870  17.704   3.367  10.033  0.0610 -0.1274  0.3296
   55loPI   C1A  871  17.468   3.759   9.784  0.0961 -0.1950  0.1711
   55loPI   C2A  872  17.442   3.687   9.378  0.1212 -0.0977 -0.0242
   55loPI   C3A  873  17.522   3.620   8.966  0.3111  0.0825 -0.1908
   55loPI   C4A  874  17.403   3.799   8.632  0.1061  0.1215 -0.0061
   55loPI   C5A  875  17.321   3.886   8.242 -0.2094  0.0503 -0.1794
   55loPI   C6A  876  17.501   3.689   7.933  0.0869 -0.1965  0.0802
   55loPI   C1B  877  17.835   3.444   9.580  0.2217  0.1134 -0.0878
   55loPI   C2B  878  17.935   3.199   9.166 -0.0114  0.1868 -0.2079
   55loPI   C3B  879  17.969   3.214   8.707 -0.1394  0.2045 -0.3076
   55loPI   C4B  880  18.066   3.025   8.335 -0.0491  0.3446  0.0621
   56loPI    C1  881   0.113  14.526  10.607 -0.2162  0.3071 -0.1267
   56loPI    C2  882  -0.191  14.271  10.658 -0.1610  0.2232 -0.2130
   56loPI    C3  883  -0.034  14.462  10.973  0.0610 -0.1550 -0.0887
   56loPI   PO4  884  -0.020  14.694  10.302  0.2830  0.0578  0.1446
   56loPI   GL1  885   0.173  14.764   9.902 -0.2516 -0.1961 -0.1549
   56loPI   GL2  886   0.281  14.470   9.853  0.1379 -0.1552 -0.2110
   56loPI   C1A  887   0.208  14.944   9.514 -0.1408 -0.1830 -0.0086
   56loPI   C2A  888   0.134  14.763   9.069  0.0221  0.0606  0.0174
   56loPI   C3A  889   0.185  14.811   8.696 -0.2910 -0.2395  0.2979
   56loPI   C4A  890   0.462  14.891   8.360 -0.2263 -0.3704 -0.0685
   56loPI   C5A  891   0.583  14.923   7.984 -0.1447 -0.1233 -0.0942
   56loPI   C6A  892   0.497  15.105   7.617  0.0684  0.2691 -0.0861
   56loPI   C1B  893   0.296  14.322   9.446  0.0200 -0.3432  0.0312
   56loPI   C2B  894   0.372  14.355   8.939  0.1544  0.1642 -0.3044
   56loPI   C3B  895   0.315  14.382   8.497  0.1840  0.0440 -0.0142
   56loPI   C4B  896   0.289  14.445   8.054  0.0757  0.2968  0.2317
   57loPI    C1  897  16.921  17.819  10.340 -0.0379 -0.0575 -0.1823
   57loPI    C2  898  16.590  17.769  10.558  0.0561 -0.0472 -0.0359
   57loPI    C3  899  16.949  17.712  10.724  0.1246 -0.1939 -0.2309
   57loPI   PO4  900  16.955  18.100  10.266  0.1528  0.2931 -0.1153
   57loPI   GL1  901  16.964  18.204   9.853  0.2505 -0.0514 -0.2476
   57loPI   GL2  902  16.618  18.037   9.903  0.1269  0.0767 -0.2981
   57loPI   C1A  903  17.225  18.104   9.441  0.3974 -0.0764  0.0020
   57loPI   C2A  904  17.264  18.167   9.024  0.1313 -0.2304 -0.2117
   57loPI   C3A  905  17.333  18.124   8.597 -0.0489 -0.1069 -0.0978
   57loPI   C4A  906  17.479  18.447   8.279 -0.0388  0.0170 -0.1092
   57loPI   C5A  907  17.859  18.460   8.127 -0.1145  0.2068  0.2414
   57loPI   C6A  908  18.226  18.695   8.005  0.3162  0.1630 -0.0268
   57loPI   C1B  909  16.781  17.883   9.548  0.0849 -0.2024 -0.0384
   57loPI   C2B  910  16.825  17.899   9.076  0.2753  0.0553  0.0366
   57loPI   C3B  911  16.803  18.264   8.848 -0.0821 -0.0811  0.1022
   57loPI   C4B  912  16.589  18.531   8.744 -0.2519  0.0602 -0.1663
   58loPI    C1  913   5.932   3.878  10.516  0.0544  0.0720 -0.0155
   58loPI    C2  914   5.903   4.087  10.856  0.0021  0.1188 -0.0484
   58loPI    C3  915   6.261   3.961  10.728 -0.0145 -0.1956  0.2017
   58loPI   PO4  916   5.738   4.057  10.341  0.2286  0.1831  0.1906
   58loPI   GL1  917   5.657   4.059   9.807  0.1784  0.1619  0.0360
   58loPI   GL2  918   5.771   3.842   9.924 -0.0378  0.3150  0.2826
   58loPI   C1A  919   5.541   3.997   9.418  0.1367 -0.0258  0.2450
   58loPI   C2A  920   5.587   3.923   8.929 -0.1950  0.0132 -0.0230
   58loPI   C3A  921   5.650   3.843   8.577 -0.1187  0.1222  0.1378
   58loPI   C4A  922   5.758   3.853   8.240 -0.2366  0.1713  0.1236
   58loPI   C5A  923   5.771   4.127   7.865 -0.2179 -0.0952  0.0885
   58loPI   C6A  924   5.848   4.597   7.832 -0.0437 -0.0402  0.1195
   58loPI   C1B  925   5.795   3.561   9.697 -0.3279 -0.0597 -0.2233
   58loPI   C2B  926   5.635   3.508   9.329 -0.0688 -0.1214  0.3047
   58loPI   C3B  927   5.601   3.447   8.852 -0.0921  0.0965 -0.3493
   58loPI   C4B  928   5.842   3.349   8.435  0.0150  0.1329 -0.0515
   59loPI    C1  929  14.688  11.388  10.456 -0.1528  0.0407 -0.0736
   59loPI    C2  930  14.984  11.448  10.195 -0.2491 -0.0728 -0.2106
   59loPI    C3  931  15.060  11.453  10.588 -0.0647 -0.1078 -0.2445
   59loPI   PO4  932  14.478  11.391  10.269 -0.3904 -0.0730  0.1530
   59loPI   GL1  933  14.623  11.394   9.852 -0.1499  0.3436  0.0273
   59loPI   GL2  934  14.609  11.111   9.879 -0.3780 -0.2377 -0.0484
   59loPI   C1A  935  14.444  11.282   9.456  0.1007 -0.1189 -0.1103
   59loPI   C2A  936  14.375  11.302   8.989 -0.2953  0.0624 -0.3045
   59loPI   C3A  937  14.449  11.415   8.587  0.0494 -0.2123 -0.0243
   59loPI   C4A  938  14.666  11.456   8.193  0.0501  0.0496  0.1409
   59loPI   C5A  939  14.827  11.558   7.792  0.1516 -0.0955  0.1020
   59loPI   C6A  940  14.997  11.730   7.514 -0.0445  0.1931 -0.0179
   59loPI   C1B  941  14.263  10.987   9.847  0.0165  0.1382  0.2810
   59loPI   C2B  942  14.086  10.856   9.408  0.0296 -0.0067 -0.0180
   59loPI   C3B  943  13.865  10.962   9.039 -0.1902  0.1913  0.1540
   59loPI   C4B  944  14.022  11.134   8.691 -0.1236 -0.3274  0.0732
   60loPI    C1  945  16.555  11.240  10.666 -0.1870  0.0182  0.3438
   60loPI    C2  946  16.708  10.883  10.760  0.1070  0.0022 -0.1580
   60loPI    C3  947  16.945  11.204  10.745 -0.1151  0.1815  0.0754
   60loPI   PO4  948  16.403  11.185  10.413 -0.2884  0.1116  0.3058
   60loPI   GL1  949  16.336  10.979  10.015  0.1096  0.0219 -0.0017
   60loPI   GL2  950  16.526  10.789   9.938 -0.0867  0.0023  0.0348
   60loPI   C1A  951  16.213  11.096   9.641  0.1118  0.1963 -0.1304
   60loPI   C2A  952  16.298  11.107   9.284 -0.1839  0.5348  0.1375
   60loPI   C3A  953  16.121  11.000   8.850  0.0694  0.0064  0.0986
   60loPI   C4A  954  16.116  10.941   8.345  0.2347 -0.0016  0.0908
   60loPI   C5A  955  16.095  11.250   7.985  0.1446  0.0529  0.0674
   60loPI   C6A  956  16.148  11.652   7.977 -0.1964 -0.2586  0.0355
   60loPI   C1B  957  16.498  10.707   9.520  0.2149  0.1176 -0.1740
   60loPI   C2B  958  16.540  10.732   9.017  0.2529  0.1700  0.0364
   60loPI   C3B  959  16.669  10.915   8.674  0.0018  0.1672  0.1557
   60loPI   C4B  960  16.685  11.005   8.248  0.0991 -0.2365  0.0777
   61loPI    C1  961   2.725  10.327  10.255  0.1124  0.2538 -0.0619
   61loPI    C2  962   2.360  10.446  10.367  0.0280  0.2040 -0.2793
   61loPI    C3  963   2.655  10.713  10.329  0.0345  0.2340 -0.0314
   61loPI   PO4  964   2.621  10.205  10.037  0.0367 -0.2197 -0.2089
   61loPI   GL1  965   2.434  10.150   9.617  0.0627  0.1473 -0.0513
   61loPI   GL2  966   2.770  10.118   9.517  0.1501 -0.0159 -0.3461
   61loPI   C1A  967   2.137  10.168   9.278 -0.0315  0.3779 -0.1557
   61loPI   C2A  968   2.080  10.281   8.816 -0.1509 -0.0297  0.0859
   61loPI   C3A  969   2.175  10.343   8.388  0.0906  0.5307  0.1242
   61loPI   C4A  970   2.283  10.308   7.889 -0.0263 -0.0679  0.2746
   61loPI   C5A  971   2.077  10.113   7.444  0.1424  0.1949 -0.1926
   61loPI   C6A  972   2.372   9.911   7.103 -0.3068 -0.1551 -0.0183
   61loPI   C1B  973   2.720  10.145   9.038 -0.0392  0.0262 -0.3363
   61loPI   C2B  974   2.744  10.130   8.726  0.0806 -0.0091 -0.0328
   61loPI   C3B  975   2.839  10.284   8.322  0.2594  0.1889  0.3773
   61loPI   C4B  976   2.801  10.260   7.922 -0.2389 -0.3973  0.0928
   62loPI    C1  977  16.942   5.530  10.369  0.0090  0.0887  0.3188
   62loPI    C2  978  16.691   5.289  10.567 -0.3740  0.0214 -0.2271
   62loPI    C3  979  16.568   5.650  10.447 -0.0961  0.1243 -0.2081
   62loPI   PO4  980  17.096   5.367  10.231 -0.1797  0.0404 -0.1459
   62loPI   GL1  981  17.097   5.138   9.852  0.2217 -0.0900  0.0088
   62loPI   GL2  982  17.227   4.944   9.998 -0.0241 -0.2924 -0.0268
   62loPI   C1A  983  17.303   5.241   9.422  0.0038  0.3162  0.0536
   62loPI   C2A  984  17.366   5.251   8.967  0.0041 -0.0263  0.1882
   62loPI   C3A  985  17.306   5.165   8.520 -0.1022 -0.0029 -0.1134
   62loPI   C4A  986  17.358   5.146   8.066  0.0375 -0.1231  0.1240
   62loPI   C5A  987  17.500   4.825   7.747  0.1368  0.4493 -0.1198
   62loPI   C6A  988  17.358   4.622   7.344 -0.0435  0.2687  0.0087
   62loPI   C1B  989  17.352   4.773   9.569 -0.2872 -0.1849 -0.1954
   62loPI   C2B  990  17.493   4.810   9.162  0.0663  0.0976  0.0112
   62loPI   C3B  991  17.534   4.741   8.769 -0.0961 -0.1190 -0.1781
   62loPI   C4B  992  17.626   4.822   8.276  0.0994  0.1709  0.0245
   63loPI    C1  993   3.317   2.374  10.933  0.0783 -0.1708  0.0931
   63loPI    C2  994   3.542   2.704  10.920 -0.0243 -0.1087 -0.1688
   63loPI    C3  995   3.512   2.496  11.260  0.0750  0.1271 -0.0134
   63loPI   PO4  996   3.077   2.499  10.800  0.2014  0.4556  0.1237
   63loPI   GL1  997   2.885   2.550  10.274  0.0798  0.0271 -0.2117
   63loPI   GL2  998   2.964   2.297  10.367 -0.1538 -0.0753 -0.3930
   63loPI   C1A  999   2.803   2.505   9.902 -0.2077  0.3211  0.1941
   63loPI   C2A 1000   2.908   2.345   9.551  0.0498 -0.3727  0.0416
   63loPI   C3A 1001   2.881   2.461   9.195 -0.1010  0.0101  0.0841
   63loPI   C4A 1002   2.921   2.435   8.780  0.2259 -0.0761 -0.4613
   63loPI   C5A 1003   2.759   2.790   8.385 -0.0613  0.2439 -0.2576
   63loPI   C6A 1004   2.792   3.083   8.115  0.0267 -0.0164 -0.3159
   63loPI   C1B 1005   3.196   2.118  10.057  0.1303 -0.1188  0.0157
   63loPI   C2B 1006   3.203   1.954   9.736 -0.0046 -0.1651  0.0067
   63loPI   C3B 1007   3.212   1.999   9.268 -0.1980  0.2694  0.1717
   63loPI   C4B 1008   3.227   2.010   8.816  0.1676  0.0352 -0.1327
   64loPI    C1 1009   4.152   3.374  10.727 -0.0375 -0.0498  0.0267
   64loPI    C2 1010   4.305   3.678  10.517  0.3667  0.0729  0.4809
   64loPI    C3 1011   3.999   3.742  10.767 -0.0816 -0.0635 -0.0130
   64loPI   PO4 1012   4.155   3.174  10.515  0.1867  0.1221 -0.0058
   64loPI   GL1 1013   4.214   3.318  10.087  0.0379  0.0290 -0.0635
   64loPI   GL2 1014   3.974   3.328   9.898 -0.0923  0.3749 -0.0783
   64loPI   C1A 1015   4.352   3.406   9.599 -0.0674  0.0222  0.0984
   64loPI   C2A 1016   4.349   3.415   9.274  0.1004 -0.1323  0.1322
   64loPI   C3A 1017   3.905   3.301   9.075 -0.2577  0.3062 -0.0355
   64loPI   C4A 1018   3.493   3.311   8.950  0.0239 -0.2223  0.2677
   64loPI   C5A 1019   3.191   3.528   8.663  0.0316  0.2866  0.2361
   64loPI   C6A 1020   3.333   3.577   8.247 -0.2092 -0.0695  0.1353
   64loPI   C1B 1021   3.833   3.450   9.500  0.1992 -0.2247  0.3192
   64loPI   C2B 1022   3.896   3.770   9.268  0.2760  0.0051  0.2535
   64loPI   C3B 1023   3.823   3.724   8.832 -0.1696 -0.2753 -0.2488
   64loPI   C4B 1024   3.736   3.352   8.478  0.1661 -0.2106  0.2503
   65loPI    C1 1025  12.295   5.558  10.279  0.1972  0.1304  0.2852
   65loPI    C2 1026  12.102   5.779  10.007 -0.1864 -0.1305  0.3364
   65loPI    C3 1027  12.465   5.890  10.135 -0.1003  0.1197 -0.1056
   65loPI   PO4 1028  12.317   5.250  10.136  0.3930  0.0284  0.0036
   65loPI   GL1 1029  12.335   4.881   9.821 -0.0325 -0.3124 -0.0688
   65loPI   GL2 1030  12.021   5.090   9.766 -0.0184  0.0301  0.2626
   65loPI   C1A 1031  12.361   4.806   9.383 -0.0629 -0.1183  0.3123
   65loPI   C2A 1032  12.764   4.741   9.105  0.0661 -0.1241 -0.1277
   65loPI   C3A 1033  12.887   4.881   8.779 -0.2215 -0.0065 -0.0378
   65loPI   C4A 1034  13.196   4.929   8.512 -0.1186  0.1033  0.0703
   65loPI   C5A 1035  13.263   4.862   8.054  0.3013  0.1068 -0.0270
   65loPI   C6A 1036  13.319   4.927   7.616  0.3822  0.1131  0.3258
   65loPI   C1B 1037  11.861   5.084   9.354 -0.0751  0.3371  0.2759
   65loPI   C2B 1038  11.847   5.247   9.021 -0.2632  0.3116  0.0920
   65loPI   C3B 1039  11.752   5.754   9.002 -0.2065 -0.3811  0.0488
   65loPI   C4B 1040  12.112   5.995   8.910 -0.2337  0.0297 -0.0320
   66loPI    C1 1041   7.138  18.206  10.449 -0.0375 -0.0612  0.2443
   66loPI    C2 1042   7.118  17.948  10.144  0.1346  0.0522  0.1358
   66loPI    C3 1043   7.025  17.828  10.514  0.1732 -0.1538  0.0796
   66loPI   PO4 1044   7.210  18.464  10.334  0.1598 -0.1272 -0.0442
   66loPI   GL1 1045   7.226  18.599  10.054  0.0917  0.2362  0.2234
   66loPI   GL2 1046   7.325  18.916   9.929  0.2468  0.2318  0.0095
   66loPI   C1A 1047   7.082  18.272   9.719  0.2047  0.5131  0.1944
   66loPI   C2A 1048   6.924  18.109   9.362  0.1726 -0.2178  0.2759
   66loPI   C3A 1049   6.890  17.807   9.068 -0.2382  0.0096 -0.0012
   66loPI   C4A 1050   6.779  17.809   8.652 -0.0499 -0.1615 -0.3758
   66loPI   C5A 1051   6.833  17.734   8.236  0.0990 -0.4584 -0.0374
   66loPI   C6A 1052   7.143  17.540   7.935 -0.1512 -0.4310  0.3060
   66loPI   C1B 1053   7.487  19.152   9.643  0.0077  0.1641  0.4644
   66loPI   C2B 1054   7.296  19.238   9.271 -0.0034  0.3578 -0.1388
   66loPI   C3B 1055   7.244  19.223   8.816 -0.3799  0.1453  0.2685
   66loPI   C4B 1056   7.120  19.298   8.471 -0.0375  0.0220  0.5809
   67loPI    C1 1057  12.907  11.764  10.667  0.2450 -0.0542 -0.0045
   67loPI    C2 1058  12.710  11.423  10.733  0.1083  0.0171 -0.0419
   67loPI    C3 1059  12.606  11.755  10.930  0.0431  0.1075 -0.2268
   67loPI   PO4 1060  12.894  11.853  10.436  0.1784 -0.2709 -0.0908
   67loPI   GL1 1061  13.080  11.825   9.967 -0.1062 -0.0273  0.0253
   67loPI   GL2 1062  13.335  12.020   9.954 -0.1324 -0.3071  0.0811
   67loPI   C1A 1063  13.348  11.557   9.742 -0.2379 -0.1070 -0.0283
   67loPI   C2A 1064  13.313  11.381   9.329  0.0561  0.3988  0.8850
   67loPI   C3A 1065  13.536  11.318   8.889  0.1970  0.1364  0.1993
   67loPI   C4A 1066  13.578  11.326   8.481  0.1587 -0.0910  0.0249
   67loPI   C5A 1067  13.817  11.172   8.086  0.1626 -0.2146  0.3678
   67loPI   C6A 1068  14.264  11.176   7.997 -0.0611  0.0706 -0.1540
   67loPI   C1B 1069  13.316  12.125   9.613 -0.0658  0.1410  0.3002
   67loPI   C2B 1070  13.302  12.137   9.188  0.0661 -0.0455  0.0180
   67loPI   C3B 1071  13.207  12.188   8.752  0.0500 -0.1409  0.1294
   67loPI   C4B 1072  13.145  12.232   8.313  0.0472  0.3758  0.1450
   68loPI    C1 1073   0.611  11.070  10.439  0.3526  0.2693 -0.0589
   68loPI    C2 1074   0.940  10.866  10.538  0.0684 -0.1112  0.1288
   68loPI    C3 1075   0.579  10.711  10.612 -0.1573  0.1912 -0.2957
   68loPI   PO4 1076   0.633  11.131  10.194  0.0536  0.1195 -0.1611
   68loPI   GL1 1077   0.319  11.113   9.759  0.1671  0.2602  0.1132
   68loPI   GL2 1078  -0.033  10.919   9.829 -0.0748 -0.0627 -0.1556
   68loPI   C1A 1079   0.533  10.833   9.495 -0.0798 -0.0388 -0.0494
   68loPI   C2A 1080   0.466  10.875   9.024 -0.0759  0.1395  0.0123
   68loPI   C3A 1081   0.441  10.828   8.673  0.2186  0.3992 -0.1792
   68loPI   C4A 1082   0.288  10.675   8.399 -0.0831  0.0054 -0.0728
   68loPI   C5A 1083   0.150  10.504   8.076  0.2856  0.0207  0.1366
   68loPI   C6A 1084  -0.071  10.424   7.665  0.2218 -0.1692 -0.0195
   68loPI   C1B 1085  -0.000  10.793   9.307 -0.0436  0.0438 -0.3699
   68loPI   C2B 1086  -0.027  10.754   8.886  0.1427  0.1145 -0.2115
   68loPI   C3B 1087  -0.205  10.469   8.534 -0.0317  0.1411 -0.0727
   68loPI   C4B 1088  -0.342  10.327   8.112  0.1584  0.0381 -0.0943
   69loPI    C1 1089   5.541  17.677  10.245 -0.0743  0.0458 -0.0053
   69loPI    C2 1090   5.846  17.560  10.476 -0.0911  0.1018  0.0457
   69loPI    C3 1091   5.491  17.379  10.507 -0.0751  0.0657  0.0173
   69loPI   PO4 1092   5.633  17.640  10.001  0.2072  0.0181 -0.0958
   69loPI   GL1 1093   5.455  17.473   9.625 -0.0063  0.0299  0.1243
   69loPI   GL2 1094   5.379  17.708   9.491 -0.0695  0.0044 -0.1978
   69loPI   C1A 1095   5.650  17.468   9.135  0.2834 -0.2680  0.0592
   69loPI   C2A 1096   5.885  17.465   8.704 -0.1578  0.0008  0.0116
   69loPI   C3A 1097   5.835  17.367   8.235 -0.0335 -0.1185 -0.3653
   69loPI   C4A 1098   5.565  17.111   7.849  0.2018 -0.0188  0.5032
   69loPI   C5A 1099   5.574  17.410   7.419  0.2457 -0.3487  0.0936
   69loPI   C6A 1100   5.561  17.804   7.320 -0.2951  0.0979 -0.3828
   69loPI   C1B 1101   5.381  17.901   9.159 -0.0787 -0.1661 -0.0317
   69loPI   C2B 1102   5.469  17.891   8.703  0.2628  0.1010  0.0740
   69loPI   C3B 1103   5.651  17.921   8.412  0.0744  0.0651  0.0472
   69loPI   C4B 1104   5.730  18.322   8.239  0.0908  0.1035  0.1191
   70loPI    C1 1105   1.428   3.210  10.690  0.1301 -0.1666  0.0565
   70loPI    C2 1106   1.474   3.180  11.086 -0.1192 -0.0064  0.0993
   70loPI    C3 1107   1.141   3.342  10.934  0.0119  0.0118 -0.1748
   70loPI   PO4 1108   1.455   2.932  10.594 -0.0323  0.1906 -0.0237
   70loPI   GL1 1109   1.353   2.850  10.137 -0.0917 -0.1936  0.2209
   70loPI   GL2 1110   1.189   3.084  10.157 -0.1780  0.1163  0.0277
   70loPI   C1A 1111   1.338   2.769   9.636 -0.1264 -0.0086  0.1486
   70loPI   C2A 1112   1.339   2.510   9.364 -0.3006 -0.1051  0.0782
   70loPI   C3A 1113   1.411   2.598   9.005 -0.1171 -0.0928 -0.0864
   70loPI   C4A 1114   1.401   2.752   8.627 -0.1654 -0.0679  0.4054
   70loPI   C5A 1115   1.381   2.825   8.208 -0.2325 -0.1686 -0.1590
   70loPI   C6A 1116   1.919   2.739   8.112  0.1286 -0.3841 -0.1165
   70loPI   C1B 1117   1.381   3.236   9.745  0.3225 -0.0887  0.0948
   70loPI   C2B 1118   1.442   3.142   9.277  0.0409  0.3493  0.0759
   70loPI   C3B 1119   1.336   3.176   8.880  0.1075  0.2115 -0.2664
   70loPI   C4B 1120   1.254   3.313   8.483 -0.1123 -0.2204 -0.4513
   71loPI    C1 1121   4.432  16.276  10.523 -0.1721  0.2793 -0.0903
   71loPI    C2 1122   4.752  16.321  10.759 -0.0317 -0.0700 -0.2080
   71loPI    C3 1123   4.385  16.376  10.908  0.0741  0.1902 -0.0355
   71loPI   PO4 1124   4.490  16.071  10.375  0.1565 -0.1424  0.3194
   71loPI   GL1 1125   4.495  15.840   9.952 -0.1750 -0.1169 -0.2383
   71loPI   GL2 1126   4.756  15.986   9.900 -0.1585 -0.1633 -0.1113
   71loPI   C1A 1127   4.395  15.480   9.766 -0.0397 -0.1226 -0.1098
   71loPI   C2A 1128   4.472  15.079   9.577 -0.0664  0.0839 -0.0573
   71loPI   C3A 1129   4.598  15.058   9.148  0.1811  0.0429  0.0759
   71loPI   C4A 1130   4.473  15.174   8.729  0.1190 -0.2632  0.0315
   71loPI   C5A 1131   4.760  15.284   8.472 -0.2358 -0.3007  0.1821
   71loPI   C6A 1132   4.897  15.584   8.072 -0.1720 -0.0755 -0.0097
   71loPI   C1B 1133   4.655  15.829   9.513 -0.1161  0.1269  0.2176
   71loPI   C2B 1134   4.395  15.503   9.262 -0.0995 -0.1580  0.2464
   71loPI   C3B 1135   4.195  15.526   8.804 -0.0823  0.0748  0.2104
   71loPI   C4B 1136   3.937  15.798   8.700  0.1217  0.1069 -0.1746
   72loPI    C1 1137  13.168   1.226  10.556  0.0122  0.0573 -0.1086
   72loPI    C2 1138  12.772   1.208  10.612  0.0121 -0.0084 -0.1299
   72loPI    C3 1139  12.934   1.065  10.275  0.0617 -0.0526 -0.0876
   72loPI   PO4 1140  13.288   1.504  10.548 -0.2176 -0.0495 -0.0246
   72loPI   GL1 1141  13.279   1.666  10.151 -0.2847 -0.0060 -0.2884
   72loPI   GL2 1142  13.569   1.711   9.978 -0.0789 -0.0357  0.1822
   72loPI   C1A 1143  13.093   1.553   9.794  0.1767  0.1877  0.0725
   72loPI   C2A 1144  13.201   1.806   9.461  0.0654 -0.2073 -0.1599
   72loPI   C3A 1145  13.086   1.689   9.003  0.0648 -0.0780 -0.4280
   72loPI   C4A 1146  13.219   1.792   8.618  0.3266  0.1228  0.0914
   72loPI   C5A 1147  13.149   2.046   8.167 -0.2273  0.1724  0.1038
   72loPI   C6A 1148  13.220   2.200   7.750 -0.0948 -0.1443  0.0185
   72loPI   C1B 1149  13.537   1.416   9.614 -0.0443  0.0902  0.0015
   72loPI   C2B 1150  13.535   1.534   9.129  0.3518 -0.0237 -0.1035
   72loPI   C3B 1151  13.697   1.585   8.743 -0.3286 -0.3055 -0.1214
   72loPI   C4B 1152  13.598   1.530   8.251  0.0025 -0.3923  0.1677
   73loPI    C1 1153   7.915   0.363  10.452  0.1974 -0.1857 -0.1429
   73loPI    C2 1154   7.889   0.670  10.707 -0.0714 -0.1729 -0.1824
   73loPI    C3 1155   7.865   0.295  10.843  0.3008 -0.1807 -0.1287
   73loPI   PO4 1156   7.685   0.316  10.269 -0.1050 -0.3631  0.0093
   73loPI   GL1 1157   7.659   0.006   9.956  0.2516  0.0503  0.1368
   73loPI   GL2 1158   7.526  -0.207  10.058  0.0694  0.0586  0.2780
   73loPI   C1A 1159   7.439   0.207   9.576 -0.3210 -0.1351  0.0091
   73loPI   C2A 1160   7.277   0.319   9.216 -0.6498  0.0705 -0.0507
   73loPI   C3A 1161   7.150   0.348   8.802  0.0963  0.1396  0.3022
   73loPI   C4A 1162   7.327   0.460   8.400 -0.1155  0.1286 -0.3375
   73loPI   C5A 1163   7.612   0.377   8.152  0.0022  0.0469  0.0105
   73loPI   C6A 1164   7.987   0.156   8.225 -0.1780 -0.0595 -0.2414
   73loPI   C1B 1165   7.636  -0.244   9.596 -0.0618 -0.0865  0.0438
   73loPI   C2B 1166   7.516  -0.135   9.229 -0.1096 -0.1800 -0.4346
   73loPI   C3B 1167   7.341  -0.090   8.888  0.0383 -0.3208  0.0764
   73loPI   C4B 1168   6.943  -0.112   8.686 -0.3769  0.1185  0.0147
   74loPI    C1 1169   0.761   1.995  10.637  0.0191  0.1733  0.3289
   74loPI    C2 1170   0.554   1.739  10.864 -0.0435 -0.0047  0.0757
   74loPI    C3 1171   0.948   1.690  10.816 -0.0249  0.0508  0.1689
   74loPI   PO4 1172   0.638   1.979  10.405 -0.0761 -0.1347  0.1553
   74loPI   GL1 1173   0.748   1.810   9.992 -0.1510 -0.0249  0.1117
   74loPI   GL2 1174   0.726   1.920   9.645  0.3308  0.0606  0.1385
   74loPI   C1A 1175   0.613   1.447   9.656 -0.3223 -0.0501 -0.4167
   74loPI   C2A 1176   0.603   1.436   9.234  0.0095 -0.2900 -0.2865
   74loPI   C3A 1177   0.594   1.450   8.831 -0.0568  0.2608  0.0203
   74loPI   C4A 1178   0.539   1.427   8.441  0.2253  0.0259  0.2589
   74loPI   C5A 1179   0.594   1.044   8.345 -0.0920  0.0659  0.0377
   74loPI   C6A 1180   0.779   0.571   8.250 -0.3526  0.0775 -0.1794
   74loPI   C1B 1181   0.754   1.941   9.195  0.2114  0.0074 -0.2011
   74loPI   C2B 1182   0.696   1.999   8.791 -0.0121  0.2372 -0.1147
   74loPI   C3B 1183   0.705   2.006   8.304  0.0756  0.1377  0.2876
   74loPI   C4B 1184   0.474   1.859   7.988 -0.0256 -0.0758 -0.0674
   75loPI    C1 1185  12.527   9.431  10.604 -0.0847  0.0285 -0.0100
   75loPI    C2 1186  12.917   9.400  10.523 -0.0709 -0.0939  0.1010
   75loPI    C3 1187  12.786   9.356  10.899 -0.1622  0.2172  0.1085
   75loPI   PO4 1188  12.399   9.291  10.429 -0.0120 -0.1880 -0.2625
   75loPI   GL1 1189  12.400   9.200  10.085 -0.0400 -0.3473 -0.2764
   75loPI   GL2 1190  12.083   9.380   9.927  0.0384 -0.0338  0.4048
   75loPI   C1A 1191  12.469   9.158   9.642  0.2757 -0.0218 -0.2083
   75loPI   C2A 1192  12.566   9.096   9.246  0.0324 -0.1229 -0.1140
   75loPI   C3A 1193  12.686   9.259   8.892 -0.1634  0.0491 -0.0227
   75loPI   C4A 1194  12.601   9.370   8.524  0.1181  0.3376  0.2106
   75loPI   C5A 1195  12.725   9.490   8.134 -0.1435 -0.1834 -0.0408
   75loPI   C6A 1196  12.514   9.778   7.813 -0.1283 -0.1560 -0.1073
   75loPI   C1B 1197  12.130   9.362   9.317 -0.1023  0.1949 -0.1850
   75loPI   C2B 1198  12.144   9.271   8.871 -0.0663  0.0822 -0.3329
   75loPI   C3B 1199  12.110   9.258   8.474  0.1812 -0.0236  0.1943
   75loPI   C4B 1200  12.262   9.363   8.086  0.1581  0.1625 -0.2792
   76loPI    C1 1201   3.948   9.958  10.417 -0.0971  0.0829 -0.0130
   76loPI    C2 1202   4.345   9.926  10.455 -0.1320 -0.1585  0.1711
   76loPI    C3 1203   4.167  10.280  10.513  0.1058  0.0691 -0.4090
   76loPI   PO4 1204   3.837   9.903  10.144 -0.2454 -0.2240  0.2377
   76loPI   GL1 1205   3.904   9.905   9.655 -0.0888 -0.1819  0.2673
   76loPI   GL2 1206   4.041   9.665   9.677  0.3001  0.2764 -0.1700
   76loPI   C1A 1207   3.868   9.926   9.211  0.0766 -0.0560 -0.0310
   76loPI   C2A 1208   3.884  10.016   8.746 -0.2417  0.1685 -0.0049
   76loPI   C3A 1209   3.795  10.062   8.370  0.0817 -0.0808  0.3124
   76loPI   C4A 1210   3.802  10.172   7.967 -0.0342 -0.1477  0.2359
   76loPI   C5A 1211   3.654   9.911   7.657  0.2668  0.1978  0.1529
   76loPI   C6A 1212   3.353  10.093   7.376 -0.1667  0.1328 -0.0197
   76loPI   C1B 1213   4.096   9.480   9.288 -0.1207  0.0725  0.2287
   76loPI   C2B 1214   4.044   9.553   8.905  0.0049  0.0564 -0.1857
   76loPI   C3B 1215   4.023   9.553   8.413  0.0590 -0.3667 -0.2625
   76loPI   C4B 1216   4.037   9.732   7.888 -0.2854  0.2326 -0.3819
   77loPI    C1 1217   1.246  16.384  10.405 -0.1215  0.1115  0.0031
   77loPI    C2 1218   1.183  16.665  10.683 -0.1368 -0.0674  0.1827
   77loPI    C3 1219   1.119  16.280  10.769  0.0503 -0.1431 -0.0073
   77loPI   PO4 1220   1.171  16.523  10.184 -0.0822 -0.1009  0.1148
   77loPI   GL1 1221   1.148  16.813   9.884 -0.1064 -0.3773 -0.0604
   77loPI   GL2 1222   1.525  16.829   9.835  0.0064 -0.6165  0.0286
   77loPI   C1A 1223   0.982  16.698   9.403 -0.0011 -0.0481 -0.1636
   77loPI   C2A 1224   0.942  16.814   8.955  0.0394  0.0689  0.3286
   77loPI   C3A 1225   0.867  16.644   8.491 -0.4510 -0.1262 -0.0670
   77loPI   C4A 1226   1.169  16.797   8.206 -0.2041  0.0200 -0.3469
   77loPI   C5A 1227   1.472  16.816   8.008  0.3084  0.3026 -0.1695
   77loPI   C6A 1228   1.946  16.872   8.154  0.0052  0.1693 -0.0942
   77loPI   C1B 1229   1.802  17.024   9.457  0.0293  0.2826 -0.3484
   77loPI   C2B 1230   1.893  17.050   9.054  0.2971  0.0243 -0.1316
   77loPI   C3B 1231   1.830  16.940   8.674 -0.2242  0.3508  0.0203
   77loPI   C4B 1232   1.515  16.653   8.529  0.0957 -0.3823 -0.1017
   78loPI    C1 1233   3.047   8.435   9.961  0.0347 -0.0808 -0.0143
   78loPI    C2 1234   3.360   8.372  10.202  0.1954 -0.1950 -0.2483
   78loPI    C3 1235   3.008   8.484  10.356  0.3614 -0.0216  0.0135
   78loPI   PO4 1236   3.152   8.625   9.784 -0.0852 -0.0492 -0.1462
   78loPI   GL1 1237   3.451   8.860   9.369 -0.1274  0.1301  0.0506
   78loPI   GL2 1238   3.632   8.555   9.349 -0.0798  0.3861 -0.2625
   78loPI   C1A 1239   3.408   9.016   8.923 -0.0280 -0.3632 -0.3931
   78loPI   C2A 1240   3.497   8.943   8.557  0.0268 -0.1621 -0.2035
   78loPI   C3A 1241   3.378   9.031   8.245 -0.0992 -0.2671  0.2191
   78loPI   C4A 1242   3.433   9.004   7.875 -0.3083 -0.2503 -0.1889
   78loPI   C5A 1243   3.588   9.058   7.531 -0.0373  0.1571  0.2813
   78loPI   C6A 1244   3.665   9.503   7.322  0.2269  0.2644 -0.1358
   78loPI   C1B 1245   3.673   8.597   8.919 -0.0832  0.0294  0.0307
   78loPI   C2B 1246   3.433   8.428   8.642  0.0900  0.0758  0.0813
   78loPI   C3B 1247   3.251   8.371   8.266  0.3755 -0.0589  0.1086
   78loPI   C4B 1248   3.008   8.300   7.864 -0.0018  0.0427  0.0899
   79loPI    C1 1249   3.364  13.678  10.607 -0.0111  0.1876  0.1096
   79loPI    C2 1250   3.028  13.643  10.819 -0.1034 -0.1037 -0.0789
   79loPI    C3 1251   3.383  13.597  10.998 -0.1701 -0.0353  0.0729
   79loPI   PO4 1252   3.264  13.718  10.308  0.1711 -0.0866  0.0055
   79loPI   GL1 1253   3.286  13.946   9.927 -0.0699  0.0292 -0.1589
   79loPI   GL2 1254   3.120  13.665   9.690  0.1732  0.2438  0.1524
   79loPI   C1A 1255   3.514  14.122   9.647  0.0521 -0.0242 -0.1963
   79loPI   C2A 1256   3.791  14.281   9.250  0.0323  0.0601  0.0500
   79loPI   C3A 1257   3.821  14.520   8.898 -0.0094 -0.2140 -0.0463
   79loPI   C4A 1258   3.738  14.617   8.525 -0.3689 -0.1647 -0.0363
   79loPI   C5A 1259   3.605  14.712   8.079  0.1523  0.0524  0.1453
   79loPI   C6A 1260   3.584  14.414   7.688  0.2827  0.0177 -0.0374
   79loPI   C1B 1261   3.145  13.770   9.251  0.0251 -0.1353 -0.1087
   79loPI   C2B 1262   3.181  13.724   8.772  0.0811 -0.0286  0.3096
   79loPI   C3B 1263   3.367  13.715   8.374  0.1358 -0.2158  0.1896
   79loPI   C4B 1264   3.432  13.970   7.861  0.1724  0.3556  0.2757
   80loPI    C1 1265   1.216   6.161  10.489 -0.0461  0.1821 -0.0268
   80loPI    C2 1266   1.302   5.862  10.740 -0.0351  0.0894 -0.1402
   80loPI    C3 1267   1.316   6.240  10.868 -0.1473  0.0366  0.0311
   80loPI   PO4 1268   1.029   6.045  10.275 -0.2529  0.0437  0.1390
   80loPI   GL1 1269   1.017   5.705   9.868  0.2729 -0.0126  0.1503
   80loPI   GL2 1270   0.749   5.672   9.759  0.0393  0.1273 -0.2157
   80loPI   C1A 1271   1.255   5.564   9.405  0.0255 -0.1431 -0.0288
   80loPI   C2A 1272   1.242   5.635   9.089  0.0961  0.1053 -0.1053
   80loPI   C3A 1273   1.282   5.573   8.674 -0.1769 -0.1245  0.2549
   80loPI   C4A 1274   1.129   5.610   8.201 -0.0895 -0.0240 -0.1337
   80loPI   C5A 1275   0.891   5.687   7.847 -0.0121 -0.1563 -0.1250
   80loPI   C6A 1276   0.607   5.413   7.594 -0.0578 -0.3993 -0.1217
   80loPI   C1B 1277   0.695   5.606   9.302 -0.1517  0.0416 -0.0209
   80loPI   C2B 1278   0.714   5.494   8.880 -0.2507  0.0683 -0.4682
   80loPI   C3B 1279   0.899   5.299   8.477  0.1822  0.2324 -0.2324
   80loPI   C4B 1280   0.844   5.178   8.045  0.2535 -0.2074 -0.2648
   81loPI    C1 1281   9.148  17.798  10.529 -0.1219 -0.2253  0.0454
   81loPI    C2 1282   9.460  18.048  10.509 -0.3958  0.1128 -0.1231
   81loPI    C3 1283   9.355  17.887  10.860  0.0351 -0.1002 -0.0845
   81loPI   PO4 1284   8.963  17.944  10.461 -0.0472  0.2472 -0.2771
   81loPI   GL1 1285   9.024  18.122  10.087 -0.0253 -0.1796  0.0077
   81loPI   GL2 1286   9.285  18.044   9.881 -0.0845 -0.1841  0.0380
   81loPI   C1A 1287   8.856  18.019   9.696  0.0893 -0.5045  0.0335
   81loPI   C2A 1288   8.726  18.058   9.227  0.4448  0.2026 -0.2709
   81loPI   C3A 1289   8.719  18.065   8.845  0.3934  0.1511  0.2775
   81loPI   C4A 1290   8.734  18.179   8.410 -0.0115  0.1324  0.1098
   81loPI   C5A 1291   8.547  18.534   8.251  0.1238 -0.2587 -0.0964
   81loPI   C6A 1292   8.443  18.809   7.937 -0.2480  0.3978 -0.0005
   81loPI   C1B 1293   9.267  18.249   9.571 -0.0778 -0.0569  0.3085
   81loPI   C2B 1294   9.196  18.208   9.186 -0.2022  0.1313 -0.1042
   81loPI   C3B 1295   9.214  18.138   8.748  0.0943  0.0443  0.0165
   81loPI   C4B 1296   9.400  18.012   8.382  0.0479 -0.0373  0.0600
   82loPI    C1 1297   9.814  14.909   9.968  0.0383  0.2131 -0.1928
   82loPI    C2 1298   9.840  15.238  10.194  0.2136  0.0241  0.0680
   82loPI    C3 1299   9.600  14.938  10.304 -0.0104  0.0953 -0.2133
   82loPI   PO4 1300   9.747  15.003   9.722 -0.1017 -0.1831 -0.1328
   82loPI   GL1 1301   9.372  15.248   9.489  0.2941  0.3102 -0.0001
   82loPI   GL2 1302   9.196  15.000   9.241  0.2737 -0.1108 -0.0204
   82loPI   C1A 1303   9.566  15.256   9.026  0.0990 -0.1885  0.0300
   82loPI   C2A 1304   9.428  15.261   8.575 -0.0011 -0.0929  0.1288
   82loPI   C3A 1305   9.159  15.093   8.326 -0.2480 -0.2199 -0.0454
   82loPI   C4A 1306   8.917  15.276   7.949  0.0773  0.2331 -0.2379
   82loPI   C5A 1307   8.841  15.713   7.791  0.2816  0.1692 -0.0810
   82loPI   C6A 1308   8.457  15.940   7.742  0.1881 -0.2828  0.1011
   82loPI   C1B 1309   9.033  15.101   8.800 -0.0983  0.0761 -0.2152
   82loPI   C2B 1310   8.652  15.158   8.653  0.0769 -0.3255 -0.1642
   82loPI   C3B 1311   8.500  15.230   8.310  0.0015  0.2150 -0.3884
   82loPI   C4B 1312   8.445  15.472   8.049 -0.2849  0.1933  0.1200
   83loPI    C1 1313   8.609  14.191   9.585  0.1842  0.0810  0.1285
   83loPI    C2 1314   8.893  13.959   9.425  0.0418  0.0925 -0.1479
   83loPI    C3 1315   8.509  13.847   9.407  0.0330  0.0255  0.3175
   83loPI   PO4 1316   8.663  14.446   9.411 -0.2216  0.1746  0.1219
   83loPI   GL1 1317   8.681  14.366   9.066  0.1958 -0.0822  0.0236
   83loPI   GL2 1318   8.676  14.054   8.901 -0.0781  0.0604 -0.5198
   83loPI   C1A 1319   8.370  14.591   8.768 -0.2582  0.3142  0.1487
   83loPI   C2A 1320   8.482  14.726   8.373  0.0925 -0.2806  0.2758
   83loPI   C3A 1321   8.569  14.884   7.997 -0.0293 -0.2257  0.4116
   83loPI   C4A 1322   8.632  14.962   7.598 -0.2502 -0.4045 -0.0437
   83loPI   C5A 1323   8.666  14.775   7.248 -0.2001 -0.1399 -0.2294
   83loPI   C6A 1324   8.720  14.750   6.875  0.2708 -0.2257 -0.0973
   83loPI   C1B 1325   8.736  14.212   8.477  0.2112 -0.0075  0.1967
   83loPI   C2B 1326   8.565  14.363   8.087 -0.1156  0.1245  0.1580
   83loPI   C3B 1327   8.732  14.515   7.746 -0.4316  0.2720 -0.1314
   83loPI   C4B 1328   8.933  14.309   7.316  0.0741  0.0924 -0.2360
   84loPI    C1 1329   7.695   7.399  10.433 -0.1364 -0.2357 -0.0335
   84loPI    C2 1330   7.473   7.470  10.758 -0.2074  0.0011 -0.1319
   84loPI    C3 1331   7.707   7.147  10.743  0.0337  0.1489  0.2824
   84loPI   PO4 1332   7.551   7.352  10.130 -0.2483  0.0929  0.0142
   84loPI   GL1 1333   7.475   7.153   9.790  0.1557 -0.2226  0.2951
   84loPI   GL2 1334   7.726   7.082   9.647  0.1538 -0.1445  0.0095
   84loPI   C1A 1335   7.168   7.263   9.512 -0.1290  0.2113  0.3148
   84loPI   C2A 1336   7.330   7.268   9.091 -0.0678 -0.1819 -0.0958
   84loPI   C3A 1337   7.513   7.307   8.743 -0.2666 -0.1057  0.0949
   84loPI   C4A 1338   7.632   7.047   8.369  0.1934 -0.0665 -0.3197
   84loPI   C5A 1339   7.826   6.923   8.031  0.1019 -0.0121 -0.1338
   84loPI   C6A 1340   7.697   6.655   7.759 -0.2946  0.1130  0.0917
   84loPI   C1B 1341   7.802   7.135   9.186 -0.1657 -0.1259 -0.0234
   84loPI   C2B 1342   7.962   7.108   8.828 -0.4122 -0.1459 -0.0420
   84loPI   C3B 1343   8.125   7.127   8.427  0.0300  0.3349  0.3288
   84loPI   C4B 1344   8.251   7.378   8.149 -0.2839 -0.0141  0.0168
   85loPI    C1 1345  18.268   7.722  10.056  0.0897 -0.1463  0.1168
   85loPI    C2 1346  17.970   7.962  10.175  0.0243 -0.0877 -0.1587
   85loPI    C3 1347  18.069   7.642  10.394  0.0928  0.1713  0.1969
   85loPI   PO4 1348  18.285   7.773   9.770  0.1152 -0.0733 -0.0769
   85loPI   GL1 1349  18.174   7.748   9.356 -0.0240  0.2400 -0.1303
   85loPI   GL2 1350  17.959   7.501   9.446 -0.1749 -0.0518 -0.1882
   85loPI   C1A 1351  18.125   7.718   8.878 -0.1460  0.0359 -0.2650
   85loPI   C2A 1352  17.838   7.532   8.565  0.1934 -0.2429  0.1732
   85loPI   C3A 1353  17.462   7.678   8.257 -0.2969 -0.2715 -0.2311
   85loPI   C4A 1354  17.244   7.786   7.803 -0.2870  0.0271  0.0756
   85loPI   C5A 1355  16.952   8.041   7.611  0.0984 -0.1958  0.1961
   85loPI   C6A 1356  16.687   8.275   7.760  0.1554  0.2620 -0.2153
   85loPI   C1B 1357  18.118   7.285   9.144  0.0220  0.1708  0.1406
   85loPI   C2B 1358  18.315   7.268   8.684 -0.2642 -0.0810  0.0918
   85loPI   C3B 1359  18.517   7.249   8.309  0.2582  0.1338  0.4295
   85loPI   C4B 1360  18.438   7.355   7.945  0.0949  0.1143 -0.0305
   86loPI    C1 1361  13.632   2.603  10.277 -0.1009 -0.1947 -0.1390
   86loPI    C2 1362  14.011   2.539  10.167  0.1393  0.2185  0.3973
   86loPI    C3 1363  13.926   2.631  10.547 -0.4909  0.2482  0.2608
   86loPI   PO4 1364  13.512   2.725  10.023  0.0638  0.0937  0.1229
   86loPI   GL1 1365  13.447   2.603   9.661  0.0076 -0.0553 -0.0037
   86loPI   GL2 1366  13.773   2.453   9.750 -0.1482  0.1428 -0.0410
   86loPI   C1A 1367  13.360   2.666   9.311  0.1771 -0.3122 -0.2478
   86loPI   C2A 1368  13.298   2.628   8.947  0.0416  0.0942  0.2523
   86loPI   C3A 1369  13.248   2.816   8.574  0.1982 -0.2408  0.0445
   86loPI   C4A 1370  13.234   3.047   8.215  0.0665  0.0376 -0.0790
   86loPI   C5A 1371  13.190   3.357   7.873 -0.2515  0.0141  0.2692
   86loPI   C6A 1372  12.849   3.557   7.686 -0.0205  0.0010  0.0028
   86loPI   C1B 1373  13.627   2.218   9.382 -0.0833  0.0216  0.0657
   86loPI   C2B 1374  13.421   2.167   8.970  0.0095 -0.0519  0.1078
   86loPI   C3B 1375  13.395   2.371   8.519  0.0669  0.2278  0.1170
   86loPI   C4B 1376  13.603   2.677   8.210  0.0998 -0.0764  0.3424
   87loPI    C1 1377  13.516   2.007  10.469  0.0398  0.0186  0.0731
   87loPI    C2 1378  13.600   1.949  10.856 -0.0003 -0.1369  0.0591
   87loPI    C3 1379  13.229   2.048  10.744  0.0251 -0.0333  0.0655
   87loPI   PO4 1380  13.740   2.122  10.401 -0.0506  0.1356 -0.1470
   87loPI   GL1 1381  13.919   2.028  10.055 -0.1645  0.0717  0.0058
   87loPI   GL2 1382  14.141   1.673  10.060 -0.0491  0.0385  0.0593
   87loPI   C1A 1383  13.857   1.816   9.600  0.0085  0.1330  0.2834
   87loPI   C2A 1384  13.928   1.876   9.097 -0.1724 -0.0091 -0.0612
   87loPI   C3A 1385  13.879   2.096   8.767  0.0537  0.2218  0.1836
   87loPI   C4A 1386  14.148   2.047   8.373  0.0243  0.0064  0.0599
   87loPI   C5A 1387  14.422   1.990   8.030  0.1013  0.1136 -0.2004
   87loPI   C6A 1388  14.754   1.827   7.804  0.3082 -0.3047 -0.0058
   87loPI   C1B 1389  14.325   1.642   9.621  0.0307  0.1149  0.2280
   87loPI   C2B 1390  14.425   1.729   9.238  0.2570 -0.0622  0.0851
   87loPI   C3B 1391  14.399   1.735   8.865  0.1575  0.1922 -0.3295
   87loPI   C4B 1392  14.115   1.613   8.524 -0.1662 -0.0390 -0.0885
   88loPI    C1 1393  16.472   7.219  10.284 -0.1149  0.0801  0.1552
   88loPI    C2 1394  16.428   7.615  10.318  0.2412  0.1305  0.0623
   88loPI    C3 1395  16.739   7.433  10.490 -0.1237 -0.1654  0.4267
   88loPI   PO4 1396  16.373   7.137  10.004  0.0625  0.3120 -0.2141
   88loPI   GL1 1397  16.638   6.927   9.779 -0.1009  0.0504  0.2597
   88loPI   GL2 1398  16.960   7.112   9.623 -0.3133 -0.1313 -0.1567
   88loPI   C1A 1399  16.706   6.858   9.265  0.2009 -0.2252 -0.0065
   88loPI   C2A 1400  16.820   6.984   8.921  0.0389  0.0674  0.1476
   88loPI   C3A 1401  17.000   6.995   8.570  0.2287  0.0332  0.2634
   88loPI   C4A 1402  16.988   6.987   8.100  0.1364  0.0075  0.0322
   88loPI   C5A 1403  17.023   6.799   7.812  0.3411 -0.0171  0.0901
   88loPI   C6A 1404  17.189   6.426   7.760 -0.0751 -0.0780 -0.0525
   88loPI   C1B 1405  17.186   7.055   9.236 -0.0778 -0.0532 -0.2816
   88loPI   C2B 1406  17.398   6.931   8.793  0.3098 -0.3120 -0.2853
   88loPI   C3B 1407  17.406   6.688   8.419  0.2146  0.0364  0.0056
   88loPI   C4B 1408  17.518   6.358   8.173  0.2678  0.1321 -0.0041
   89loPI    C1 1409   9.538  10.006  10.416  0.3835  0.0891  0.1729
   89loPI    C2 1410   9.471  10.399  10.393 -0.0315  0.0354  0.3743
   89loPI    C3 1411   9.232  10.168  10.615 -0.0121 -0.3857 -0.0281
   89loPI   PO4 1412   9.570   9.933  10.214  0.0003 -0.2992  0.0060
   89loPI   GL1 1413   9.559   9.983   9.772  0.2721  0.0616  0.0653
   89loPI   GL2 1414   9.702   9.798   9.665 -0.3763  0.0245 -0.0546
   89loPI   C1A 1415   9.281  10.068   9.400 -0.0609  0.1816  0.1814
   89loPI   C2A 1416   9.313  10.252   8.944  0.4146 -0.0557  0.1422
   89loPI   C3A 1417   9.177  10.214   8.624  0.0052  0.0900  0.0209
   89loPI   C4A 1418   8.931  10.101   8.394  0.2366  0.0226  0.4069
   89loPI   C5A 1419   9.042   9.700   8.497  0.0858 -0.0313 -0.2005
   89loPI   C6A 1420   8.953   9.353   8.368 -0.0452  0.0042  0.0592
   89loPI   C1B 1421   9.708   9.829   9.270  0.1198 -0.2448  0.1557
   89loPI   C2B 1422   9.951   9.671   8.908 -0.3059  0.2307  0.0739
   89loPI   C3B 1423  10.121   9.844   8.533  0.1116  0.3297  0.0722
   89loPI   C4B 1424  10.428  10.186   8.401  0.0235  0.2154 -0.1995
   90loPI    C1 1425   2.401   6.602  10.178 -0.2561  0.0722 -0.2510
   90loPI    C2 1426   2.217   6.258  10.263 -0.1758  0.0486 -0.1704
   90loPI    C3 1427   2.531   6.375  10.481 -0.2306  0.1950 -0.1691
   90loPI   PO4 1428   2.418   6.599   9.917  0.0341  0.6551 -0.0865
   90loPI   GL1 1429   2.407   6.563   9.453 -0.0647 -0.1380 -0.0229
   90loPI   GL2 1430   2.455   6.889   9.500  0.2270 -0.0801 -0.2870
   90loPI   C1A 1431   2.295   6.533   9.022 -0.1175  0.2004  0.0617
   90loPI   C2A 1432   2.217   6.610   8.661  0.2596  0.0207  0.2534
   90loPI   C3A 1433   2.141   6.545   8.394 -0.2051  0.2285  0.1493
   90loPI   C4A 1434   1.742   6.481   8.224  0.3791 -0.0750  0.1350
   90loPI   C5A 1435   1.371   6.586   7.876 -0.0144  0.0122  0.2421
   90loPI   C6A 1436   1.179   6.717   7.514 -0.0943 -0.1533  0.0449
   90loPI   C1B 1437   2.740   7.245   9.221 -0.0514  0.4205 -0.0474
   90loPI   C2B 1438   2.871   7.464   8.790 -0.1790  0.1804 -0.3167
   90loPI   C3B 1439   2.872   7.326   8.380  0.0015 -0.0036 -0.1444
   90loPI   C4B 1440   2.922   7.272   7.985 -0.1345 -0.0880  0.2103
   91loPI    C1 1441   8.061   2.829  10.627  0.2224  0.1734 -0.0065
   91loPI    C2 1442   7.776   3.054  10.795  0.0033 -0.2288  0.1742
   91loPI    C3 1443   8.161   3.144  10.853 -0.0794  0.0779  0.2692
   91loPI   PO4 1444   7.995   2.824  10.332 -0.2524 -0.0382 -0.0400
   91loPI   GL1 1445   8.072   2.966   9.920 -0.3867  0.3489  0.0355
   91loPI   GL2 1446   8.387   3.021   9.751 -0.3560  0.0407  0.0266
   91loPI   C1A 1447   7.922   3.018   9.473  0.0552 -0.1631  0.1537
   91loPI   C2A 1448   7.960   3.058   8.984  0.1046  0.0216  0.0969
   91loPI   C3A 1449   7.847   3.107   8.592 -0.1047 -0.0409  0.2970
   91loPI   C4A 1450   7.787   3.242   8.142 -0.0936  0.3567  0.0338
   91loPI   C5A 1451   7.613   3.585   7.923  0.1423 -0.1364  0.2281
   91loPI   C6A 1452   7.293   3.988   7.926  0.0470 -0.1967  0.1151
   91loPI   C1B 1453   8.385   2.976   9.340 -0.1250 -0.0375 -0.0915
   91loPI   C2B 1454   8.441   2.856   8.887 -0.0380  0.0145  0.1977
   91loPI   C3B 1455   8.234   2.798   8.499  0.0353 -0.0002  0.1839
   91loPI   C4B 1456   8.393   2.707   8.140 -0.2250 -0.0167 -0.2146
   92loPI    C1 1457   2.406   4.841  10.317 -0.1657  0.0232  0.0653
   92loPI    C2 1458   2.107   5.008  10.525 -0.2070  0.1311 -0.0785
   92loPI    C3 1459   2.351   5.237  10.307 -0.0174  0.0434  0.0386
   92loPI   PO4 1460   2.343   4.665  10.199 -0.0500 -0.1334  0.4295
   92loPI   GL1 1461   2.343   4.414   9.799  0.2405  0.0356 -0.3132
   92loPI   GL2 1462   2.422   4.699   9.681  0.0438 -0.0965 -0.1597
   92loPI   C1A 1463   2.399   4.217   9.504  0.1558  0.0207  0.2727
   92loPI   C2A 1464   2.389   4.112   8.996  0.3716  0.1259 -0.2646
   92loPI   C3A 1465   2.264   4.108   8.588 -0.3136 -0.0306  0.0213
   92loPI   C4A 1466   2.360   3.969   8.240 -0.1087  0.0300 -0.0869
   92loPI   C5A 1467   2.514   3.501   8.169  0.0652  0.3229  0.0706
   92loPI   C6A 1468   2.747   3.340   8.519  0.0815 -0.3298 -0.1104
   92loPI   C1B 1469   2.372   4.739   9.228 -0.2856  0.0295 -0.1246
   92loPI   C2B 1470   2.356   4.626   8.737  0.3524 -0.1323  0.0207
   92loPI   C3B 1471   2.230   4.498   8.266  0.1542  0.0231  0.0564
   92loPI   C4B 1472   2.294   4.326   7.948 -0.0661  0.0385  0.3576
   93loPI    C1 1473   1.724  11.128  10.145  0.1667  0.3170 -0.0462
   93loPI    C2 1474   1.586  10.917  10.455  0.1637  0.1633 -0.1513
   93loPI    C3 1475   1.870  11.193  10.512  0.1852  0.1143 -0.0168
   93loPI   PO4 1476   1.589  11.297  10.016  0.2815  0.1997  0.1025
   93loPI   GL1 1477   1.356  11.464   9.636 -0.0380 -0.1760 -0.0834
   93loPI   GL2 1478   1.709  11.480   9.592 -0.1344  0.3126  0.1912
   93loPI   C1A 1479   1.312  11.416   9.183  0.3641 -0.0559  0.0296
   93loPI   C2A 1480   1.232  11.278   8.712 -0.2700  0.1349 -0.0364
   93loPI   C3A 1481   1.166  11.291   8.266 -0.1491  0.0229 -0.2218
   93loPI   C4A 1482   1.120  11.021   7.994  0.3152  0.0464 -0.0291
   93loPI   C5A 1483   0.919  10.881   7.531  0.0673 -0.2833 -0.0027
   93loPI   C6A 1484   0.577  10.593   7.312 -0.3624 -0.0087 -0.0186
   93loPI   C1B 1485   1.845  11.450   9.199  0.0718 -0.0213 -0.1986
   93loPI   C2B 1486   1.751  11.493   8.787  0.3168  0.1260 -0.1564
   93loPI   C3B 1487   1.877  11.448   8.292  0.2423  0.0927  0.0877
   93loPI   C4B 1488   1.966  11.549   7.920  0.1597  0.1534 -0.0911
   94loPI    C1 1489   4.697  12.544  10.449 -0.0585 -0.1155 -0.0193
   94loPI    C2 1490   4.971  12.342  10.658  0.0571  0.0447 -0.0137
   94loPI    C3 1491   4.683  12.145  10.463  0.0268 -0.1128  0.1858
   94loPI   PO4 1492   4.898  12.808  10.318 -0.0357  0.1047  0.1871
   94loPI   GL1 1493   5.058  12.841   9.946 -0.0726 -0.1709 -0.0967
   94loPI   GL2 1494   4.949  12.789   9.642 -0.1409 -0.0476  0.0392
   94loPI   C1A 1495   5.354  13.082   9.637 -0.0143  0.0391 -0.1198
   94loPI   C2A 1496   5.300  13.231   9.290  0.0867 -0.0619 -0.0542
   94loPI   C3A 1497   5.219  13.304   8.961  0.1535  0.1218 -0.1469
   94loPI   C4A 1498   5.081  13.353   8.574 -0.4196  0.0404  0.2955
   94loPI   C5A 1499   4.892  13.345   8.131  0.0322 -0.0079  0.1675
   94loPI   C6A 1500   4.520  13.112   7.901 -0.1455  0.1856  0.0282
   94loPI   C1B 1501   4.926  12.886   9.212  0.2954  0.5368 -0.1142
   94loPI   C2B 1502   4.956  12.846   8.696  0.0017 -0.1955 -0.0245
   94loPI   C3B 1503   5.054  12.890   8.232 -0.0712 -0.0955  0.0800
   94loPI   C4B 1504   4.873  12.762   7.864 -0.0127  0.0384 -0.0933
   95loPI    C1 1505   3.542   0.924  10.894  0.0017  0.1824  0.2386
   95loPI    C2 1506   3.174   1.075  10.851 -0.0758 -0.0672 -0.0104
   95loPI    C3 1507   3.491   1.319  10.859 -0.2505  0.1580  0.3099
   95loPI   PO4 1508   3.507   0.630  10.704 -0.1081 -0.1459 -0.2394
   95loPI   GL1 1509   3.617   0.348  10.376  0.2594 -0.3919  0.1943
   95loPI   GL2 1510   3.940   0.275  10.118  0.2460  0.1343  0.1147
   95loPI   C1A 1511   3.436   0.689  10.039  0.2379 -0.1816  0.0985
   95loPI   C2A 1512   3.378   0.804   9.555 -0.1723 -0.0679 -0.1998
   95loPI   C3A 1513   3.196   1.069   9.238  0.2599  0.1218  0.2750
   95loPI   C4A 1514   3.194   1.090   8.840  0.3409 -0.1364 -0.1506
   95loPI   C5A 1515   3.298   1.191   8.339 -0.0966  0.5615  0.2422
   95loPI   C6A 1516   3.389   1.540   8.120  0.2842  0.1035 -0.0297
   95loPI   C1B 1517   3.878   0.504   9.808  0.3745 -0.0072  0.1274
   95loPI   C2B 1518   3.831   0.598   9.467  0.0681  0.3746 -0.0329
   95loPI   C3B 1519   3.741   0.892   9.033 -0.0112 -0.0111  0.1134
   95loPI   C4B 1520   3.715   1.065   8.635 -0.1749  0.4410  0.1274
   96loPI    C1 1521   1.536  12.305  10.260  0.1457  0.1040 -0.1431
   96loPI    C2 1522   1.708  12.665  10.290 -0.1001  0.2160 -0.0525
   96loPI    C3 1523   1.830  12.365  10.525  0.1410  0.2243 -0.1645
   96loPI   PO4 1524   1.499  12.237   9.962 -0.1476  0.2091 -0.1308
   96loPI   GL1 1525   1.555  12.091   9.586 -0.1251  0.0401 -0.2593
   96loPI   GL2 1526   1.252  11.997   9.578 -0.4068  0.0325  0.0991
   96loPI   C1A 1527   1.726  12.307   9.204  0.3952  0.1675  0.0246
   96loPI   C2A 1528   1.514  12.334   8.799  0.0119  0.2413 -0.0420
   96loPI   C3A 1529   1.431  12.186   8.365 -0.2346 -0.0094  0.2131
   96loPI   C4A 1530   1.301  12.418   8.008 -0.1181 -0.3163 -0.2640
   96loPI   C5A 1531   1.074  12.549   7.609 -0.1464 -0.0381 -0.3043
   96loPI   C6A 1532   0.771  12.524   7.441 -0.0133 -0.1269 -0.0767
   96loPI   C1B 1533   1.510  11.855   9.186 -0.2755 -0.2910 -0.1812
   96loPI   C2B 1534   1.395  11.804   8.765 -0.0646  0.0423  0.2188
   96loPI   C3B 1535   1.436  11.740   8.313 -0.1201 -0.2353  0.0791
   96loPI   C4B 1536   1.352  11.710   7.907 -0.1217 -0.0822  0.0302
   97loPI    C1 1537   4.123  13.610  10.421  0.0510 -0.3094  0.0566
   97loPI    C2 1538   3.772  13.419  10.421 -0.2219  0.1751  0.0265
   97loPI    C3 1539   3.873  13.652  10.730 -0.0330  0.2276 -0.0733
   97loPI   PO4 1540   4.185  13.509  10.204 -0.0520 -0.0975  0.2636
   97loPI   GL1 1541   4.029  13.713   9.911  0.0689  0.0052 -0.1237
   97loPI   GL2 1542   3.663  13.626  10.030 -0.0468 -0.1597  0.1322
   97loPI   C1A 1543   4.082  13.977   9.531  0.0775  0.2162  0.0535
   97loPI   C2A 1544   4.250  14.183   9.041  0.4428  0.1432 -0.4184
   97loPI   C3A 1545   4.091  14.254   8.575  0.4867 -0.3856  0.1037
   97loPI   C4A 1546   4.051  14.471   8.134  0.0437 -0.0368 -0.2310
   97loPI   C5A 1547   4.274  14.254   7.839 -0.1766 -0.1064 -0.0643
   97loPI   C6A 1548   4.570  14.341   7.643 -0.0542 -0.3585  0.2227
   97loPI   C1B 1549   3.643  13.655   9.565 -0.0601  0.0322  0.3015
   97loPI   C2B 1550   3.645  13.848   9.049  0.2777 -0.1080 -0.1066
   97loPI   C3B 1551   3.576  14.118   8.677  0.0041 -0.0767 -0.1661
   97loPI   C4B 1552   3.464  14.202   8.345  0.0441 -0.0044  0.3885
   98loPI    C1 1553   6.591   9.502  10.056 -0.1246 -0.1813  0.0127
   98loPI    C2 1554   6.629   9.592  10.444  0.1196  0.1091 -0.0745
   98loPI    C3 1555   6.266   9.578  10.277  0.0194  0.0700  0.1425
   98loPI   PO4 1556   6.922   9.597  10.020 -0.3940 -0.0863  0.0824
   98loPI   GL1 1557   7.107   9.827   9.661 -0.2528 -0.1100 -0.1138
   98loPI   GL2 1558   7.034  10.198   9.742  0.1669 -0.0232 -0.4692
   98loPI   C1A 1559   7.076   9.888   9.157  0.0661 -0.0486  0.2786
   98loPI   C2A 1560   7.014  10.111   8.761  0.1145 -0.2029  0.2326
   98loPI   C3A 1561   6.825  10.319   8.456  0.1035  0.2179  0.1150
   98loPI   C4A 1562   6.534  10.699   8.645 -0.3619  0.1355  0.0891
   98loPI   C5A 1563   6.427  10.682   9.034 -0.3083  0.0160  0.0778
   98loPI   C6A 1564   6.539  10.741   9.418 -0.0638  0.1570  0.2610
   98loPI   C1B 1565   6.934  10.309   9.378  0.0131  0.0564  0.1685
   98loPI   C2B 1566   6.941  10.539   8.962  0.1781 -0.0557  0.1957
   98loPI   C3B 1567   7.110  10.756   8.568  0.1339  0.0416 -0.0438
   98loPI   C4B 1568   6.910  10.899   8.182 -0.0915 -0.2356  0.0522
   99loPI    C1 1569  12.126  12.609  10.153  0.1141  0.0240  0.2675
   99loPI    C2 1570  11.984  12.941  10.325 -0.0127  0.0565  0.1028
   99loPI    C3 1571  12.248  12.712  10.520 -0.0720  0.1498  0.2953
   99loPI   PO4 1572  11.914  12.605   9.825 -0.2962 -0.2237 -0.0857
   99loPI   GL1 1573  11.984  12.932   9.593 -0.0436 -0.1946  0.0629
   99loPI   GL2 1574  12.220  13.075   9.767 -0.2566 -0.0259  0.0945
   99loPI   C1A 1575  11.914  12.737   9.218 -0.1098  0.0311  0.1776
   99loPI   C2A 1576  12.029  12.923   8.967  0.1230  0.0284  0.1388
   99loPI   C3A 1577  12.112  13.066   8.492  0.1588  0.1200 -0.1661
   99loPI   C4A 1578  12.133  13.199   8.036  0.0463 -0.1073  0.4071
   99loPI   C5A 1579  12.504  13.319   7.830  0.2923 -0.3244  0.1723
   99loPI   C6A 1580  12.921  13.477   7.863 -0.3347  0.2635  0.1371
   99loPI   C1B 1581  12.360  13.040   9.317  0.0158  0.2537 -0.2227
   99loPI   C2B 1582  12.642  12.926   9.039 -0.1458 -0.0420  0.0756
   99loPI   C3B 1583  12.679  12.991   8.679 -0.1997  0.3215  0.1157
   99loPI   C4B 1584  12.517  12.961   8.268  0.0175 -0.1271 -0.1968
  100loPI    C1 1585   0.708  11.714  10.328 -0.2099 -0.0250 -0.0208
  100loPI    C2 1586   1.078  11.828  10.428 -0.2213 -0.0312  0.0288
  100loPI    C3 1587   0.915  11.505  10.600 -0.2441 -0.0372 -0.0040
  100loPI   PO4 1588   0.771  11.631  10.033  0.0172  0.2418  0.1502
  100loPI   GL1 1589   0.791  11.691   9.713  0.1397 -0.2315 -0.0772
  100loPI   GL2 1590   0.502  11.538   9.578  0.1895 -0.1240  0.0224
  100loPI   C1A 1591   1.002  11.698   9.333  0.2074 -0.1581 -0.3291
  100loPI   C2A 1592   0.867  11.692   8.920  0.2664  0.0316 -0.0835
  100loPI   C3A 1593   0.870  11.770   8.406 -0.0112 -0.0957 -0.0904
  100loPI   C4A 1594   0.835  11.687   7.971  0.0425  0.1593 -0.0425
  100loPI   C5A 1595   0.936  11.347   7.688 -0.1341  0.1032  0.2536
  100loPI   C6A 1596   0.562  11.153   7.803 -0.1716 -0.2314  0.1377
  100loPI   C1B 1597   0.584  11.376   9.215  0.0695  0.0144  0.1564
  100loPI   C2B 1598   0.736  11.242   8.801 -0.0594  0.0775 -0.0198
  100loPI   C3B 1599   0.800  10.970   8.412  0.0550 -0.0998  0.1952
  100loPI   C4B 1600   0.664  10.711   8.039 -0.0126  0.0375 -0.2305
  101loPI    C1 1601   2.455   5.856  10.443 -0.0160  0.3105 -0.2502
  101loPI    C2 1602   2.198   5.995  10.717  0.1003 -0.0604  0.0555
  101loPI    C3 1603   2.488   5.742  10.825  0.3509  0.0407 -0.3576
  101loPI   PO4 1604   2.303   5.769  10.232 -0.0110 -0.2408  0.0768
  101loPI   GL1 1605   2.371   5.530   9.933  0.2204 -0.2167 -0.1207
  101loPI   GL2 1606   2.191   5.097   9.851  0.0851  0.1329  0.0941
  101loPI   C1A 1607   2.089   5.523   9.579  0.1717  0.1764 -0.2735
  101loPI   C2A 1608   2.025   5.427   9.117 -0.2120 -0.2366 -0.2109
  101loPI   C3A 1609   1.915   5.355   8.845  0.1042 -0.0357 -0.2899
  101loPI   C4A 1610   1.731   5.569   8.468  0.1120 -0.2384 -0.1162
  101loPI   C5A 1611   1.725   5.745   8.183  0.1348 -0.1809  0.0328
  101loPI   C6A 1612   1.600   6.077   7.959 -0.5231  0.3071 -0.2464
  101loPI   C1B 1613   1.996   4.845   9.509  0.3654 -0.1423 -0.0040
  101loPI   C2B 1614   1.865   4.839   9.064  0.0277 -0.1694 -0.1743
  101loPI   C3B 1615   1.962   4.902   8.629 -0.0501 -0.0745  0.0592
  101loPI   C4B 1616   1.897   5.102   8.219  0.2038 -0.0342  0.5089
  102loPI    C1 1617  17.852  16.657  10.699  0.1882  0.1097  0.1278
  102loPI    C2 1618  17.455  16.663  10.748  0.1350 -0.1160 -0.2366
  102loPI    C3 1619  17.695  16.627  11.066 -0.1366 -0.0547 -0.0202
  102loPI   PO4 1620  17.848  16.647  10.416  0.1912  0.0337 -0.3263
  102loPI   GL1 1621  18.106  16.639   9.970  0.1079 -0.0608 -0.1221
  102loPI   GL2 1622  17.909  16.811   9.872  0.0213  0.0727  0.1336
  102loPI   C1A 1623  18.165  16.426   9.619 -0.0330  0.2231 -0.0317
  102loPI   C2A 1624  18.324  16.303   9.293  0.1367 -0.0804  0.0366
  102loPI   C3A 1625  18.415  16.320   8.875 -0.1348 -0.2006  0.2494
  102loPI   C4A 1626  18.573  16.365   8.536 -0.0791 -0.1445 -0.1534
  102loPI   C5A 1627  18.632  16.348   8.199 -0.1517  0.0864  0.1218
  102loPI   C6A 1628  18.952  16.528   7.960 -0.4423 -0.1808 -0.1149
  102loPI   C1B 1629  17.623  16.816   9.430 -0.0263  0.1222 -0.1586
  102loPI   C2B 1630  17.790  16.783   9.136 -0.0976 -0.0288 -0.1845
  102loPI   C3B 1631  17.653  16.757   8.742 -0.0402  0.1936  0.0252
  102loPI   C4B 1632  17.362  16.834   8.481  0.2340 -0.0932 -0.3090
  103loPI    C1 1633   5.774  15.338  10.297  0.0557  0.0660  0.1459
  103loPI    C2 1634   5.563  15.638  10.458  0.0540  0.0225  0.2251
  103loPI    C3 1635   5.718  15.354  10.693  0.3114  0.1243  0.1811
  103loPI   PO4 1636   5.792  15.402  10.058 -0.0032  0.4168  0.1422
  103loPI   GL1 1637   5.916  15.250   9.700  0.0176  0.3690  0.0300
  103loPI   GL2 1638   6.248  15.287   9.644  0.1227 -0.3180  0.3027
  103loPI   C1A 1639   5.839  15.220   9.309  0.3230  0.2884 -0.1924
  103loPI   C2A 1640   5.870  15.148   8.858  0.1112 -0.0841  0.0198
  103loPI   C3A 1641   5.687  15.165   8.553  0.1259 -0.1220  0.3501
  103loPI   C4A 1642   5.548  14.975   8.096  0.1638  0.0096  0.0161
  103loPI   C5A 1643   5.344  14.625   7.904  0.0892 -0.0856 -0.0293
  103loPI   C6A 1644   5.012  14.270   7.849 -0.0990  0.1295 -0.0126
  103loPI   C1B 1645   6.615  15.433   9.379  0.4599 -0.0124  0.4093
  103loPI   C2B 1646   6.585  15.476   8.913  0.1293  0.2132  0.1068
  103loPI   C3B 1647   6.584  15.529   8.473  0.1187 -0.2228 -0.4499
  103loPI   C4B 1648   6.488  15.569   8.128  0.1967 -0.1683  0.3291
  104loPI    C1 1649   1.882   5.449  10.269  0.1128  0.2473  0.1895
  104loPI    C2 1650   1.690   5.451  10.620  0.1402 -0.1531  0.2111
  104loPI    C3 1651   2.085   5.511  10.608  0.0999  0.1258  0.2201
  104loPI   PO4 1652   1.703   5.280  10.133  0.1469  0.0963 -0.0676
  104loPI   GL1 1653   1.557   5.215   9.784  0.1646  0.1127 -0.0370
  104loPI   GL2 1654   1.553   5.626   9.772 -0.0185  0.0015 -0.1757
  104loPI   C1A 1655   1.564   5.163   9.417  0.0405 -0.0949 -0.0022
  104loPI   C2A 1656   1.503   5.218   9.038 -0.1800 -0.1977  0.1001
  104loPI   C3A 1657   1.495   5.130   8.609  0.1773 -0.1224  0.0475
  104loPI   C4A 1658   1.362   5.164   8.212  0.0368 -0.0510  0.1313
  104loPI   C5A 1659   1.336   5.340   7.802 -0.1348 -0.1055  0.4236
  104loPI   C6A 1660   1.146   5.277   7.442  0.0113  0.0453 -0.2714
  104loPI   C1B 1661   1.659   5.830   9.321 -0.0383 -0.1462  0.0986
  104loPI   C2B 1662   1.589   5.901   8.905 -0.0594 -0.4002 -0.1772
  104loPI   C3B 1663   1.510   6.050   8.537 -0.0053 -0.1745 -0.3802
  104loPI   C4B 1664   1.246   6.222   8.248  0.0266  0.4474 -0.2140
  105loPI    C1 1665   8.642  16.586  10.399 -0.0286 -0.1804  0.0092
  105loPI    C2 1666   8.428  16.715  10.711 -0.0385 -0.1238 -0.0208
  105loPI    C3 1667   8.556  16.336  10.699  0.1171 -0.0777  0.1380
  105loPI   PO4 1668   8.515  16.626  10.176 -0.0806  0.1996 -0.1073
  105loPI   GL1 1669   8.422  16.954   9.908  0.1248 -0.0269  0.1771
  105loPI   GL2 1670   8.379  16.800   9.613 -0.0991 -0.0882 -0.1475
  105loPI   C1A 1671   8.241  17.255   9.575  0.0146 -0.0835 -0.0928
  105loPI   C2A 1672   8.132  17.384   9.189 -0.1756  0.2360  0.0537
  105loPI   C3A 1673   8.087  17.452   8.874  0.2713 -0.0925  0.0105
  105loPI   C4A 1674   7.841  17.572   8.508 -0.2039  0.1458  0.1715
  105loPI   C5A 1675   7.961  17.558   8.153  0.1594  0.1477  0.0932
  105loPI   C6A 1676   8.239  17.733   7.814  0.1442 -0.1404  0.3316
  105loPI   C1B 1677   8.318  16.930   9.158 -0.1382  0.4702 -0.0759
  105loPI   C2B 1678   8.467  17.061   8.697 -0.2251 -0.2021 -0.2925
  105loPI   C3B 1679   8.357  17.384   8.414 -0.1508  0.1339  0.1952
  105loPI   C4B 1680   8.470  17.320   7.936 -0.0788 -0.0798  0.1115
  106loPI    C1 1681   1.685  14.421   9.928 -0.0247 -0.0977  0.0132
  106loPI    C2 1682   1.797  14.040   9.977  0.1457 -0.0585 -0.0637
  106loPI    C3 1683   2.016  14.335  10.135  0.0894  0.0140 -0.1205
  106loPI   PO4 1684   1.456  14.469  10.025 -0.3981 -0.1731  0.0317
  106loPI   GL1 1685   1.176  14.545   9.745 -0.2038 -0.1666 -0.0506
  106loPI   GL2 1686   1.205  14.119   9.689  0.1792  0.0310  0.0606
  106loPI   C1A 1687   1.112  14.684   9.417  0.1508 -0.1282  0.2095
  106loPI   C2A 1688   1.085  14.824   9.048  0.2181  0.1324 -0.1042
  106loPI   C3A 1689   1.031  15.264   8.936 -0.1904 -0.0648  0.2122
  106loPI   C4A 1690   1.327  15.514   8.967  0.2209 -0.0205 -0.0272
  106loPI   C5A 1691   1.342  15.893   9.018 -0.3564 -0.2347  0.4727
  106loPI   C6A 1692   1.639  16.202   8.800  0.0050 -0.1515  0.2917
  106loPI   C1B 1693   1.173  13.914   9.228 -0.1384  0.0915 -0.0857
  106loPI   C2B 1694   1.309  13.853   8.752  0.1390 -0.0879  0.0754
  106loPI   C3B 1695   1.424  14.051   8.423 -0.1038  0.1619  0.0614
  106loPI   C4B 1696   1.622  14.427   8.250  0.2359  0.0673 -0.0041
  107loPI    C1 1697   4.263  12.731  10.512  0.2631 -0.1166  0.1325
  107loPI    C2 1698   4.256  12.369  10.683  0.3124 -0.0679  0.2389
  107loPI    C3 1699   4.105  12.684  10.877  0.1359 -0.0564  0.0859
  107loPI   PO4 1700   4.136  12.675  10.254  0.0001 -0.2706 -0.1930
  107loPI   GL1 1701   4.133  12.773   9.944 -0.2508 -0.1325 -0.0512
  107loPI   GL2 1702   4.521  12.618   9.931 -0.1736 -0.2223  0.1397
  107loPI   C1A 1703   3.932  12.856   9.469  0.1502  0.0326 -0.3473
  107loPI   C2A 1704   4.004  12.980   9.032  0.1380 -0.4302  0.0258
  107loPI   C3A 1705   4.052  12.984   8.617  0.0226  0.0209  0.2529
  107loPI   C4A 1706   4.152  13.026   8.198  0.1840 -0.0683 -0.0653
  107loPI   C5A 1707   3.975  13.276   7.933 -0.1267  0.2721 -0.2777
  107loPI   C6A 1708   3.688  13.546   7.927  0.0982  0.3137 -0.1089
  107loPI   C1B 1709   4.360  12.555   9.570 -0.0632  0.2017 -0.2666
  107loPI   C2B 1710   4.431  12.883   9.249 -0.1092 -0.1405 -0.1903
  107loPI   C3B 1711   4.469  12.742   8.782 -0.2213  0.1880 -0.2680
  107loPI   C4B 1712   4.590  12.973   8.430  0.0503  0.3250 -0.0172
  108loPI    C1 1713  10.523  13.530  10.116  0.1260 -0.2762 -0.0187
  108loPI    C2 1714  10.382  13.162  10.182  0.1288 -0.2330  0.2382
  108loPI    C3 1715  10.450  13.408  10.490  0.0778  0.0013  0.0648
  108loPI   PO4 1716  10.723  13.575   9.998  0.0421  0.0753 -0.2141
  108loPI   GL1 1717  10.830  13.274   9.749 -0.1230  0.1441 -0.0504
  108loPI   GL2 1718  10.664  13.454   9.392  0.0911 -0.1288 -0.0002
  108loPI   C1A 1719  10.952  13.089   9.376  0.1591 -0.0780 -0.2893
  108loPI   C2A 1720  10.995  12.959   8.973 -0.3610  0.2546 -0.1369
  108loPI   C3A 1721  11.153  12.971   8.546 -0.1778  0.0081  0.1407
  108loPI   C4A 1722  11.144  12.963   8.107 -0.0526  0.2590  0.1821
  108loPI   C5A 1723  11.251  13.258   7.744  0.0200 -0.2074 -0.0039
  108loPI   C6A 1724  11.509  13.526   7.569  0.0020  0.0407  0.1367
  108loPI   C1B 1725  10.619  13.545   8.953  0.0038 -0.1095  0.0145
  108loPI   C2B 1726  10.645  13.715   8.601  0.2037 -0.0767 -0.0834
  108loPI   C3B 1727  10.630  13.744   8.227 -0.0302  0.2614 -0.2975
  108loPI   C4B 1728  10.682  13.929   7.762  0.3719  0.1177  0.0138
  109loPI    C1 1729  16.694   1.148  10.697  0.0219 -0.0396 -0.0641
  109loPI    C2 1730  16.596   1.424  10.969 -0.0510 -0.1226 -0.0054
  109loPI    C3 1731  16.901   1.176  11.038  0.1330  0.0628 -0.1393
  109loPI   PO4 1732  16.705   1.262  10.493 -0.0906  0.1226 -0.3631
  109loPI   GL1 1733  16.623   1.418  10.038 -0.0555  0.0976  0.1679
  109loPI   GL2 1734  16.409   1.159  10.073 -0.0571 -0.1117  0.2906
  109loPI   C1A 1735  16.657   1.511   9.624 -0.1341  0.0391 -0.3093
  109loPI   C2A 1736  16.702   1.531   9.175  0.4214 -0.0611 -0.2114
  109loPI   C3A 1737  16.710   1.405   8.718  0.0178  0.3982  0.1351
  109loPI   C4A 1738  16.764   1.031   8.432 -0.0801  0.0607 -0.1264
  109loPI   C5A 1739  16.924   0.617   8.340 -0.1322 -0.0374 -0.3311
  109loPI   C6A 1740  17.279   0.516   8.196 -0.0285 -0.0002 -0.1025
  109loPI   C1B 1741  16.371   1.104   9.701  0.0863 -0.0060  0.1114
  109loPI   C2B 1742  16.448   1.090   9.212 -0.0206 -0.0134  0.0432
  109loPI   C3B 1743  16.404   1.022   8.875 -0.2550 -0.3105  0.0787
  109loPI   C4B 1744  16.334   0.892   8.538  0.0618 -0.0841 -0.1357
  110loPI    C1 1745  14.880  14.282  10.654 -0.0716 -0.0099 -0.1749
  110loPI    C2 1746  15.127  13.968  10.666  0.0669  0.0977 -0.1720
  110loPI    C3 1747  15.274  14.338  10.695 -0.1053  0.1596 -0.0739
  110loPI   PO4 1748  14.671  14.207  10.497 -0.2520  0.3059 -0.2114
  110loPI   GL1 1749  14.694  14.041  10.060  0.0757  0.1842 -0.0302
  110loPI   GL2 1750  14.685  14.275   9.812 -0.0468 -0.1491 -0.0217
  110loPI   C1A 1751  14.605  13.628  10.012  0.1191  0.1020  0.0487
  110loPI   C2A 1752  14.640  13.317   9.737  0.1531 -0.0116  0.0096
  110loPI   C3A 1753  14.759  13.039   9.472  0.2363 -0.0006  0.0087
  110loPI   C4A 1754  14.820  13.238   9.024  0.1769 -0.0172  0.1043
  110loPI   C5A 1755  14.785  13.291   8.604  0.0129  0.1082 -0.0097
  110loPI   C6A 1756  14.811  13.272   8.163  0.2415 -0.3652 -0.1973
  110loPI   C1B 1757  14.717  14.217   9.327 -0.0633 -0.2331 -0.3851
  110loPI   C2B 1758  14.851  14.218   9.010  0.0790  0.0007 -0.1448
  110loPI   C3B 1759  14.867  14.242   8.578 -0.1624 -0.1976  0.0381
  110loPI   C4B 1760  14.552  14.162   8.318 -0.3714 -0.0806 -0.0831
  111loPI    C1 1761  16.407  14.143  10.246 -0.0764 -0.1700  0.2346
  111loPI    C2 1762  16.298  14.435  10.496 -0.1132 -0.1961  0.2491
  111loPI    C3 1763  16.243  14.053  10.599 -0.2691 -0.2047  0.1375
  111loPI   PO4 1764  16.374  14.246   9.899 -0.3558  0.1540  0.0626
  111loPI   GL1 1765  16.456  14.525   9.596  0.1222  0.2478  0.0411
  111loPI   GL2 1766  16.130  14.576   9.575 -0.0530 -0.2095 -0.0245
  111loPI   C1A 1767  16.605  14.644   9.171  0.1362 -0.1232 -0.1214
  111loPI   C2A 1768  16.598  14.613   8.806  0.2949  0.3187  0.0294
  111loPI   C3A 1769  16.767  14.778   8.555  0.1136  0.0742 -0.2455
  111loPI   C4A 1770  16.663  14.752   8.165 -0.0140 -0.2170 -0.0156
  111loPI   C5A 1771  16.746  14.885   7.793  0.1213  0.1356  0.2665
  111loPI   C6A 1772  17.067  15.100   7.759 -0.2236 -0.0052 -0.0315
  111loPI   C1B 1773  16.165  14.500   9.094 -0.1332  0.3757  0.3651
  111loPI   C2B 1774  16.155  14.490   8.640  0.3871  0.0422  0.0445
  111loPI   C3B 1775  16.207  14.502   8.163 -0.1313  0.0785 -0.1798
  111loPI   C4B 1776  16.545  14.367   7.962  0.2183  0.1446  0.1988
  112loPI    C1 1777  17.767  14.045  10.431 -0.1065  0.0381  0.0027
  112loPI    C2 1778  17.428  13.874  10.306 -0.0723 -0.1806  0.2015
  112loPI    C3 1779  17.684  13.668  10.533  0.2126 -0.0291  0.0242
  112loPI   PO4 1780  17.935  14.061  10.234 -0.4065  0.2162 -0.0233
  112loPI   GL1 1781  17.874  14.281   9.864 -0.1866 -0.2875 -0.4583
  112loPI   GL2 1782  18.109  14.530   9.865  0.0759  0.0253  0.0255
  112loPI   C1A 1783  17.825  14.022   9.495 -0.1673 -0.1284  0.2356
  112loPI   C2A 1784  17.874  14.064   9.046 -0.2065 -0.1661 -0.0413
  112loPI   C3A 1785  17.950  14.021   8.667 -0.1694 -0.1604 -0.0380
  112loPI   C4A 1786  18.064  13.809   8.318 -0.0456 -0.0626  0.5264
  112loPI   C5A 1787  18.316  13.420   8.154 -0.0051 -0.1032 -0.2206
  112loPI   C6A 1788  18.458  13.185   7.897  0.4048 -0.3990 -0.1411
  112loPI   C1B 1789  18.164  14.444   9.386  0.0771  0.3398 -0.2795
  112loPI   C2B 1790  18.296  14.390   8.842  0.0258  0.0313 -0.3891
  112loPI   C3B 1791  18.171  14.390   8.419 -0.0424  0.0617  0.1254
  112loPI   C4B 1792  18.155  14.347   7.987 -0.1313  0.2154  0.0060
  113loPI    C1 1793   6.445   2.833  10.367 -0.1570  0.0004 -0.1003
  113loPI    C2 1794   6.271   3.038  10.664 -0.0292 -0.1190  0.0595
  113loPI    C3 1795   6.313   2.641  10.693 -0.0846 -0.1419 -0.1538
  113loPI   PO4 1796   6.526   2.927  10.129 -0.0015 -0.1330 -0.4234
  113loPI   GL1 1797   6.630   3.231   9.878 -0.0396  0.1403 -0.1411
  113loPI   GL2 1798   6.562   3.473   9.957 -0.0119 -0.3789  0.0194
  113loPI   C1A 1799   6.508   3.295   9.456 -0.3074  0.1623 -0.0283
  113loPI   C2A 1800   6.478   3.362   9.137 -0.0621 -0.0885 -0.1134
  113loPI   C3A 1801   6.533   3.393   8.680 -0.1377 -0.0357  0.1914
  113loPI   C4A 1802   6.397   3.301   8.286 -0.5004 -0.1847 -0.2968
  113loPI   C5A 1803   6.120   3.399   7.933  0.0615 -0.3157 -0.0720
  113loPI   C6A 1804   5.840   3.402   7.487  0.0116 -0.3662 -0.1584
  113loPI   C1B 1805   6.259   3.656   9.547 -0.1627 -0.0435  0.3886
  113loPI   C2B 1806   6.077   3.709   9.158  0.3424  0.1694 -0.0529
  113loPI   C3B 1807   6.129   3.713   8.738 -0.0826  0.0346  0.1547
  113loPI   C4B 1808   6.225   3.758   8.309  0.1971  0.0157  0.2678
  114loPI    C1 1809   3.937   4.579  10.463  0.0785  0.0621 -0.2088
  114loPI    C2 1810   3.913   4.850  10.756 -0.0878 -0.0248 -0.1403
  114loPI    C3 1811   3.605   4.605  10.685 -0.1252  0.1251 -0.5149
  114loPI   PO4 1812   3.937   4.699  10.218 -0.1969 -0.0325 -0.2361
  114loPI   GL1 1813   4.276   4.798   9.963 -0.3575 -0.0123  0.0964
  114loPI   GL2 1814   4.377   5.105  10.104 -0.3341  0.0379 -0.1380
  114loPI   C1A 1815   4.035   4.864   9.564  0.0160 -0.0923 -0.0889
  114loPI   C2A 1816   4.113   5.019   9.194  0.3334 -0.0972  0.0003
  114loPI   C3A 1817   4.122   5.038   8.737 -0.1234 -0.0681 -0.0481
  114loPI   C4A 1818   4.093   4.740   8.349 -0.0570 -0.0662 -0.0016
  114loPI   C5A 1819   4.301   4.374   8.031 -0.2274 -0.1755  0.0123
  114loPI   C6A 1820   4.223   3.880   8.013 -0.0054  0.1293 -0.0024
  114loPI   C1B 1821   4.192   5.353   9.676  0.0077 -0.2153  0.0068
  114loPI   C2B 1822   4.393   5.508   9.332 -0.0024  0.2343  0.3428
  114loPI   C3B 1823   4.478   5.448   8.861  0.2607 -0.0641 -0.0743
  114loPI   C4B 1824   4.710   5.602   8.468 -0.3293 -0.2875 -0.1307
  115loPI    C1 1825   1.233   6.561  10.158 -0.1000 -0.0176 -0.1388
  115loPI    C2 1826   1.378   6.504   9.789  0.1135  0.1847 -0.0886
  115loPI    C3 1827   1.487   6.260  10.088  0.0008  0.0676 -0.1422
  115loPI   PO4 1828   1.030   6.766  10.019 -0.0527  0.2817 -0.0621
  115loPI   GL1 1829   1.142   6.988   9.658  0.0756  0.2237  0.1380
  115loPI   GL2 1830   0.913   6.739   9.576  0.1783 -0.3354  0.1962
  115loPI   C1A 1831   1.475   6.849   9.408 -0.2231  0.3161  0.1354
  115loPI   C2A 1832   1.503   6.948   8.895 -0.1974 -0.1733  0.1123
  115loPI   C3A 1833   1.793   6.840   8.621  0.0378  0.1199 -0.1581
  115loPI   C4A 1834   1.914   6.968   8.207 -0.1334  0.0336  0.1094
  115loPI   C5A 1835   2.047   6.770   7.904  0.0406 -0.2716  0.2106
  115loPI   C6A 1836   2.475   6.552   7.926  0.1181 -0.0042 -0.1511
  115loPI   C1B 1837   0.936   6.878   9.205 -0.3037 -0.1599 -0.2003
  115loPI   C2B 1838   1.001   6.925   8.823 -0.0758  0.0305  0.2245
  115loPI   C3B 1839   1.162   7.272   8.631  0.3881 -0.1251 -0.0068
  115loPI   C4B 1840   1.517   7.255   8.313  0.3385  0.1024  0.0105
  116loPI    C1 1841   7.241   9.040  10.031 -0.2540  0.4656  0.0020
  116loPI    C2 1842   6.871   9.070  10.182 -0.3238 -0.2562  0.0122
  116loPI    C3 1843   7.126   8.800  10.330  0.1202  0.0424 -0.1827
  116loPI   PO4 1844   7.229   8.976   9.814  0.0061  0.1307  0.0709
  116loPI   GL1 1845   7.441   9.139   9.424  0.1171  0.1143  0.0711
  116loPI   GL2 1846   7.121   9.312   9.436  0.2155  0.0446 -0.1840
  116loPI   C1A 1847   7.391   8.862   9.077 -0.2062 -0.0587 -0.0686
  116loPI   C2A 1848   7.104   8.647   8.959  0.2474  0.2111 -0.3753
  116loPI   C3A 1849   6.935   8.624   8.566  0.2348 -0.1653  0.0784
  116loPI   C4A 1850   7.067   8.302   8.356  0.1133 -0.0162 -0.2149
  116loPI   C5A 1851   7.410   8.298   8.094 -0.1040  0.0521 -0.0188
  116loPI   C6A 1852   7.617   8.060   7.915 -0.0464 -0.3747  0.0867
  116loPI   C1B 1853   7.251   9.371   9.058 -0.0359 -0.1591  0.2155
  116loPI   C2B 1854   7.169   9.645   8.779 -0.3137  0.0488  0.1346
  116loPI   C3B 1855   7.107   9.766   8.241  0.0395  0.4903 -0.0279
  116loPI   C4B 1856   6.937   9.501   7.949  0.0634 -0.2784 -0.2614
  117loPI    C1 1857   7.085   6.754  10.364  0.2850 -0.1573  0.4234
  117loPI    C2 1858   7.424   6.847  10.173  0.1158 -0.1708  0.1098
  117loPI    C3 1859   7.300   7.070  10.481  0.0897  0.2115 -0.1707
  117loPI   PO4 1860   6.881   6.650  10.078  0.0174 -0.1722  0.1862
  117loPI   GL1 1861   6.790   6.712   9.673 -0.1504 -0.2293  0.1900
  117loPI   GL2 1862   6.471   6.666   9.662 -0.1133  0.1623 -0.0266
  117loPI   C1A 1863   6.893   6.885   9.213  0.1973  0.0593  0.0202
  117loPI   C2A 1864   6.974   6.879   8.715  0.1122 -0.0669 -0.1458
  117loPI   C3A 1865   7.173   6.840   8.345  0.3108 -0.2975  0.0338
  117loPI   C4A 1866   7.336   6.886   8.010 -0.0873 -0.2627 -0.0912
  117loPI   C5A 1867   7.503   7.281   7.868 -0.1000 -0.2131  0.2526
  117loPI   C6A 1868   7.556   7.528   7.491  0.0432  0.3166 -0.2473
  117loPI   C1B 1869   6.508   6.628   9.236  0.2991  0.2612 -0.2441
  117loPI   C2B 1870   6.553   6.643   8.805 -0.2595  0.1993  0.2863
  117loPI   C3B 1871   6.602   6.609   8.440  0.0959 -0.3640 -0.2967
  117loPI   C4B 1872   6.742   6.648   8.032 -0.0360 -0.0860  0.0183
  118loPI    C1 1873   6.966  14.578   9.710 -0.1684  0.0837  0.0641
  118loPI    C2 1874   7.074  14.639  10.090 -0.0306 -0.0280  0.0437
  118loPI    C3 1875   6.758  14.408  10.007 -0.1971  0.1774  0.0979
  118loPI   PO4 1876   7.211  14.560   9.623 -0.0611  0.0157  0.1808
  118loPI   GL1 1877   7.348  14.444   9.145  0.3272  0.3387  0.2612
  118loPI   GL2 1878   7.261  14.041   9.297  0.0451 -0.2908  0.0762
  118loPI   C1A 1879   7.371  14.806   8.987 -0.1940  0.0462  0.1391
  118loPI   C2A 1880   7.455  14.777   8.594 -0.2921  0.1497  0.0693
  118loPI   C3A 1881   7.619  14.771   8.178 -0.0237 -0.0717 -0.0798
  118loPI   C4A 1882   7.695  14.769   7.742  0.3130 -0.0805  0.0565
  118loPI   C5A 1883   7.763  15.096   7.452  0.0560 -0.1816 -0.2241
  118loPI   C6A 1884   7.877  15.172   7.019  0.1096  0.3564 -0.1331
  118loPI   C1B 1885   7.127  14.066   8.899 -0.1079  0.3537  0.1762
  118loPI   C2B 1886   7.135  13.868   8.464  0.1283  0.1448  0.1580
  118loPI   C3B 1887   6.977  13.777   8.167  0.1109 -0.1012 -0.1013
  118loPI   C4B 1888   7.049  13.543   7.844  0.3122  0.1670  0.1373
  119loPI    C1 1889   2.952   4.762  10.203  0.1580  0.2125 -0.0829
  119loPI    C2 1890   3.097   4.723  10.574  0.0532  0.1834 -0.0449
  119loPI    C3 1891   2.829   5.008  10.493 -0.1530 -0.0024 -0.0280
  119loPI   PO4 1892   3.145   4.786  10.072 -0.1624  0.0690 -0.0319
  119loPI   GL1 1893   3.138   4.881   9.691  0.3427 -0.1533  0.1023
  119loPI   GL2 1894   3.361   5.153   9.673 -0.0068  0.0477 -0.2238
  119loPI   C1A 1895   2.911   4.934   9.295 -0.0318 -0.2747 -0.0452
  119loPI   C2A 1896   3.042   5.096   9.015  0.2469 -0.0974  0.2695
  119loPI   C3A 1897   3.316   4.905   8.793 -0.2190  0.0939  0.2332
  119loPI   C4A 1898   3.611   5.062   8.627  0.0517  0.5439  0.4940
  119loPI   C5A 1899   3.849   5.144   8.241  0.1596  0.0627  0.0552
  119loPI   C6A 1900   4.176   5.124   7.968 -0.0132  0.0003 -0.1851
  119loPI   C1B 1901   3.573   5.071   9.238 -0.2429 -0.0990  0.1366
  119loPI   C2B 1902   3.779   4.761   8.936 -0.0675 -0.1590  0.0406
  119loPI   C3B 1903   3.709   4.537   8.618 -0.0170  0.0641 -0.0326
  119loPI   C4B 1904   3.692   4.345   8.190  0.0260  0.1705  0.1174
  120loPI    C1 1905  15.410   1.966  10.734  0.1422 -0.1040  0.2276
  120loPI    C2 1906  15.358   2.341  10.865 -0.2745 -0.1101  0.0951
  120loPI    C3 1907  15.070   2.068  10.919 -0.1818 -0.2816 -0.2490
  120loPI   PO4 1908  15.371   1.971  10.492 -0.0115 -0.0658  0.0513
  120loPI   GL1 1909  15.527   1.961  10.062 -0.2614 -0.1710  0.1695
  120loPI   GL2 1910  15.550   1.632  10.039  0.2232 -0.3305  0.0881
  120loPI   C1A 1911  15.460   1.988   9.620  0.0028 -0.0641 -0.3057
  120loPI   C2A 1912  15.388   1.980   9.159  0.1253 -0.1610  0.0760
  120loPI   C3A 1913  15.328   1.985   8.811 -0.1387  0.0999 -0.2232
  120loPI   C4A 1914  15.128   1.848   8.447  0.1571  0.3272 -0.0000
  120loPI   C5A 1915  14.950   2.084   8.270  0.1347 -0.0131  0.0259
  120loPI   C6A 1916  14.805   2.263   7.932 -0.0873 -0.1769 -0.0505
  120loPI   C1B 1917  15.612   1.571   9.691  0.1299  0.0766 -0.1099
  120loPI   C2B 1918  15.621   1.556   9.354 -0.2103  0.3790 -0.1597
  120loPI   C3B 1919  15.624   1.500   8.900  0.0401  0.1594 -0.0502
  120loPI   C4B 1920  15.822   1.218   8.613 -0.1666  0.0294 -0.0793
  121loPI    C1 1921  15.655  16.223  10.178 -0.0194 -0.1194 -0.0139
  121loPI    C2 1922  15.468  16.195  10.531 -0.3223  0.0337 -0.1582
  121loPI    C3 1923  15.674  16.526  10.439  0.0147 -0.1283 -0.0059
  121loPI   PO4 1924  15.557  16.074  10.041 -0.0288 -0.4881  0.2005
  121loPI   GL1 1925  15.361  16.240   9.670 -0.0693  0.1139  0.0225
  121loPI   GL2 1926  15.401  16.516   9.534 -0.0724  0.1830 -0.0406
  121loPI   C1A 1927  15.270  16.025   9.256 -0.0728 -0.1684 -0.2684
  121loPI   C2A 1928  15.336  15.995   8.832  0.2140  0.0557 -0.1672
  121loPI   C3A 1929  15.379  16.171   8.459 -0.0557  0.0274 -0.0548
  121loPI   C4A 1930  15.308  16.273   8.036 -0.4023 -0.0156 -0.0835
  121loPI   C5A 1931  15.347  16.700   7.731  0.0668 -0.0025  0.0158
  121loPI   C6A 1932  15.295  17.080   7.921  0.2830 -0.1917 -0.0891
  121loPI   C1B 1933  15.649  16.772   9.250 -0.1053 -0.0105 -0.3027
  121loPI   C2B 1934  15.619  17.117   9.016 -0.2129 -0.0701  0.1049
  121loPI   C3B 1935  15.491  17.147   8.577 -0.0319 -0.4557  0.2846
  121loPI   C4B 1936  15.673  17.282   8.263 -0.0508 -0.2517  0.0383
  122loPI    C1 1937  13.890  10.880  10.883 -0.1444  0.0246  0.1331
  122loPI    C2 1938  13.956  10.631  11.190 -0.1545  0.1383  0.2281
  122loPI    C3 1939  13.587  10.770  11.119 -0.1683  0.0438  0.1115
  122loPI   PO4 1940  13.960  10.763  10.624 -0.1729  0.0563  0.0381
  122loPI   GL1 1941  13.996  10.635  10.205  0.2466 -0.3290  0.0045
  122loPI   GL2 1942  13.635  10.709  10.197 -0.0232  0.0984  0.2552
  122loPI   C1A 1943  14.113  10.498   9.783 -0.1225 -0.0631 -0.0274
  122loPI   C2A 1944  14.280  10.402   9.354 -0.1978  0.0093  0.2177
  122loPI   C3A 1945  14.104  10.446   8.957  0.3197  0.2100  0.1461
  122loPI   C4A 1946  13.970  10.569   8.547  0.2663  0.0268 -0.0324
  122loPI   C5A 1947  14.033  10.702   8.194 -0.1181 -0.0417 -0.3486
  122loPI   C6A 1948  13.999  10.768   7.801 -0.2423  0.0476  0.0323
  122loPI   C1B 1949  13.793  10.875   9.779  0.0016 -0.1285  0.0977
  122loPI   C2B 1950  13.758  11.234   9.478 -0.0400  0.0721 -0.0316
  122loPI   C3B 1951  13.974  11.457   9.164  0.0418  0.0817  0.0938
  122loPI   C4B 1952  13.946  11.673   8.698  0.4114  0.0560  0.0217
  123loPI    C1 1953   1.173   4.534  10.687 -0.1356  0.3223  0.0088
  123loPI    C2 1954   1.100   4.859  10.909 -0.1308  0.4106 -0.1186
  123loPI    C3 1955   0.802   4.609  10.816 -0.1184  0.3304  0.0540
  123loPI   PO4 1956   1.329   4.596  10.549 -0.0153  0.3434  0.0744
  123loPI   GL1 1957   1.268   4.584  10.111  0.0221  0.0989  0.0762
  123loPI   GL2 1958   1.393   4.834  10.039 -0.1002 -0.0576  0.0039
  123loPI   C1A 1959   0.923   4.536   9.908 -0.0891 -0.1413 -0.2243
  123loPI   C2A 1960   0.933   4.516   9.393  0.0999  0.2462 -0.0851
  123loPI   C3A 1961   0.886   4.549   9.018 -0.0456 -0.1583  0.0403
  123loPI   C4A 1962   0.987   4.323   8.731  0.1117 -0.2071 -0.1106
  123loPI   C5A 1963   0.910   4.251   8.383 -0.0041 -0.0877  0.2710
  123loPI   C6A 1964   0.945   3.903   8.070  0.0909 -0.1487 -0.1532
  123loPI   C1B 1965   1.359   4.725   9.628 -0.1256  0.1155 -0.1361
  123loPI   C2B 1966   1.341   4.730   9.203 -0.3470  0.1288  0.3495
  123loPI   C3B 1967   1.420   4.552   8.800  0.0050  0.1423 -0.0740
  123loPI   C4B 1968   1.582   4.682   8.298 -0.1918  0.0325  0.0762
  124loPI    C1 1969  18.071   9.518  10.680 -0.0346 -0.0150  0.0674
  124loPI    C2 1970  17.803   9.812  10.637  0.0186  0.0390  0.1032
  124loPI    C3 1971  17.930   9.709  11.002  0.2103  0.1612  0.0722
  124loPI   PO4 1972  17.897   9.353  10.438  0.2794 -0.2097 -0.0281
  124loPI   GL1 1973  17.753   9.530  10.056 -0.0313  0.1401  0.3750
  124loPI   GL2 1974  18.010   9.462   9.859  0.3901 -0.1740  0.2146
  124loPI   C1A 1975  17.563   9.498   9.587  0.1840  0.0841 -0.0912
  124loPI   C2A 1976  17.516   9.498   9.136  0.2595  0.1528  0.0890
  124loPI   C3A 1977  17.344   9.675   8.676  0.0362 -0.0993  0.3186
  124loPI   C4A 1978  17.226   9.477   8.237 -0.0990 -0.3026  0.3254
  124loPI   C5A 1979  17.373   9.161   7.914 -0.3017 -0.0630  0.0365
  124loPI   C6A 1980  17.367   9.044   7.465 -0.2992  0.0940 -0.4091
  124loPI   C1B 1981  18.087   9.436   9.462  0.0487  0.1401  0.1685
  124loPI   C2B 1982  18.068   9.547   9.127 -0.0184  0.0184  0.0805
  124loPI   C3B 1983  17.847   9.459   8.729 -0.0966  0.2752  0.0212
  124loPI   C4B 1984  17.821   9.511   8.354  0.0460 -0.0681 -0.1310
  125loPI    C1 1985   0.374  13.916  10.525 -0.2080  0.0660 -0.2001
  125loPI    C2 1986   0.580  13.771  10.835 -0.1721 -0.1420 -0.3188
  125loPI    C3 1987   0.294  14.044  10.895 -0.1035 -0.1129 -0.1143
  125loPI   PO4 1988   0.527  13.945  10.217 -0.1194 -0.0084 -0.1105
  125loPI   GL1 1989   0.461  13.975   9.899 -0.2225 -0.2371  0.1068
  125loPI   GL2 1990   0.730  14.188   9.852  0.3897 -0.0117 -0.0164
  125loPI   C1A 1991   0.464  13.891   9.526  0.2551  0.0173  0.2606
  125loPI   C2A 1992   0.574  13.864   9.166  0.3886  0.1967  0.2001
  125loPI   C3A 1993   0.822  13.732   8.789 -0.1636 -0.0424 -0.0794
  125loPI   C4A 1994   0.747  13.425   8.569 -0.1226 -0.2320 -0.0885
  125loPI   C5A 1995   0.825  13.057   8.320 -0.0080 -0.0119 -0.2962
  125loPI   C6A 1996   1.004  12.812   8.015 -0.0636 -0.0319 -0.0947
  125loPI   C1B 1997   0.762  14.343   9.477 -0.1683 -0.2872  0.2479
  125loPI   C2B 1998   0.870  14.366   9.071  0.1718  0.1403 -0.2497
  125loPI   C3B 1999   0.889  14.185   8.653 -0.1802  0.0582 -0.3714
  125loPI   C4B 2000   0.576  13.969   8.427 -0.2126 -0.1362  0.1992
  126loPI    C1 2001  16.041   9.174  10.644  0.0917  0.1115 -0.1357
  126loPI    C2 2002  16.405   9.074  10.511  0.0748  0.1494 -0.2106
  126loPI    C3 2003  16.296   8.978  10.883  0.2838  0.4306 -0.0738
  126loPI   PO4 2004  15.937   9.231  10.374  0.0262  0.1693  0.0623
  126loPI   GL1 2005  15.888   9.497  10.014 -0.1120  0.0647  0.0371
  126loPI   GL2 2006  15.613   9.274   9.843  0.1333 -0.2621 -0.1376
  126loPI   C1A 2007  15.805   9.703   9.664 -0.1977 -0.0173 -0.1262
  126loPI   C2A 2008  15.611  10.149   9.595  0.1382 -0.2218  0.0189
  126loPI   C3A 2009  15.510  10.183   9.189  0.0397 -0.1317 -0.3821
  126loPI   C4A 2010  15.508  10.171   8.792 -0.0272 -0.1109 -0.0620
  126loPI   C5A 2011  15.117  10.172   8.520  0.4875  0.2121  0.1244
  126loPI   C6A 2012  14.703   9.966   8.368  0.3000 -0.2015  0.0179
  126loPI   C1B 2013  15.721   8.859   9.617 -0.0798  0.4248  0.3312
  126loPI   C2B 2014  15.659   8.997   9.100  0.0126  0.2141  0.3058
  126loPI   C3B 2015  15.570   8.785   8.623 -0.0985 -0.0926  0.1357
  126loPI   C4B 2016  15.261   8.467   8.495  0.1021 -0.0383 -0.0959
  127loPI    C1 2017  10.051   2.340  10.426  0.1561 -0.1409  0.1112
  127loPI    C2 2018  10.204   2.498  10.760 -0.0598 -0.0262  0.1583
  127loPI    C3 2019   9.812   2.525  10.688  0.0103  0.1075 -0.1905
  127loPI   PO4 2020  10.245   2.305  10.256 -0.2612  0.0512  0.2671
  127loPI   GL1 2021  10.172   2.062   9.924  0.0713 -0.1214 -0.0877
  127loPI   GL2 2022  10.439   2.023   9.750  0.0099 -0.0746 -0.0960
  127loPI   C1A 2023   9.920   2.013   9.575 -0.0086 -0.0830 -0.1196
  127loPI   C2A 2024   9.980   1.989   9.140 -0.0804 -0.1245 -0.1723
  127loPI   C3A 2025  10.187   2.035   8.902  0.3892  0.0176  0.0196
  127loPI   C4A 2026  10.159   2.297   8.479 -0.3582 -0.3053 -0.0502
  127loPI   C5A 2027  10.183   2.587   8.142 -0.0230 -0.1014 -0.0279
  127loPI   C6A 2028  10.513   2.800   7.936  0.2160  0.0120 -0.0685
  127loPI   C1B 2029  10.405   2.140   9.419  0.0172  0.0814 -0.1231
  127loPI   C2B 2030  10.506   2.424   9.116 -0.3144  0.1350  0.1644
  127loPI   C3B 2031  10.551   2.480   8.734 -0.0306 -0.1124 -0.0291
  127loPI   C4B 2032  10.631   2.319   8.277  0.1006 -0.1609 -0.1051
  128loPI    C1 2033  13.421  18.313  10.543 -0.0457 -0.0823  0.0016
  128loPI    C2 2034  13.506  17.978  10.745  0.2161  0.0421  0.1026
  128loPI    C3 2035  13.461  18.324  10.941 -0.2354  0.0374  0.0187
  128loPI   PO4 2036  13.448  18.288  10.300 -0.0201 -0.0247  0.1330
  128loPI   GL1 2037  13.345  18.282   9.982  0.0700 -0.1573 -0.1023
  128loPI   GL2 2038  13.302  18.564   9.803 -0.0442 -0.1789 -0.0081
  128loPI   C1A 2039  13.286  17.814   9.777 -0.0691  0.1924 -0.1644
  128loPI   C2A 2040  13.378  17.821   9.382  0.1212 -0.3677  0.0386
  128loPI   C3A 2041  13.353  17.911   9.049  0.0684 -0.0999 -0.2454
  128loPI   C4A 2042  13.218  17.934   8.670 -0.0160 -0.0615 -0.0070
  128loPI   C5A 2043  13.222  18.265   8.274 -0.1976 -0.2446  0.0031
  128loPI   C6A 2044  12.847  18.574   8.161  0.2578  0.2279  0.0710
  128loPI   C1B 2045  13.448  18.906   9.448  0.1838 -0.0824  0.2409
  128loPI   C2B 2046  13.676  18.975   9.047  0.1001  0.0083 -0.2086
  128loPI   C3B 2047  13.566  19.033   8.660 -0.1238 -0.1903 -0.0043
  128loPI   C4B 2048  13.627  18.683   8.219 -0.1904 -0.1242  0.2449
  129loPI    C1 2049   4.779  10.867  10.348 -0.2327 -0.0864  0.0651
  129loPI    C2 2050   4.947  11.229  10.372  0.4759 -0.3985  0.0544
  129loPI    C3 2051   4.785  11.063  10.697  0.0429 -0.0363  0.0342
  129loPI   PO4 2052   4.985  10.732  10.237  0.2536 -0.0348  0.3313
  129loPI   GL1 2053   4.811  10.537   9.861 -0.0277 -0.0396  0.0322
  129loPI   GL2 2054   5.047  10.789   9.704 -0.1097 -0.0902 -0.2413
  129loPI   C1A 2055   4.680  10.417   9.460 -0.1903 -0.3177  0.1817
  129loPI   C2A 2056   4.638  10.395   9.079  0.0840  0.0854  0.0494
  129loPI   C3A 2057   4.687  10.411   8.590  0.0808 -0.1151  0.1282
  129loPI   C4A 2058   4.639  10.452   8.174  0.0551 -0.1890  0.1345
  129loPI   C5A 2059   4.650  10.542   7.689  0.0905  0.0856 -0.1214
  129loPI   C6A 2060   4.823  10.774   7.318 -0.1648 -0.1189  0.1121
  129loPI   C1B 2061   4.887  10.889   9.352 -0.2248 -0.0512  0.3837
  129loPI   C2B 2062   4.746  10.882   8.913 -0.2011 -0.2776 -0.1243
  129loPI   C3B 2063   4.547  10.900   8.608 -0.3152 -0.0084  0.1053
  129loPI   C4B 2064   4.483  10.938   8.189  0.0054 -0.1909 -0.0088
  130loPI    C1 2065   9.013  16.170  10.398  0.0026  0.2795  0.2372
  130loPI    C2 2066   9.128  15.830  10.575 -0.1899  0.1170  0.0551
  130loPI    C3 2067   9.042  16.152  10.797 -0.0020  0.0500  0.2284
  130loPI   PO4 2068   9.176  16.130  10.161  0.0393 -0.2632 -0.2695
  130loPI   GL1 2069   9.026  16.228   9.764 -0.3073  0.3197  0.1123
  130loPI   GL2 2070   8.786  16.417   9.765 -0.1916 -0.0277 -0.0354
  130loPI   C1A 2071   9.300  16.229   9.362  0.3613  0.1257 -0.1580
  130loPI   C2A 2072   9.516  15.992   9.018  0.1116  0.0252  0.0812
  130loPI   C3A 2073   9.609  15.695   8.791 -0.1041  0.1579 -0.2255
  130loPI   C4A 2074   9.485  15.769   8.418 -0.0527  0.1134  0.0700
  130loPI   C5A 2075   9.221  15.894   8.132 -0.1930 -0.3247 -0.1487
  130loPI   C6A 2076   9.218  16.122   7.774  0.0342 -0.0607  0.0546
  130loPI   C1B 2077   8.888  16.494   9.302 -0.2873 -0.0167 -0.1501
  130loPI   C2B 2078   9.127  16.538   8.954 -0.0167 -0.0042 -0.2072
  130loPI   C3B 2079   9.237  16.316   8.588 -0.0690 -0.0677 -0.3825
  130loPI   C4B 2080   9.007  16.366   8.182 -0.0906  0.1322  0.1417
  131loPI    C1 2081   9.412   0.138  10.256 -0.0654 -0.0179 -0.0302
  131loPI    C2 2082   9.379   0.520  10.143  0.0208  0.0074  0.0291
  131loPI    C3 2083   9.384   0.426  10.532  0.0344 -0.0510  0.0150
  131loPI   PO4 2084   9.614   0.073  10.107 -0.0663  0.1294 -0.0861
  131loPI   GL1 2085   9.791  -0.112   9.786  0.2830 -0.0633  0.1117
  131loPI   GL2 2086  10.166  -0.150   9.812 -0.2314 -0.1217  0.1574
  131loPI   C1A 2087   9.654  -0.340   9.361 -0.1082  0.2792 -0.2561
  131loPI   C2A 2088   9.568  -0.495   8.990 -0.1663 -0.0439 -0.0565
  131loPI   C3A 2089   9.776  -0.587   8.631  0.1422  0.0782 -0.1950
  131loPI   C4A 2090  10.022  -0.582   8.222 -0.4197  0.0289  0.0845
  131loPI   C5A 2091  10.151  -0.794   7.876 -0.2511 -0.0975 -0.0065
  131loPI   C6A 2092  10.457  -1.008   7.686  0.0710 -0.1980  0.0112
  131loPI   C1B 2093  10.174  -0.267   9.415  0.2080  0.2249 -0.0248
  131loPI   C2B 2094  10.090  -0.263   8.976 -0.1791 -0.3212 -0.0544
  131loPI   C3B 2095  10.325  -0.375   8.612  0.1602  0.2741  0.0863
  131loPI   C4B 2096  10.492  -0.336   8.204 -0.0890 -0.1065  0.0790
  132loPI    C1 2097   5.040  17.837  10.346  0.1776  0.0581 -0.1048
  132loPI    C2 2098   5.121  17.659  10.695  0.3112  0.0540 -0.1372
  132loPI    C3 2099   4.824  17.927  10.671  0.2993  0.0519 -0.0217
  132loPI   PO4 2100   5.056  17.661  10.213 -0.0739 -0.1628 -0.0878
  132loPI   GL1 2101   4.882  17.694   9.842  0.2853 -0.4220  0.3007
  132loPI   GL2 2102   5.071  17.980   9.823  0.0165 -0.1577 -0.1074
  132loPI   C1A 2103   4.887  17.524   9.486  0.3631 -0.2000  0.0321
  132loPI   C2A 2104   5.129  17.407   9.127  0.1104  0.1080  0.0892
  132loPI   C3A 2105   5.216  17.363   8.688 -0.0370 -0.0259 -0.1594
  132loPI   C4A 2106   5.340  17.539   8.252 -0.2068 -0.1144  0.3453
  132loPI   C5A 2107   5.583  17.654   7.916 -0.0329  0.0934  0.0068
  132loPI   C6A 2108   5.853  17.577   7.749  0.1216 -0.2776  0.2271
  132loPI   C1B 2109   4.948  17.995   9.429 -0.0278  0.0358  0.2312
  132loPI   C2B 2110   4.882  17.901   9.045 -0.1479  0.0597  0.3292
  132loPI   C3B 2111   5.017  17.957   8.625  0.1417  0.2799  0.0854
  132loPI   C4B 2112   5.111  17.981   8.241 -0.0175  0.0531  0.1396
  133loPI    C1 2113  10.080   7.553  10.443  0.0495  0.1999 -0.4196
  133loPI    C2 2114   9.954   7.890  10.618  0.0836 -0.0010  0.0055
  133loPI    C3 2115  10.190   7.637  10.819  0.0693 -0.2739 -0.3129
  133loPI   PO4 2116   9.918   7.516  10.266 -0.2741  0.1964  0.1711
  133loPI   GL1 2117  10.086   7.581   9.925  0.1347 -0.1074  0.3956
  133loPI   GL2 2118  10.170   7.749   9.788 -0.0112  0.0291 -0.3060
  133loPI   C1A 2119   9.981   7.331   9.577  0.2809  0.4096 -0.1233
  133loPI   C2A 2120  10.175   7.072   9.130 -0.0930 -0.1089 -0.1550
  133loPI   C3A 2121  10.134   6.953   8.818  0.2850  0.0250 -0.1098
  133loPI   C4A 2122   9.993   6.887   8.497 -0.2976 -0.0643 -0.0466
  133loPI   C5A 2123   9.651   7.028   8.376 -0.0466 -0.1452  0.0478
  133loPI   C6A 2124   9.338   7.101   8.202 -0.1169  0.1760 -0.4526
  133loPI   C1B 2125  10.202   7.946   9.389 -0.0178  0.0244  0.0311
  133loPI   C2B 2126  10.267   8.184   9.022 -0.0537 -0.1412 -0.1973
  133loPI   C3B 2127  10.331   8.361   8.565  0.0973  0.1859  0.0963
  133loPI   C4B 2128  10.420   8.485   8.114 -0.0067 -0.0347 -0.2465
  134loPI    C1 2129   7.345   9.982  10.081 -0.1681  0.2383 -0.1456
  134loPI    C2 2130   7.216  10.328  10.234 -0.0590  0.1055  0.2602
  134loPI    C3 2131   7.028   9.988  10.325  0.0166  0.0216  0.1062
  134loPI   PO4 2132   7.578  10.029   9.880  0.2046  0.2124 -0.0735
  134loPI   GL1 2133   7.468  10.092   9.447 -0.0870 -0.0683 -0.0719
  134loPI   GL2 2134   7.800   9.959   9.426 -0.0853  0.1199 -0.1986
  134loPI   C1A 2135   7.437  10.344   9.172  0.2265  0.1756 -0.2902
  134loPI   C2A 2136   7.535  10.570   8.727 -0.1088 -0.3682  0.2482
  134loPI   C3A 2137   7.630  10.603   8.366 -0.2022  0.0920  0.2024
  134loPI   C4A 2138   7.749  10.204   8.165  0.0827 -0.3911  0.0484
  134loPI   C5A 2139   7.755   9.718   7.990 -0.1097 -0.0672 -0.0181
  134loPI   C6A 2140   7.946   9.755   7.571  0.1223  0.1953  0.2376
  134loPI   C1B 2141   7.602   9.863   8.997  0.1416 -0.0040 -0.0609
  134loPI   C2B 2142   7.494   9.907   8.557  0.4746 -0.1108 -0.2544
  134loPI   C3B 2143   7.269  10.260   8.300  0.0840 -0.0255  0.1530
  134loPI   C4B 2144   7.242  10.579   7.962 -0.0147 -0.1356 -0.3517
  135loPI    C1 2145   8.775   9.806  10.175 -0.2795 -0.0109 -0.0915
  135loPI    C2 2146   8.511   9.869  10.469 -0.1690  0.0207  0.0015
  135loPI    C3 2147   8.800  10.137  10.399 -0.1281 -0.0403 -0.0643
  135loPI   PO4 2148   8.616   9.707  10.017 -0.1696 -0.4743 -0.1780
  135loPI   GL1 2149   8.688   9.551   9.632 -0.0764 -0.0166 -0.0224
  135loPI   GL2 2150   8.461   9.414   9.640  0.0070  0.2039  0.2046
  135loPI   C1A 2151   8.643   9.327   9.184 -0.0696  0.0008  0.0378
  135loPI   C2A 2152   8.516   9.304   8.726 -0.1314 -0.2694  0.2311
  135loPI   C3A 2153   8.474   9.371   8.215 -0.0473  0.2068  0.3475
  135loPI   C4A 2154   8.211   9.431   7.875 -0.0254  0.0980 -0.1707
  135loPI   C5A 2155   7.916   9.233   7.584 -0.1983  0.1858  0.0789
  135loPI   C6A 2156   7.506   9.153   7.264  0.1775 -0.1817 -0.3363
  135loPI   C1B 2157   8.227   9.553   9.404  0.1521  0.0292 -0.1047
  135loPI   C2B 2158   7.923   9.449   9.262  0.0807  0.1329  0.0770
  135loPI   C3B 2159   7.671   9.304   8.799 -0.0955  0.0894  0.4252
  135loPI   C4B 2160   7.446   9.396   8.437  0.0844 -0.0716 -0.0178
  136loPI    C1 2161   5.084   1.707  10.842 -0.0690  0.0591  0.1835
  136loPI    C2 2162   4.850   1.767  11.161  0.0031  0.2755  0.1970
  136loPI    C3 2163   5.174   1.994  11.104  0.0590  0.1572  0.0336
  136loPI   PO4 2164   4.863   1.617  10.649  0.0858  0.2800  0.1641
  136loPI   GL1 2165   4.892   1.545  10.193 -0.0621 -0.1300  0.3653
  136loPI   GL2 2166   5.014   1.943  10.176 -0.1983  0.2238  0.0257
  136loPI   C1A 2167   4.796   1.546   9.739 -0.3761  0.0088 -0.0545
  136loPI   C2A 2168   4.612   1.551   9.315  0.0660  0.0968  0.5062
  136loPI   C3A 2169   4.965   1.505   8.946  0.2891 -0.1946 -0.0002
  136loPI   C4A 2170   4.886   1.295   8.579  0.0599 -0.1917  0.2019
  136loPI   C5A 2171   4.686   1.366   8.190  0.0062  0.1454  0.1839
  136loPI   C6A 2172   4.599   1.038   7.852  0.1471 -0.0069 -0.0510
  136loPI   C1B 2173   5.065   2.036   9.780 -0.0763  0.0218 -0.3164
  136loPI   C2B 2174   4.785   2.071   9.408 -0.1877  0.0446  0.4474
  136loPI   C3B 2175   4.594   2.004   9.052 -0.2170  0.0231 -0.0706
  136loPI   C4B 2176   4.354   2.254   8.619  0.0750 -0.0598  0.1183
  137loPI    C1 2177  12.322  15.161  10.057 -0.0779  0.1228 -0.1207
  137loPI    C2 2178  11.966  15.127   9.878 -0.2117  0.0635  0.1523
  137loPI    C3 2179  12.113  14.822  10.092  0.0421  0.0577 -0.0257
  137loPI   PO4 2180  12.275  15.455  10.148  0.0714 -0.1284 -0.1605
  137loPI   GL1 2181  12.308  15.633   9.764 -0.0535  0.2950 -0.0262
  137loPI   GL2 2182  12.325  15.426   9.641 -0.5165  0.0322 -0.0143
  137loPI   C1A 2183  12.391  15.834   9.353 -0.3726  0.1685  0.0147
  137loPI   C2A 2184  12.406  15.835   8.813  0.6348  0.0915  0.1867
  137loPI   C3A 2185  12.261  15.831   8.377 -0.1130 -0.0777 -0.0528
  137loPI   C4A 2186  12.103  15.690   7.979  0.0358  0.2727 -0.0653
  137loPI   C5A 2187  11.988  15.642   7.585  0.0847  0.1824 -0.0223
  137loPI   C6A 2188  11.996  15.646   7.191 -0.1795  0.1327 -0.0014
  137loPI   C1B 2189  12.348  15.389   9.191 -0.0855  0.3906  0.0264
  137loPI   C2B 2190  12.359  15.301   8.783  0.0272 -0.2349 -0.0211
  137loPI   C3B 2191  12.464  15.316   8.341  0.0204 -0.2121 -0.1859
  137loPI   C4B 2192  12.499  15.443   7.900  0.0335  0.0564 -0.1887
  138loPI    C1 2193  12.791  15.293  10.574  0.0747 -0.0778 -0.1026
  138loPI    C2 2194  12.426  15.129  10.582 -0.0111  0.1003 -0.2801
  138loPI    C3 2195  12.572  15.308  10.908 -0.0262 -0.0908 -0.1674
  138loPI   PO4 2196  12.772  15.439  10.300 -0.0568  0.2074 -0.1369
  138loPI   GL1 2197  12.810  15.368   9.828  0.2521 -0.1273 -0.1775
  138loPI   GL2 2198  12.712  15.051   9.806 -0.3307 -0.0260  0.1564
  138loPI   C1A 2199  12.819  15.471   9.483  0.1966 -0.1143 -0.3199
  138loPI   C2A 2200  12.819  15.489   9.014  0.0356  0.0849 -0.3084
  138loPI   C3A 2201  12.850  15.509   8.629  0.2247  0.1202 -0.2017
  138loPI   C4A 2202  13.043  15.546   8.281 -0.0341 -0.4707  0.0410
  138loPI   C5A 2203  13.116  15.879   7.793 -0.0608  0.1572 -0.0010
  138loPI   C6A 2204  13.506  16.053   7.698 -0.1449  0.4061 -0.2559
  138loPI   C1B 2205  12.728  14.827   9.439 -0.1454 -0.2135  0.0341
  138loPI   C2B 2206  12.658  14.929   8.988  0.1974  0.2728 -0.0674
  138loPI   C3B 2207  12.441  14.870   8.577 -0.3346  0.2564 -0.1127
  138loPI   C4B 2208  12.375  14.914   8.148 -0.0521  0.0979 -0.2466
  139loPI    C1 2209   2.658   3.386  10.913 -0.0454  0.0523  0.1415
  139loPI    C2 2210   2.298   3.550  10.857  0.0959  0.2796 -0.1246
  139loPI    C3 2211   2.399   3.408  11.217 -0.4024 -0.1444 -0.1403
  139loPI   PO4 2212   2.705   3.384  10.630 -0.1787  0.1038  0.0972
  139loPI   GL1 2213   2.630   3.466  10.146 -0.2595  0.2681 -0.2945
  139loPI   GL2 2214   2.915   3.380   9.977  0.0988  0.0458 -0.1402
  139loPI   C1A 2215   2.528   3.576   9.752  0.1679 -0.2347 -0.0993
  139loPI   C2A 2216   2.575   3.683   9.307  0.0042  0.1907  0.1296
  139loPI   C3A 2217   2.540   3.320   9.002  0.0317  0.0489 -0.1681
  139loPI   C4A 2218   2.389   3.037   8.719 -0.2537  0.0550 -0.2180
  139loPI   C5A 2219   2.274   3.047   8.327  0.1145  0.1727 -0.0873
  139loPI   C6A 2220   2.423   2.738   8.006  0.0041 -0.1116 -0.2018
  139loPI   C1B 2221   3.030   3.482   9.507  0.1843  0.0802 -0.1589
  139loPI   C2B 2222   2.959   3.611   9.077 -0.3275 -0.1995  0.0779
  139loPI   C3B 2223   2.706   3.751   8.788  0.0016 -0.1419  0.2072
  139loPI   C4B 2224   2.873   3.837   8.370  0.1079 -0.3288  0.0609
  140loPI    C1 2225   6.601  11.306  10.295 -0.2060 -0.1643 -0.0398
  140loPI    C2 2226   6.313  11.050  10.402 -0.1866 -0.1458  0.0581
  140loPI    C3 2227   6.697  10.947  10.444 -0.1789 -0.1001  0.0997
  140loPI   PO4 2228   6.407  11.475  10.112  0.1349 -0.0153 -0.0067
  140loPI   GL1 2229   6.189  11.437   9.767  0.2806 -0.0551 -0.0058
  140loPI   GL2 2230   5.834  11.383   9.636 -0.0948  0.2079 -0.0647
  140loPI   C1A 2231   6.294  11.657   9.401 -0.3068 -0.0082 -0.0418
  140loPI   C2A 2232   6.622  12.009   9.181  0.3440  0.1408  0.1611
  140loPI   C3A 2233   6.794  12.266   9.059 -0.0449 -0.1748  0.2097
  140loPI   C4A 2234   6.925  12.654   8.789 -0.1424  0.0597  0.1472
  140loPI   C5A 2235   7.018  12.687   8.339  0.1770 -0.0344  0.0723
  140loPI   C6A 2236   7.110  12.612   7.954  0.0131 -0.0736 -0.0551
  140loPI   C1B 2237   5.873  11.437   9.217  0.2474 -0.1829  0.1955
  140loPI   C2B 2238   5.827  11.341   8.757  0.2549  0.0090  0.0903
  140loPI   C3B 2239   5.975  11.217   8.304  0.0495  0.2372 -0.1520
  140loPI   C4B 2240   6.431  11.055   8.146 -0.0552  0.2189  0.1265
  141loPI    C1 2241  18.169   6.311  10.311  0.2088 -0.1136 -0.0085
  141loPI    C2 2242  17.940   6.366  10.634  0.2780  0.4094 -0.0402
  141loPI    C3 2243  17.797   6.165  10.319  0.1543  0.0334  0.2481
  141loPI   PO4 2244  18.247   6.544  10.051  0.0699  0.1789  0.0820
  141loPI   GL1 2245  18.293   6.597   9.601 -0.1127 -0.0216  0.1676
  141loPI   GL2 2246  18.183   6.823   9.312  0.1540 -0.2489  0.1088
  141loPI   C1A 2247  18.420   6.341   9.255  0.1174 -0.0462  0.0101
  141loPI   C2A 2248  18.641   6.415   8.871 -0.1322  0.1825  0.0122
  141loPI   C3A 2249  18.737   6.407   8.492  0.1104  0.1437  0.1368
  141loPI   C4A 2250  18.750   6.622   8.191  0.0587 -0.0354  0.0777
  141loPI   C5A 2251  18.798   6.921   7.901 -0.0866 -0.0484 -0.1104
  141loPI   C6A 2252  19.172   7.145   7.726  0.4347 -0.1104 -0.2588
  141loPI   C1B 2253  18.299   6.798   8.863 -0.0113  0.0006  0.0030
  141loPI   C2B 2254  18.340   6.838   8.435 -0.0979  0.1877  0.0698
  141loPI   C3B 2255  18.256   6.880   7.986 -0.0426 -0.0627 -0.1930
  141loPI   C4B 2256  17.971   7.004   7.665  0.1462  0.1469  0.1239
  142loPI    C1 2257   6.949   5.533  10.831  0.0190 -0.0271 -0.0341
  142loPI    C2 2258   6.550   5.510  10.823  0.0003  0.2272  0.0608
  142loPI    C3 2259   6.739   5.593  11.166  0.1467 -0.0591  0.0526
  142loPI   PO4 2260   6.987   5.352  10.616 -0.2921  0.2577 -0.5077
  142loPI   GL1 2261   7.108   5.407  10.156 -0.1592  0.1447 -0.2128
  142loPI   GL2 2262   7.356   5.215  10.224 -0.3274  0.0064  0.0755
  142loPI   C1A 2263   7.024   5.246   9.742  0.0236  0.2120  0.1122
  142loPI   C2A 2264   6.965   5.370   9.266 -0.0178  0.0941  0.2569
  142loPI   C3A 2265   6.991   5.393   8.833 -0.0804 -0.2756  0.1067
  142loPI   C4A 2266   6.989   5.262   8.345  0.3191 -0.0828  0.0661
  142loPI   C5A 2267   7.003   5.320   7.942 -0.1549 -0.2039  0.1112
  142loPI   C6A 2268   7.303   5.671   7.725 -0.0662 -0.2712 -0.0648
  142loPI   C1B 2269   7.521   5.037   9.833 -0.2400  0.2536  0.0707
  142loPI   C2B 2270   7.638   5.058   9.436 -0.1303  0.0437  0.1154
  142loPI   C3B 2271   7.580   5.137   8.979 -0.1575  0.3481  0.1589
  142loPI   C4B 2272   7.730   5.007   8.613 -0.1015  0.0792  0.1325
  143loPI    C1 2273   0.759   3.328  10.628 -0.1228 -0.0593 -0.4027
  143loPI    C2 2274   0.579   2.997  10.764 -0.0390 -0.0598 -0.2913
  143loPI    C3 2275   0.950   2.976  10.616  0.0207  0.0078 -0.1527
  143loPI   PO4 2276   0.663   3.399  10.481  0.0982 -0.3390 -0.2978
  143loPI   GL1 2277   0.548   3.608  10.149 -0.1012  0.1294  0.1818
  143loPI   GL2 2278   0.892   3.447   9.943  0.1732 -0.1587  0.1842
  143loPI   C1A 2279   0.525   3.521   9.626 -0.1964 -0.0087 -0.0120
  143loPI   C2A 2280   0.583   3.510   9.160  0.1404 -0.0139 -0.0535
  143loPI   C3A 2281   0.502   3.516   8.746 -0.0273 -0.1014  0.1527
  143loPI   C4A 2282   0.524   3.282   8.343 -0.1274  0.0364  0.2125
  143loPI   C5A 2283   0.173   3.117   8.092 -0.1481  0.1050  0.1771
  143loPI   C6A 2284  -0.203   2.804   7.915 -0.0635  0.0209  0.1917
  143loPI   C1B 2285   1.064   3.556   9.649 -0.1460 -0.1582  0.4342
  143loPI   C2B 2286   1.116   3.594   9.298 -0.0983 -0.0073  0.1506
  143loPI   C3B 2287   1.037   3.571   8.843  0.3075  0.1108 -0.0846
  143loPI   C4B 2288   0.936   3.784   8.528  0.2536 -0.0052 -0.1366
  144loPI    C1 2289  15.531  14.110  10.320 -0.1058  0.0064  0.0478
  144loPI    C2 2290  15.570  13.715  10.366 -0.3346  0.0134  0.3358
  144loPI    C3 2291  15.665  13.961  10.666 -0.0183  0.1924  0.0955
  144loPI   PO4 2292  15.599  14.148  10.184  0.1688  0.3267 -0.0201
  144loPI   GL1 2293  15.808  14.049   9.772 -0.4429 -0.2341 -0.0861
  144loPI   GL2 2294  15.573  13.792   9.811 -0.1042 -0.2593 -0.0389
  144loPI   C1A 2295  15.783  14.175   9.360  0.0571 -0.0065  0.0877
  144loPI   C2A 2296  15.871  13.946   9.076 -0.0471 -0.4128 -0.2934
  144loPI   C3A 2297  15.916  14.062   8.680 -0.3181  0.1962 -0.0722
  144loPI   C4A 2298  15.793  14.283   8.326 -0.0793  0.1782 -0.0723
  144loPI   C5A 2299  15.791  14.719   8.062  0.1911 -0.0937  0.0066
  144loPI   C6A 2300  15.627  15.001   7.686  0.1867 -0.1987  0.0810
  144loPI   C1B 2301  15.649  13.625   9.392  0.0888  0.2303  0.0460
  144loPI   C2B 2302  15.505  13.630   8.952 -0.1403 -0.1744  0.0304
  144loPI   C3B 2303  15.615  13.672   8.467  0.0067  0.1150  0.1186
  144loPI   C4B 2304  15.909  13.861   8.095  0.2015  0.1858 -0.2825
  145loPI    C1 2305   8.069  16.624  10.000 -0.0875 -0.2255 -0.0427
  145loPI    C2 2306   7.997  16.259  10.148 -0.1265 -0.1631  0.0933
  145loPI    C3 2307   8.056  16.568  10.396 -0.3669 -0.0231 -0.0205
  145loPI   PO4 2308   7.890  16.639   9.829 -0.1074  0.0872  0.0937
  145loPI   GL1 2309   7.885  16.893   9.437 -0.0557  0.2061 -0.2033
  145loPI   GL2 2310   7.984  16.589   9.308 -0.0360  0.2972  0.0210
  145loPI   C1A 2311   7.885  16.991   9.014  0.0075  0.0440  0.1165
  145loPI   C2A 2312   8.000  17.045   8.608  0.2671 -0.1530 -0.1890
  145loPI   C3A 2313   7.913  16.962   8.098 -0.1679 -0.4794  0.1151
  145loPI   C4A 2314   7.792  16.738   7.762  0.0391 -0.1684  0.1777
  145loPI   C5A 2315   7.490  16.414   7.736  0.1665  0.0459 -0.1168
  145loPI   C6A 2316   7.616  16.004   7.603  0.5683 -0.0283 -0.0006
  145loPI   C1B 2317   8.089  16.521   8.909 -0.1323  0.1526  0.2099
  145loPI   C2B 2318   8.085  16.608   8.375 -0.0758 -0.1311  0.0663
  145loPI   C3B 2319   8.403  16.914   8.249  0.1003 -0.3421  0.0172
  145loPI   C4B 2320   8.765  17.139   8.312 -0.2345  0.2561  0.0891
  146loPI    C1 2321  16.663   7.941  10.043 -0.1030 -0.1335 -0.0370
  146loPI    C2 2322  16.706   8.046  10.427 -0.1237 -0.2777  0.0052
  146loPI    C3 2323  16.977   7.809  10.252 -0.1385 -0.2496 -0.0565
  146loPI   PO4 2324  16.569   8.183   9.883 -0.3683 -0.1584  0.1016
  146loPI   GL1 2325  16.370   8.175   9.593 -0.1245  0.2700  0.0596
  146loPI   GL2 2326  16.562   7.881   9.468 -0.1763  0.0526  0.0906
  146loPI   C1A 2327  16.359   8.300   9.145  0.1073  0.0737 -0.2291
  146loPI   C2A 2328  16.171   8.448   8.763  0.2931  0.2164 -0.2505
  146loPI   C3A 2329  16.160   8.671   8.402  0.0967 -0.0259 -0.0427
  146loPI   C4A 2330  15.915   8.947   8.140  0.1899 -0.4604 -0.0024
  146loPI   C5A 2331  15.650   9.116   7.966  0.2697 -0.0621  0.1328
  146loPI   C6A 2332  15.513   8.978   7.580  0.1009 -0.0897  0.1916
  146loPI   C1B 2333  16.625   7.929   8.960  0.2806 -0.0486  0.2011
  146loPI   C2B 2334  16.554   8.036   8.567  0.2638 -0.1209  0.2686
  146loPI   C3B 2335  16.537   8.355   8.283 -0.3848  0.1006 -0.0661
  146loPI   C4B 2336  16.218   8.481   7.913  0.2862 -0.1522  0.3109
  147loPI    C1 2337  14.015   8.158  10.469  0.1471 -0.0204  0.0055
  147loPI    C2 2338  14.165   8.005  10.807  0.0442  0.1527  0.1309
  147loPI    C3 2339  13.770   8.005  10.746  0.0489  0.2951  0.0969
  147loPI   PO4 2340  14.333   8.264  10.355  0.0926  0.4596 -0.0994
  147loPI   GL1 2341  14.610   8.453  10.029 -0.2372  0.1303 -0.0418
  147loPI   GL2 2342  14.854   8.337   9.938 -0.3728 -0.0586  0.2340
  147loPI   C1A 2343  14.437   8.705   9.821  0.1267 -0.5435  0.0231
  147loPI   C2A 2344  14.051   8.949   9.682  0.2656 -0.0982 -0.0134
  147loPI   C3A 2345  13.899   9.050   9.288 -0.0711 -0.1142 -0.0330
  147loPI   C4A 2346  13.814   9.095   8.837 -0.0387  0.0443  0.0059
  147loPI   C5A 2347  13.690   9.317   8.496  0.3303  0.1955 -0.2608
  147loPI   C6A 2348  13.521   9.704   8.600 -0.4999  0.0682 -0.0342
  147loPI   C1B 2349  14.643   8.349   9.518 -0.0675 -0.1286 -0.1440
  147loPI   C2B 2350  14.653   8.509   9.131 -0.1053  0.1962  0.1440
  147loPI   C3B 2351  14.524   8.560   8.705 -0.0809 -0.0809  0.2162
  147loPI   C4B 2352  14.392   8.536   8.288  0.3814  0.1978 -0.2202
  148loPI    C1 2353  15.577  16.932  10.174 -0.0503  0.0846  0.0737
  148loPI    C2 2354  15.938  17.069  10.069 -0.0538 -0.1974 -0.3282
  148loPI    C3 2355  15.631  17.323  10.106  0.1001 -0.0052 -0.3542
  148loPI   PO4 2356  15.656  16.685   9.955  0.2177  0.3195 -0.0550
  148loPI   GL1 2357  15.957  16.750   9.634  0.0047  0.0248  0.0183
  148loPI   GL2 2358  16.270  16.757   9.787  0.2467 -0.0685  0.0352
  148loPI   C1A 2359  16.141  16.593   9.297 -0.0997 -0.0468  0.1477
  148loPI   C2A 2360  15.978  16.432   8.929 -0.0736  0.0764  0.0883
  148loPI   C3A 2361  15.849  16.227   8.645  0.0803  0.2021  0.0833
  148loPI   C4A 2362  15.827  16.315   8.211  0.2002 -0.2601 -0.0326
  148loPI   C5A 2363  15.783  16.491   7.808  0.0366 -0.2434  0.1896
  148loPI   C6A 2364  15.596  16.465   7.413  0.2302 -0.1059 -0.0119
  148loPI   C1B 2365  16.338  17.169   9.742 -0.3005 -0.4714  0.1956
  148loPI   C2B 2366  16.642  17.334   9.557 -0.1540 -0.2986 -0.0424
  148loPI   C3B 2367  16.825  17.443   9.248  0.2341  0.0132  0.3609
  148loPI   C4B 2368  16.501  17.401   8.948  0.0202  0.2776 -0.1981
  149loPI    C1 2369   9.934   1.174  10.445  0.0622 -0.2383  0.1780
  149loPI    C2 2370  10.295   1.323  10.535  0.0307 -0.1114  0.0972
  149loPI    C3 2371   9.970   1.454  10.729  0.0104 -0.1202  0.0694
  149loPI   PO4 2372   9.966   0.932  10.366  0.2750 -0.0346 -0.0419
  149loPI   GL1 2373   9.801   0.794  10.001  0.0775 -0.1187 -0.2368
  149loPI   GL2 2374   9.927   0.500   9.919  0.1541  0.1014  0.0110
  149loPI   C1A 2375   9.772   0.761   9.527 -0.0092 -0.3341 -0.0878
  149loPI   C2A 2376   9.624   0.695   9.080 -0.0635  0.1275  0.1403
  149loPI   C3A 2377   9.450   0.681   8.653 -0.0092  0.1159 -0.0760
  149loPI   C4A 2378   9.508   0.781   8.247  0.2773 -0.2005  0.1261
  149loPI   C5A 2379   9.747   1.005   7.967  0.0638  0.0457  0.0346
  149loPI   C6A 2380  10.202   0.955   7.929  0.1527  0.1278  0.0197
  149loPI   C1B 2381  10.143   0.390   9.544 -0.2435  0.1619 -0.0856
  149loPI   C2B 2382  10.213   0.226   9.155  0.3552 -0.1387  0.2822
  149loPI   C3B 2383  10.206   0.163   8.702 -0.0877 -0.0567  0.3038
  149loPI   C4B 2384   9.909   0.334   8.502 -0.2224 -0.0803  0.3955
  150loPI    C1 2385   3.661   4.110  10.547 -0.0885  0.0783 -0.1005
  150loPI    C2 2386   3.478   3.754  10.547  0.0247  0.0197 -0.0573
  150loPI    C3 2387   3.541   3.947  10.892 -0.0564  0.0923 -0.0827
  150loPI   PO4 2388   3.884   4.038  10.326 -0.0770  0.2367 -0.2720
  150loPI   GL1 2389   4.055   4.291  10.008 -0.0341  0.0160  0.1380
  150loPI   GL2 2390   3.759   4.275   9.881 -0.0714 -0.2157 -0.2160
  150loPI   C1A 2391   4.242   4.409   9.656 -0.0144  0.2426 -0.1276
  150loPI   C2A 2392   4.242   4.521   9.198 -0.1839 -0.1544  0.2077
  150loPI   C3A 2393   4.241   4.511   8.780 -0.0448  0.1448 -0.0021
  150loPI   C4A 2394   4.540   4.553   8.509 -0.1796 -0.2983 -0.1297
  150loPI   C5A 2395   4.541   4.768   8.063 -0.2197  0.2855  0.1007
  150loPI   C6A 2396   4.647   5.228   8.082 -0.0177 -0.1294 -0.1391
  150loPI   C1B 2397   3.805   4.171   9.488 -0.0805  0.0602 -0.0108
  150loPI   C2B 2398   3.952   4.184   8.963  0.0304 -0.0475 -0.1067
  150loPI   C3B 2399   4.035   4.038   8.490 -0.0128  0.0931  0.1657
  150loPI   C4B 2400   3.749   3.814   8.245 -0.1286 -0.2213  0.1698
  151loPI    C1 2401  10.514  17.322  10.616 -0.1075 -0.0419  0.1156
  151loPI    C2 2402  10.759  17.409  10.920 -0.3408  0.3380  0.2009
  151loPI    C3 2403  10.567  17.058  10.912  0.1253  0.0761  0.1816
  151loPI   PO4 2404  10.673  17.279  10.371  0.2114  0.0340  0.0979
  151loPI   GL1 2405  10.825  17.596  10.034  0.1464  0.1512  0.0770
  151loPI   GL2 2406  10.813  17.353   9.790 -0.0866 -0.0695  0.0156
  151loPI   C1A 2407  11.123  17.832   9.854 -0.2090  0.1538 -0.1476
  151loPI   C2A 2408  11.154  18.163   9.773 -0.1100 -0.0950  0.0771
  151loPI   C3A 2409  11.036  18.504   9.482 -0.2386 -0.3822  0.1431
  151loPI   C4A 2410  10.907  18.644   9.040 -0.1820  0.0531 -0.2076
  151loPI   C5A 2411  11.068  18.774   8.749 -0.1363 -0.1144  0.0399
  151loPI   C6A 2412  11.314  18.868   8.403 -0.0478  0.0936 -0.1758
  151loPI   C1B 2413  11.034  17.488   9.511 -0.0657 -0.1086  0.0093
  151loPI   C2B 2414  10.913  17.447   9.003  0.0746  0.3496 -0.0391
  151loPI   C3B 2415  10.540  17.346   8.694 -0.1546  0.0587 -0.0116
  151loPI   C4B 2416  10.463  17.498   8.308 -0.2077 -0.0805  0.1751
  152loPI    C1 2417   6.030  17.190  10.160 -0.1552 -0.0022  0.0951
  152loPI    C2 2418   6.038  17.074  10.543 -0.1975 -0.2451  0.0242
  152loPI    C3 2419   5.814  16.875  10.279 -0.2807  0.0090 -0.1004
  152loPI   PO4 2420   6.324  17.179  10.130  0.2228 -0.0637 -0.2077
  152loPI   GL1 2421   6.641  17.368   9.775  0.3609 -0.4121  0.0791
  152loPI   GL2 2422   7.014  17.204   9.682  0.1894  0.1773 -0.1055
  152loPI   C1A 2423   7.018  17.689   9.696 -0.4976 -0.0428 -0.0581
  152loPI   C2A 2424   7.320  17.744   9.382  0.0929 -0.1873  0.0217
  152loPI   C3A 2425   7.397  17.755   8.895 -0.2281 -0.0248  0.0173
  152loPI   C4A 2426   7.329  17.795   8.502  0.3855  0.0746 -0.1394
  152loPI   C5A 2427   7.212  18.161   8.261 -0.0378  0.0357  0.1260
  152loPI   C6A 2428   7.096  18.529   8.045  0.0769 -0.3815  0.1276
  152loPI   C1B 2429   6.999  17.304   9.281  0.1004 -0.0944 -0.0182
  152loPI   C2B 2430   7.046  17.402   8.839  0.2995 -0.1225 -0.0598
  152loPI   C3B 2431   7.017  17.305   8.393  0.0227 -0.2645  0.0447
  152loPI   C4B 2432   7.101  17.023   8.080 -0.1453  0.2768 -0.1172
  153loPI    C1 2433   7.765   4.173  10.177 -0.0930 -0.0277 -0.1845
  153loPI    C2 2434   7.947   3.998  10.487 -0.0805 -0.0179 -0.1864
  153loPI    C3 2435   7.974   3.836  10.122  0.0930  0.0932 -0.2240
  153loPI   PO4 2436   7.863   4.495  10.006  0.1781  0.2310 -0.2669
  153loPI   GL1 2437   8.087   4.530   9.669  0.3171 -0.3218 -0.0784
  153loPI   GL2 2438   7.945   4.127   9.687  0.1790  0.0275  0.1644
  153loPI   C1A 2439   8.051   4.815   9.253 -0.1636 -0.1425 -0.4224
  153loPI   C2A 2440   8.157   4.703   8.898 -0.0464  0.3017  0.1026
  153loPI   C3A 2441   7.950   4.579   8.590  0.0922  0.2983  0.1041
  153loPI   C4A 2442   7.767   4.638   8.264  0.1604  0.0600  0.1241
  153loPI   C5A 2443   7.763   5.008   8.037 -0.2452  0.0144  0.1922
  153loPI   C6A 2444   7.614   5.399   8.019 -0.0556  0.2254  0.1002
  153loPI   C1B 2445   7.983   4.124   9.233  0.0377  0.1360 -0.0315
  153loPI   C2B 2446   8.178   4.190   8.879 -0.0727  0.0595  0.1861
  153loPI   C3B 2447   8.256   4.181   8.422  0.2305 -0.0326 -0.0537
  153loPI   C4B 2448   8.166   4.368   8.069 -0.0003  0.0090 -0.0809
  154loPI    C1 2449   8.002  11.773  10.013  0.1262 -0.1850 -0.0866
  154loPI    C2 2450   8.069  11.998  10.336  0.4237 -0.1210 -0.1897
  154loPI    C3 2451   8.113  11.601  10.356  0.1589 -0.1469 -0.0780
  154loPI   PO4 2452   7.659  11.919   9.883  0.0496  0.0532  0.5717
  154loPI   GL1 2453   7.574  11.892   9.426 -0.0461  0.0365  0.2106
  154loPI   GL2 2454   7.705  12.135   9.240  0.1538  0.3212  0.0888
  154loPI   C1A 2455   7.207  11.982   9.059  0.0154  0.0742  0.2642
  154loPI   C2A 2456   7.077  12.188   8.632  0.2207 -0.3987  0.0601
  154loPI   C3A 2457   7.208  12.132   8.160  0.1022  0.1660 -0.0570
  154loPI   C4A 2458   7.202  12.188   7.739  0.3831 -0.0452 -0.2522
  154loPI   C5A 2459   7.083  11.811   7.439  0.1010  0.0130 -0.0280
  154loPI   C6A 2460   7.007  11.424   7.264  0.0008  0.1297  0.0215
  154loPI   C1B 2461   7.668  12.108   8.754  0.4394 -0.2993  0.0197
  154loPI   C2B 2462   7.774  12.155   8.368  0.1946 -0.0744 -0.4196
  154loPI   C3B 2463   7.705  12.136   7.877  0.3419 -0.0588 -0.1592
  154loPI   C4B 2464   7.500  11.831   7.685  0.0364 -0.0768  0.1716
  155loPI    C1 2465   5.566   8.273  10.338 -0.1943  0.2203  0.1850
  155loPI    C2 2466   5.328   7.964  10.251 -0.1242  0.2532 -0.1369
  155loPI    C3 2467   5.171   8.304  10.390 -0.2405  0.1969 -0.1294
  155loPI   PO4 2468   5.772   8.224  10.092  0.2643  0.1075 -0.1544
  155loPI   GL1 2469   5.975   8.299   9.705 -0.0984 -0.1764 -0.0017
  155loPI   GL2 2470   5.963   8.024   9.594 -0.1485 -0.2627 -0.0699
  155loPI   C1A 2471   6.113   8.390   9.248  0.1974 -0.0205  0.1376
  155loPI   C2A 2472   6.003   8.421   8.823  0.0734  0.0389 -0.3134
  155loPI   C3A 2473   6.053   8.248   8.388 -0.2700 -0.1464 -0.1531
  155loPI   C4A 2474   5.889   8.169   7.964  0.1087 -0.2769 -0.0334
  155loPI   C5A 2475   5.642   7.998   7.635 -0.2182 -0.1566 -0.1058
  155loPI   C6A 2476   5.233   8.174   7.482 -0.1017 -0.0108 -0.0051
  155loPI   C1B 2477   5.832   7.967   9.185  0.1759 -0.0404 -0.0440
  155loPI   C2B 2478   5.777   7.951   8.813  0.3271  0.0823 -0.1355
  155loPI   C3B 2479   5.543   8.224   8.455  0.2091 -0.2131 -0.0306
  155loPI   C4B 2480   5.371   8.279   8.026 -0.1752  0.3500  0.4824
  156loPI    C1 2481  17.200   6.806  10.060  0.0602  0.3540  0.1306
  156loPI    C2 2482  16.950   7.115  10.109 -0.3894  0.0026  0.1202
  156loPI    C3 2483  16.921   6.795  10.347 -0.0376 -0.1045  0.0253
  156loPI   PO4 2484  17.484   7.059   9.990 -0.1990 -0.1609 -0.1835
  156loPI   GL1 2485  17.608   6.967   9.543  0.2311  0.0740  0.1246
  156loPI   GL2 2486  17.516   7.305   9.523  0.2071  0.0751 -0.1945
  156loPI   C1A 2487  17.695   6.950   9.188  0.0372  0.2023 -0.5256
  156loPI   C2A 2488  17.822   7.061   8.722  0.2221  0.0277 -0.2635
  156loPI   C3A 2489  17.899   7.056   8.341  0.0318  0.0458  0.1485
  156loPI   C4A 2490  17.919   7.422   7.969 -0.0261 -0.2378  0.0426
  156loPI   C5A 2491  17.789   7.767   7.772  0.2849  0.1028 -0.3486
  156loPI   C6A 2492  17.728   8.138   7.913  0.0547  0.1221 -0.0880
  156loPI   C1B 2493  17.578   7.407   9.099  0.1393 -0.3828 -0.0299
  156loPI   C2B 2494  17.313   7.368   8.647 -0.3596 -0.1300  0.0666
  156loPI   C3B 2495  17.440   7.151   8.269  0.0610  0.1101 -0.0451
  156loPI   C4B 2496  17.563   6.796   7.957  0.1628  0.0166 -0.0875
  157loPI    C1 2497  13.302   6.916  10.395 -0.1264  0.2330 -0.2114
  157loPI    C2 2498  12.931   6.802  10.297 -0.1323 -0.0616  0.1324
  157loPI    C3 2499  13.237   6.549  10.248 -0.0105  0.0957  0.0719
  157loPI   PO4 2500  13.203   7.192  10.387  0.2823 -0.1329 -0.0577
  157loPI   GL1 2501  13.085   7.234   9.966 -0.2007  0.1246 -0.0670
  157loPI   GL2 2502  12.895   7.570   9.882 -0.1785 -0.3067 -0.4041
  157loPI   C1A 2503  13.078   7.159   9.671 -0.3603 -0.1363 -0.0291
  157loPI   C2A 2504  12.933   6.969   9.341 -0.0102  0.1278  0.1262
  157loPI   C3A 2505  12.991   7.007   8.876 -0.3041 -0.1197  0.0677
  157loPI   C4A 2506  13.287   6.941   8.546 -0.0476  0.1809  0.2940
  157loPI   C5A 2507  13.576   6.824   8.174 -0.2257  0.1525  0.3309
  157loPI   C6A 2508  13.918   6.507   8.150  0.1407  0.3324  0.0337
  157loPI   C1B 2509  13.196   7.764   9.624 -0.1969 -0.2408 -0.1977
  157loPI   C2B 2510  13.212   7.856   9.196  0.0004 -0.0418 -0.1696
  157loPI   C3B 2511  13.250   7.840   8.744  0.2616  0.0133  0.1456
  157loPI   C4B 2512  13.063   7.901   8.376  0.2204 -0.4836  0.1530
  158loPI    C1 2513   1.270   8.267  10.261  0.0388 -0.2815  0.0657
  158loPI    C2 2514   0.957   8.184  10.027 -0.1588  0.0267  0.2140
  158loPI    C3 2515   1.157   7.888  10.206 -0.0720 -0.2062 -0.2511
  158loPI   PO4 2516   1.398   8.459  10.063 -0.0082  0.0506  0.0489
  158loPI   GL1 2517   1.566   8.529   9.620 -0.1115  0.0192 -0.1535
  158loPI   GL2 2518   1.804   8.724   9.605  0.0757  0.2520  0.1831
  158loPI   C1A 2519   1.533   8.652   9.168 -0.0826  0.2396  0.2771
  158loPI   C2A 2520   1.543   8.621   8.702 -0.1069  0.1777  0.0014
  158loPI   C3A 2521   1.396   8.696   8.413  0.0256  0.2086  0.2916
  158loPI   C4A 2522   1.321   8.571   8.014 -0.1157 -0.3308 -0.0802
  158loPI   C5A 2523   1.277   8.762   7.559 -0.0821 -0.0575  0.0424
  158loPI   C6A 2524   1.286   8.615   7.162  0.1268  0.1826  0.2310
  158loPI   C1B 2525   2.060   8.527   9.261  0.1581 -0.1302  0.0192
  158loPI   C2B 2526   2.135   8.577   8.806  0.1017 -0.0178  0.2325
  158loPI   C3B 2527   1.929   8.461   8.385 -0.1247  0.2027  0.0379
  158loPI   C4B 2528   1.842   8.360   7.924 -0.1050  0.2919 -0.0283
  159loPI    C1 2529   6.006  18.050  10.463  0.0637  0.1313 -0.1050
  159loPI    C2 2530   6.194  18.399  10.514 -0.0908  0.2127 -0.0880
  159loPI    C3 2531   5.849  18.328  10.704  0.0267 -0.0162  0.0438
  159loPI   PO4 2532   5.870  18.066  10.203  0.0457  0.0540  0.0047
  159loPI   GL1 2533   5.909  18.226   9.802  0.0303 -0.1738  0.0475
  159loPI   GL2 2534   6.022  17.951   9.718 -0.0934  0.2589  0.1780
  159loPI   C1A 2535   5.549  18.285   9.547  0.1896  0.0818  0.2996
  159loPI   C2A 2536   5.282  18.370   9.200  0.1942 -0.0353 -0.1120
  159loPI   C3A 2537   4.999  18.400   8.876 -0.1595 -0.1122 -0.0850
  159loPI   C4A 2538   4.797  18.556   8.486 -0.3212 -0.0049  0.1039
  159loPI   C5A 2539   5.034  18.547   8.123  0.2451 -0.0514 -0.1784
  159loPI   C6A 2540   5.358  18.608   8.009  0.0871 -0.0650 -0.0926
  159loPI   C1B 2541   5.878  17.963   9.334 -0.1679  0.1935  0.2223
  159loPI   C2B 2542   5.923  17.953   8.941  0.0406  0.1196 -0.1951
  159loPI   C3B 2543   6.082  17.977   8.622  0.1856  0.2474  0.0387
  159loPI   C4B 2544   6.087  17.920   8.225  0.1535  0.1512  0.1734
  160loPI    C1 2545   4.291  17.701  10.612  0.0961  0.0309 -0.1539
  160loPI    C2 2546   4.043  17.909  10.847  0.1582 -0.2453  0.1640
  160loPI    C3 2547   4.425  17.860  10.954  0.2275 -0.2424 -0.0753
  160loPI   PO4 2548   4.100  17.678  10.370 -0.2349 -0.1625 -0.0730
  160loPI   GL1 2549   4.020  17.772   9.982  0.2523  0.3379 -0.1548
  160loPI   GL2 2550   3.768  17.594   9.851  0.2189  0.0606  0.1341
  160loPI   C1A 2551   3.907  17.936   9.574  0.0402  0.2959 -0.0094
  160loPI   C2A 2552   3.829  18.078   9.164 -0.1986 -0.2445  0.3534
  160loPI   C3A 2553   3.848  18.173   8.688 -0.0843 -0.2262 -0.0201
  160loPI   C4A 2554   3.887  18.329   8.321 -0.0670 -0.0953  0.1587
  160loPI   C5A 2555   4.249  18.431   8.240 -0.1471  0.2144  0.0172
  160loPI   C6A 2556   4.653  18.188   8.190 -0.0560 -0.2092  0.0504
  160loPI   C1B 2557   3.851  17.464   9.463 -0.1559 -0.2786 -0.3832
  160loPI   C2B 2558   4.071  17.596   9.065 -0.0063  0.0363 -0.0092
  160loPI   C3B 2559   4.357  17.807   8.866  0.0609 -0.2904 -0.1520
  160loPI   C4B 2560   4.588  18.130   8.677 -0.1175 -0.2044 -0.0508
  161loPI    C1 2561   1.378   9.386   9.884  0.0653  0.1460 -0.0694
  161loPI    C2 2562   1.166   9.186   9.610  0.0204 -0.0484  0.1042
  161loPI    C3 2563   1.439   8.994   9.830  0.0815  0.1139  0.1713
  161loPI   PO4 2564   1.337   9.671   9.853  0.0532 -0.1064 -0.1629
  161loPI   GL1 2565   1.137   9.975   9.482  0.0987 -0.1654 -0.0772
  161loPI   GL2 2566   1.213  10.306   9.361  0.1062 -0.1040  0.1022
  161loPI   C1A 2567   1.242   9.719   9.043  0.1089 -0.1697  0.2069
  161loPI   C2A 2568   1.216   9.778   8.621 -0.0035  0.0559  0.1049
  161loPI   C3A 2569   1.318   9.679   8.241 -0.0243  0.2493  0.0318
  161loPI   C4A 2570   1.271   9.596   7.801 -0.3651  0.2018 -0.2437
  161loPI   C5A 2571   1.046   9.767   7.490  0.0660  0.3417 -0.1998
  161loPI   C6A 2572   0.703   9.966   7.261 -0.0418  0.3116  0.4844
  161loPI   C1B 2573   1.220  10.299   8.913  0.1377  0.0064 -0.0276
  161loPI   C2B 2574   1.184  10.241   8.472  0.1483  0.2039  0.2786
  161loPI   C3B 2575   1.023  10.394   8.137 -0.0660  0.1071 -0.0771
  161loPI   C4B 2576   0.847  10.264   7.657 -0.2317 -0.2774  0.0758
  162loPI    C1 2577   0.903   3.794  10.682  0.2188  0.1027  0.1052
  162loPI    C2 2578   0.932   4.157  10.848  0.3709  0.1068  0.0721
  162loPI    C3 2579   1.045   3.833  11.054 -0.0377  0.0456  0.2112
  162loPI   PO4 2580   0.736   3.868  10.501  0.0207  0.1905 -0.1115
  162loPI   GL1 2581   0.391   4.121  10.207 -0.1394 -0.0211 -0.0313
  162loPI   GL2 2582   0.122   3.973  10.055 -0.1512  0.0454 -0.0631
  162loPI   C1A 2583   0.461   4.411   9.856 -0.1240 -0.2686  0.0385
  162loPI   C2A 2584   0.324   4.439   9.512 -0.0217 -0.1199  0.0070
  162loPI   C3A 2585   0.311   4.344   9.091 -0.1106  0.1385 -0.0972
  162loPI   C4A 2586   0.457   4.476   8.763  0.1185  0.0990  0.1435
  162loPI   C5A 2587   0.305   4.541   8.322  0.0911  0.1500  0.0822
  162loPI   C6A 2588   0.489   4.717   7.924  0.0643  0.0115  0.1716
  162loPI   C1B 2589   0.276   3.887   9.762  0.1273 -0.0810  0.0285
  162loPI   C2B 2590   0.209   3.914   9.380  0.2273  0.0068  0.1666
  162loPI   C3B 2591   0.140   3.856   8.957  0.1845 -0.1397  0.0291
  162loPI   C4B 2592   0.010   3.823   8.597 -0.0494 -0.0449 -0.2915
  163loPI    C1 2593  12.265   7.967  10.467  0.0919  0.0918  0.1043
  163loPI    C2 2594  12.511   7.957  10.782 -0.1182  0.1264  0.2724
  163loPI    C3 2595  12.156   7.774  10.800 -0.0997  0.0621  0.0257
  163loPI   PO4 2596  12.353   8.257  10.357  0.0637  0.0776 -0.0265
  163loPI   GL1 2597  12.287   8.639  10.018 -0.3144 -0.0073 -0.1802
  163loPI   GL2 2598  12.493   8.651   9.972  0.3153 -0.1005 -0.1226
  163loPI   C1A 2599  12.210   8.273   9.694  0.1690  0.0400  0.0959
  163loPI   C2A 2600  12.220   8.141   9.262 -0.5377 -0.2061 -0.2328
  163loPI   C3A 2601  12.277   8.199   8.854 -0.1910  0.3506  0.4918
  163loPI   C4A 2602  12.213   8.324   8.468 -0.1869  0.0593 -0.2649
  163loPI   C5A 2603  12.439   8.581   8.210  0.2287  0.1236 -0.0990
  163loPI   C6A 2604  12.665   8.966   8.081 -0.1304 -0.1092  0.0306
  163loPI   C1B 2605  12.536   8.640   9.559 -0.0057 -0.1232 -0.3881
  163loPI   C2B 2606  12.608   8.490   9.201 -0.0163 -0.0156 -0.2557
  163loPI   C3B 2607  12.631   8.620   8.869  0.0285  0.2034  0.1494
  163loPI   C4B 2608  12.541   8.888   8.547  0.3247  0.1221 -0.1380
  164loPI    C1 2609   7.612  17.827  10.698 -0.3270  0.0679  0.3371
  164loPI    C2 2610   7.966  17.771  10.875 -0.1397  0.2582  0.0312
  164loPI    C3 2611   7.682  17.492  10.905  0.1266 -0.0142  0.0644
  164loPI   PO4 2612   7.679  17.899  10.451  0.0512  0.1800 -0.0106
  164loPI   GL1 2613   7.623  17.641  10.031  0.0955 -0.1570  0.0808
  164loPI   GL2 2614   7.521  17.417   9.844  0.0605 -0.1857 -0.0392
  164loPI   C1A 2615   7.983  17.796   9.864 -0.1446  0.0376 -0.3761
  164loPI   C2A 2616   8.316  17.793   9.485 -0.1760  0.0949 -0.2938
  164loPI   C3A 2617   8.273  17.918   9.045 -0.2031  0.0097  0.2680
  164loPI   C4A 2618   8.230  17.866   8.604  0.0006 -0.2318  0.0111
  164loPI   C5A 2619   8.342  18.056   8.166 -0.1211 -0.0049 -0.0676
  164loPI   C6A 2620   8.507  18.275   7.815 -0.1330  0.1043  0.0409
  164loPI   C1B 2621   7.729  17.443   9.463 -0.1851  0.0086 -0.4717
  164loPI   C2B 2622   7.853  17.824   9.196 -0.2895 -0.0768 -0.0842
  164loPI   C3B 2623   7.838  18.056   8.814  0.0339 -0.0023  0.0137
  164loPI   C4B 2624   7.759  18.086   8.320  0.0385  0.1291  0.1166
  165loPI    C1 2625   9.860  16.707  10.440  0.0909 -0.2953  0.0194
  165loPI    C2 2626  10.043  16.519  10.742  0.1805  0.0499  0.1850
  165loPI    C3 2627  10.075  16.916  10.705 -0.4388  0.1055  0.1498
  165loPI   PO4 2628  10.050  16.558  10.229 -0.0684 -0.3482  0.1258
  165loPI   GL1 2629  10.396  16.692   9.955 -0.1079  0.1444 -0.0210
  165loPI   GL2 2630  10.635  16.921   9.938 -0.0098  0.2207 -0.3467
  165loPI   C1A 2631  10.463  16.619   9.496  0.1086 -0.0046 -0.0181
  165loPI   C2A 2632  10.388  16.579   9.055 -0.1758 -0.1151 -0.4991
  165loPI   C3A 2633  10.239  16.349   8.665  0.0776  0.0432  0.0194
  165loPI   C4A 2634  10.151  16.235   8.231 -0.3010  0.2784 -0.0219
  165loPI   C5A 2635   9.957  16.465   7.899  0.0998 -0.0937 -0.2552
  165loPI   C6A 2636   9.820  16.191   7.498  0.0343 -0.1520  0.2795
  165loPI   C1B 2637  10.394  17.102   9.614  0.0196  0.3995 -0.1315
  165loPI   C2B 2638  10.432  17.361   9.285 -0.4638 -0.1634  0.3712
  165loPI   C3B 2639  10.511  17.749   9.041  0.0980 -0.2622  0.1644
  165loPI   C4B 2640  10.795  17.864   8.750  0.3281  0.0800 -0.0151
  166loPI    C1 2641   8.461  10.452  10.079  0.0068  0.1556 -0.2047
  166loPI    C2 2642   8.439  10.635  10.434  0.0640  0.0934 -0.1690
  166loPI    C3 2643   8.250  10.287  10.376 -0.0375  0.1591 -0.2342
  166loPI   PO4 2644   8.735  10.457   9.941  0.1497 -0.1505 -0.0770
  166loPI   GL1 2645   9.053  10.506   9.611 -0.0377  0.1790 -0.4213
  166loPI   GL2 2646   8.715  10.711   9.481 -0.5048 -0.1683  0.4283
  166loPI   C1A 2647   8.881  10.259   9.147 -0.1159 -0.0117 -0.1205
  166loPI   C2A 2648   8.770   9.991   8.830 -0.2357  0.0351 -0.1635
  166loPI   C3A 2649   8.503   9.754   8.509  0.0710  0.0842 -0.0242
  166loPI   C4A 2650   8.620   9.819   8.109  0.1778 -0.1871  0.1676
  166loPI   C5A 2651   8.996   9.705   7.902 -0.2925  0.4083  0.0836
  166loPI   C6A 2652   9.366   9.568   7.927 -0.1235  0.3836  0.0920
  166loPI   C1B 2653   9.087  10.775   9.211  0.1416 -0.0943  0.3262
  166loPI   C2B 2654   8.965  10.698   8.884  0.0235  0.2254 -0.1635
  166loPI   C3B 2655   9.039  10.754   8.594 -0.0451  0.0114  0.1451
  166loPI   C4B 2656   9.076  10.594   8.204  0.1538  0.2351 -0.0015
  167loPI    C1 2657  10.448   5.432  10.618  0.2396  0.3284 -0.0731
  167loPI    C2 2658  10.185   5.616  10.856  0.2086  0.0075  0.1485
  167loPI    C3 2659  10.140   5.228  10.772  0.0277  0.1840 -0.6611
  167loPI   PO4 2660  10.405   5.546  10.443  0.0769  0.0967 -0.4908
  167loPI   GL1 2661  10.334   5.662   9.979  0.2878  0.0171  0.1317
  167loPI   GL2 2662  10.067   5.780   9.885  0.0315  0.2337 -0.1068
  167loPI   C1A 2663  10.433   5.429   9.619 -0.2573  0.0560 -0.2047
  167loPI   C2A 2664  10.427   5.494   9.291  0.1084  0.0127  0.4349
  167loPI   C3A 2665  10.393   5.428   8.918 -0.0248 -0.0168  0.1275
  167loPI   C4A 2666  10.286   5.582   8.487  0.3079  0.1396 -0.0506
  167loPI   C5A 2667  10.030   5.627   8.125 -0.3080 -0.4455  0.0152
  167loPI   C6A 2668   9.747   6.065   8.039  0.0126 -0.0667  0.1068
  167loPI   C1B 2669  10.091   5.863   9.434 -0.0282 -0.1972 -0.0153
  167loPI   C2B 2670  10.201   5.911   9.038 -0.0371  0.0459 -0.2864
  167loPI   C3B 2671  10.133   6.053   8.648  0.0496  0.0490  0.0523
  167loPI   C4B 2672  10.254   6.070   8.200 -0.0898 -0.1836 -0.0509
  168loPI    C1 2673  18.227  13.738  10.510 -0.1047  0.0654  0.0356
  168loPI    C2 2674  18.428  13.621  10.835 -0.2127 -0.1240  0.0358
  168loPI    C3 2675  18.050  13.502  10.780 -0.2362  0.0095 -0.0978
  168loPI   PO4 2676  18.295  13.708  10.324  0.0552  0.1017  0.0391
  168loPI   GL1 2677  18.329  13.812   9.854 -0.1514 -0.1249  0.1509
  168loPI   GL2 2678  18.505  13.600   9.860  0.0081  0.0753 -0.0651
  168loPI   C1A 2679  18.320  13.985   9.555 -0.1643 -0.0175  0.1838
  168loPI   C2A 2680  18.362  14.017   9.157  0.0019 -0.1193  0.1637
  168loPI   C3A 2681  18.465  13.972   8.676 -0.1352 -0.2934  0.2486
  168loPI   C4A 2682  18.519  13.922   8.126 -0.0665 -0.2327 -0.4697
  168loPI   C5A 2683  18.526  13.670   7.729 -0.0513 -0.1047  0.1325
  168loPI   C6A 2684  18.811  13.576   7.509 -0.0193  0.3593  0.3893
  168loPI   C1B 2685  18.544  13.513   9.465 -0.3226  0.1240  0.2956
  168loPI   C2B 2686  18.575  13.519   8.976 -0.2478  0.1738 -0.1833
  168loPI   C3B 2687  18.615  13.484   8.519 -0.2996 -0.1721 -0.3240
  168loPI   C4B 2688  18.837  13.481   8.194 -0.0729 -0.1985 -0.1458
  169loPI    C1 2689   9.856  13.812   9.619  0.1692  0.0456  0.0227
  169loPI    C2 2690  10.082  13.902   9.937  0.3349 -0.0391 -0.0699
  169loPI    C3 2691   9.716  14.059   9.901  0.3248 -0.0092  0.1498
  169loPI   PO4 2692  10.000  13.777   9.421 -0.0939  0.1774  0.0439
  169loPI   GL1 2693  10.233  13.772   9.202  0.2869  0.2414  0.0385
  169loPI   GL2 2694  10.137  13.381   9.234 -0.4091  0.0199  0.1474
  169loPI   C1A 2695  10.159  13.907   8.782 -0.0556  0.1768  0.3323
  169loPI   C2A 2696  10.213  13.854   8.432 -0.4421  0.2502 -0.0925
  169loPI   C3A 2697  10.266  14.050   8.087 -0.1243 -0.1055  0.1653
  169loPI   C4A 2698  10.230  14.247   7.719 -0.1061 -0.1148  0.0063
  169loPI   C5A 2699  10.229  14.528   7.424 -0.2377 -0.0850  0.1649
  169loPI   C6A 2700  10.304  14.820   7.118 -0.0084 -0.0548  0.2903
  169loPI   C1B 2701  10.131  13.436   8.819  0.0340 -0.0515  0.0795
  169loPI   C2B 2702  10.327  13.351   8.474  0.1180  0.0021  0.3168
  169loPI   C3B 2703  10.344  13.393   8.024  0.1473 -0.1577 -0.2316
  169loPI   C4B 2704  10.182  13.222   7.553  0.1467 -0.1554 -0.0929
  170loPI    C1 2705   3.580   7.749   9.894 -0.0481 -0.0068  0.2619
  170loPI    C2 2706   3.269   7.905  10.090 -0.0485  0.0803  0.1923
  170loPI    C3 2707   3.633   7.913  10.255 -0.0990 -0.1100  0.3168
  170loPI   PO4 2708   3.507   7.509   9.753 -0.0423  0.1052  0.0985
  170loPI   GL1 2709   3.600   7.360   9.432 -0.1337  0.5180  0.2244
  170loPI   GL2 2710   3.692   7.630   9.243  0.0566 -0.2679 -0.3217
  170loPI   C1A 2711   3.790   7.141   9.026  0.0155 -0.0367 -0.0436
  170loPI   C2A 2712   3.780   7.136   8.513 -0.0373  0.2889  0.1729
  170loPI   C3A 2713   3.910   7.167   8.023  0.0874  0.2386 -0.2153
  170loPI   C4A 2714   4.000   7.520   7.811 -0.5434 -0.3214 -0.3365
  170loPI   C5A 2715   3.763   7.903   7.606  0.3015 -0.1321  0.0466
  170loPI   C6A 2716   3.513   8.100   7.491  0.0752 -0.2011 -0.0565
  170loPI   C1B 2717   3.803   7.763   8.875  0.0884 -0.2452 -0.0142
  170loPI   C2B 2718   3.567   7.919   8.493 -0.3721  0.1623 -0.1703
  170loPI   C3B 2719   3.512   7.994   7.991  0.0439 -0.1866 -0.0070
  170loPI   C4B 2720   3.505   8.450   7.879 -0.1210 -0.1150 -0.3719
  171loPI    C1 2721   4.996   2.627  11.126  0.0748 -0.1010 -0.0135
  171loPI    C2 2722   4.859   2.857  11.423 -0.0903 -0.1719 -0.0336
  171loPI    C3 2723   5.198   2.649  11.470  0.1639  0.2214 -0.0833
  171loPI   PO4 2724   4.849   2.733  10.912  0.0046  0.1195  0.2208
  171loPI   GL1 2725   5.030   2.827  10.528  0.0409 -0.1320 -0.1613
  171loPI   GL2 2726   4.959   2.544  10.304 -0.3166 -0.0566  0.1318
  171loPI   C1A 2727   4.929   3.127  10.159 -0.4021  0.0525  0.0601
  171loPI   C2A 2728   4.863   3.503   9.872 -0.0508 -0.1814  0.0420
  171loPI   C3A 2729   4.804   3.492   9.427 -0.1502 -0.1671  0.0891
  171loPI   C4A 2730   4.791   3.614   8.929  0.0223 -0.2974 -0.2655
  171loPI   C5A 2731   5.082   3.665   8.664 -0.1369 -0.1016 -0.1041
  171loPI   C6A 2732   5.333   3.418   8.447 -0.0284 -0.2899 -0.1494
  171loPI   C1B 2733   4.763   2.349  10.059 -0.3918 -0.0636  0.1540
  171loPI   C2B 2734   4.711   2.489   9.595  0.1802 -0.1025 -0.0817
  171loPI   C3B 2735   4.786   2.478   9.091  0.1352  0.3938 -0.0957
  171loPI   C4B 2736   4.579   2.723   8.713 -0.2957  0.0558  0.2917
  172loPI    C1 2737  11.033  14.397  10.330 -0.0932 -0.1197 -0.0738
  172loPI    C2 2738  11.263  14.130  10.519  0.0740  0.1452  0.1041
  172loPI    C3 2739  10.962  14.307  10.714 -0.1771 -0.0733 -0.0780
  172loPI   PO4 2740  11.265  14.530  10.072  0.1255 -0.0885 -0.2839
  172loPI   GL1 2741  11.207  14.591   9.687 -0.0354  0.3106  0.0626
  172loPI   GL2 2742  10.849  14.597   9.472 -0.0552  0.0881 -0.0591
  172loPI   C1A 2743  11.436  14.641   9.349  0.1982 -0.1180  0.0886
  172loPI   C2A 2744  11.397  14.666   8.936  0.0593  0.0881  0.0255
  172loPI   C3A 2745  11.477  14.830   8.559 -0.0308  0.0568 -0.1034
  172loPI   C4A 2746  11.603  14.903   8.151 -0.0218  0.1734  0.2632
  172loPI   C5A 2747  11.636  14.983   7.762 -0.0352  0.1834  0.1193
  172loPI   C6A 2748  12.009  15.140   7.704  0.1728  0.0630  0.0677
  172loPI   C1B 2749  10.895  14.562   9.106 -0.3084 -0.1713 -0.1196
  172loPI   C2B 2750  11.002  14.555   8.586 -0.0835  0.0478 -0.1150
  172loPI   C3B 2751  11.087  14.584   8.136  0.3072 -0.0971 -0.1447
  172loPI   C4B 2752  11.166  14.202   7.775  0.0171  0.1866 -0.4459
  173loPI    C1 2753  10.745   1.375  10.615 -0.0978 -0.1548  0.1139
  173loPI    C2 2754  10.541   1.663  10.804 -0.0737 -0.1127  0.0758
  173loPI    C3 2755  10.542   1.290  10.949  0.1125 -0.0371  0.2735
  173loPI   PO4 2756  10.808   1.408  10.403  0.1142  0.0238  0.0898
  173loPI   GL1 2757  10.740   1.498   9.924  0.0379 -0.0241 -0.0140
  173loPI   GL2 2758  11.015   1.710  10.072  0.2207  0.0094  0.0266
  173loPI   C1A 2759  10.710   1.548   9.458  0.0173  0.1335  0.0660
  173loPI   C2A 2760  10.917   1.552   9.088 -0.0290 -0.3876  0.0719
  173loPI   C3A 2761  10.761   1.476   8.538 -0.0897  0.2634  0.1991
  173loPI   C4A 2762  10.803   1.385   8.034  0.1983  0.0804  0.0103
  173loPI   C5A 2763  10.826   1.003   7.962 -0.3377  0.2155 -0.1555
  173loPI   C6A 2764  10.842   0.704   8.223  0.0319  0.2014 -0.1674
  173loPI   C1B 2765  11.235   1.459   9.748  0.1644 -0.0975  0.0946
  173loPI   C2B 2766  11.250   1.284   9.313  0.0709  0.0649 -0.0491
  173loPI   C3B 2767  11.189   1.219   8.835  0.0766 -0.0694  0.1303
  173loPI   C4B 2768  11.190   1.137   8.374 -0.0881  0.0034  0.1788
  174loPI    C1 2769   7.368  13.632   9.667  0.0933 -0.1304  0.0236
  174loPI    C2 2770   7.371  13.712  10.059  0.1929 -0.2809  0.0543
  174loPI    C3 2771   7.651  13.869   9.820 -0.0474  0.0622 -0.0099
  174loPI   PO4 2772   7.059  13.586   9.651 -0.0598  0.1741 -0.0275
  174loPI   GL1 2773   6.746  13.921   9.599 -0.2718 -0.0453 -0.1476
  174loPI   GL2 2774   6.819  14.205   9.464  0.0347 -0.0796 -0.1333
  174loPI   C1A 2775   6.449  14.010   9.238 -0.1698  0.4285 -0.0458
  174loPI   C2A 2776   6.646  14.076   8.838 -0.1206 -0.1720 -0.1869
  174loPI   C3A 2777   6.701  14.103   8.492  0.2531  0.1165  0.2668
  174loPI   C4A 2778   6.798  14.248   8.109  0.4383  0.1293  0.0172
  174loPI   C5A 2779   6.844  14.111   7.753  0.1026  0.2567  0.0749
  174loPI   C6A 2780   6.691  13.727   7.427 -0.1036 -0.2481 -0.1838
  174loPI   C1B 2781   6.725  14.444   9.188 -0.2405 -0.1645  0.1543
  174loPI   C2B 2782   6.988  14.564   8.828  0.2187 -0.0705 -0.2755
  174loPI   C3B 2783   7.146  14.398   8.495 -0.2113  0.2730 -0.3001
  174loPI   C4B 2784   7.256  14.342   8.024 -0.0502 -0.2311 -0.1657
  175loPI    C1 2785  15.379   4.530  10.573 -0.0567 -0.0646  0.0396
  175loPI    C2 2786  15.120   4.395  10.300  0.1321 -0.0917 -0.1282
  175loPI    C3 2787  15.002   4.449  10.678 -0.0976 -0.1748 -0.1867
  175loPI   PO4 2788  15.661   4.505  10.361  0.1478 -0.0992 -0.3111
  175loPI   GL1 2789  15.788   4.311   9.916  0.2064  0.4226 -0.2111
  175loPI   GL2 2790  15.829   4.579   9.769  0.1733  0.0070  0.1795
  175loPI   C1A 2791  15.659   4.010   9.554  0.0248  0.0336  0.1051
  175loPI   C2A 2792  15.614   3.915   9.080  0.1324  0.1602  0.3089
  175loPI   C3A 2793  15.651   3.821   8.689 -0.1795  0.2172 -0.3114
  175loPI   C4A 2794  15.849   3.686   8.270 -0.1577  0.2368 -0.0288
  175loPI   C5A 2795  16.051   3.797   7.903  0.2581 -0.0408  0.1275
  175loPI   C6A 2796  16.335   3.624   7.604  0.2476  0.0376 -0.2616
  175loPI   C1B 2797  15.954   4.520   9.392 -0.1974  0.5466 -0.1829
  175loPI   C2B 2798  15.978   4.578   8.974  0.2208 -0.0188  0.2179
  175loPI   C3B 2799  16.177   4.520   8.606  0.1733  0.1800 -0.1899
  175loPI   C4B 2800  16.360   4.343   8.237  0.1264  0.2157 -0.0701
  176loPI    C1 2801   6.494  17.946  10.593 -0.1455  0.2946 -0.0108
  176loPI    C2 2802   6.594  18.270  10.806  0.0460  0.0367  0.3010
  176loPI    C3 2803   6.710  17.907  10.928 -0.0457 -0.1396 -0.1197
  176loPI   PO4 2804   6.583  18.005  10.309 -0.1362 -0.0188  0.2062
  176loPI   GL1 2805   6.338  18.230  10.005 -0.0122  0.2397 -0.0223
  176loPI   GL2 2806   6.280  18.509  10.055  0.0703  0.1697 -0.0868
  176loPI   C1A 2807   6.535  18.113   9.702 -0.4979  0.1129 -0.0434
  176loPI   C2A 2808   6.407  18.046   9.284 -0.0175 -0.1859  0.2694
  176loPI   C3A 2809   6.458  18.179   8.892  0.1820  0.0007  0.0038
  176loPI   C4A 2810   6.541  18.163   8.369 -0.0047 -0.0970  0.2445
  176loPI   C5A 2811   6.599  18.449   8.043 -0.2807  0.0186  0.0390
  176loPI   C6A 2812   6.730  18.739   7.644  0.2593  0.0747 -0.0717
  176loPI   C1B 2813   6.240  18.514   9.565 -0.0045  0.2151 -0.3891
  176loPI   C2B 2814   6.098  18.422   9.088  0.1295  0.2053 -0.2431
  176loPI   C3B 2815   6.132  18.477   8.632 -0.0117 -0.0204  0.1268
  176loPI   C4B 2816   6.211  18.705   8.263 -0.0230 -0.0604 -0.0774
  177loPI    C1 2817  16.246  14.743  10.005 -0.0927 -0.1801  0.0073
  177loPI    C2 2818  15.990  14.814  10.304  0.0327  0.0211  0.0689
  177loPI    C3 2819  15.984  14.462  10.115 -0.2224 -0.0117  0.1346
  177loPI   PO4 2820  16.229  14.976   9.825  0.1427 -0.0175 -0.0967
  177loPI   GL1 2821  16.397  15.200   9.454  0.0237 -0.1176 -0.2811
  177loPI   GL2 2822  16.791  15.046   9.494 -0.0622  0.0903  0.0497
  177loPI   C1A 2823  16.206  15.508   9.347  0.2865  0.0172  0.0181
  177loPI   C2A 2824  16.319  15.572   9.021  0.3577 -0.0084  0.2384
  177loPI   C3A 2825  16.268  15.569   8.564  0.0581 -0.4565 -0.1428
  177loPI   C4A 2826  16.307  15.668   8.206 -0.1363  0.1607 -0.0346
  177loPI   C5A 2827  15.989  15.757   7.957 -0.1388 -0.3197  0.0234
  177loPI   C6A 2828  15.750  16.002   7.815 -0.2274 -0.1361 -0.0430
  177loPI   C1B 2829  16.705  15.110   9.019 -0.0989 -0.1521  0.3164
  177loPI   C2B 2830  16.698  15.301   8.668  0.0638  0.1023  0.1557
  177loPI   C3B 2831  16.654  15.298   8.285 -0.1989 -0.4452  0.3374
  177loPI   C4B 2832  16.778  15.580   7.946  0.0393 -0.1410 -0.1089
  178loPI    C1 2833  15.106   3.881  10.437 -0.0041 -0.0907 -0.1321
  178loPI    C2 2834  14.754   4.067  10.477 -0.0294 -0.1276 -0.1817
  178loPI    C3 2835  14.947   3.932  10.800 -0.0015  0.0014 -0.1435
  178loPI   PO4 2836  15.040   3.730  10.212  0.1136  0.3060  0.1579
  178loPI   GL1 2837  15.387   3.499  10.043  0.0316  0.1538 -0.0383
  178loPI   GL2 2838  15.608   3.664   9.877 -0.3524  0.0473 -0.2858
  178loPI   C1A 2839  15.027   3.384   9.681  0.3402 -0.0432  0.2116
  178loPI   C2A 2840  14.962   3.363   9.290 -0.0755 -0.3260 -0.0974
  178loPI   C3A 2841  14.977   3.265   8.882 -0.1365  0.2109  0.1768
  178loPI   C4A 2842  14.951   3.282   8.470 -0.0518  0.1929  0.3677
  178loPI   C5A 2843  14.799   3.133   8.086 -0.1596 -0.0410 -0.0875
  178loPI   C6A 2844  14.677   2.755   7.908  0.2766  0.1027  0.0731
  178loPI   C1B 2845  15.386   3.565   9.416  0.0735 -0.0897  0.1861
  178loPI   C2B 2846  15.405   3.493   8.984 -0.1825 -0.2042  0.1170
  178loPI   C3B 2847  15.428   3.395   8.665  0.3371 -0.3072  0.0406
  178loPI   C4B 2848  15.565   3.293   8.295  0.1415 -0.1521 -0.2678
  179loPI    C1 2849   9.485   3.049  10.584  0.0334 -0.0741 -0.0455
  179loPI    C2 2850   9.703   3.374  10.666  0.0708 -0.1045 -0.0241
  179loPI    C3 2851   9.334   3.337  10.817 -0.0092  0.0186 -0.1865
  179loPI   PO4 2852   9.529   3.006  10.300  0.0600 -0.0623 -0.1719
  179loPI   GL1 2853   9.489   2.904   9.911 -0.1073  0.1353 -0.1476
  179loPI   GL2 2854   9.307   2.559   9.721 -0.1513  0.0548 -0.1390
  179loPI   C1A 2855   9.512   2.990   9.535 -0.3277 -0.1119  0.0289
  179loPI   C2A 2856   9.491   2.991   9.132  0.0904 -0.3172  0.0718
  179loPI   C3A 2857   9.484   2.980   8.738 -0.1883 -0.0275 -0.0485
  179loPI   C4A 2858   9.260   3.058   8.414 -0.2355  0.2738  0.1575
  179loPI   C5A 2859   8.900   3.255   8.189  0.2345  0.0937 -0.1910
  179loPI   C6A 2860   8.615   3.476   7.923  0.2735  0.2487  0.1095
  179loPI   C1B 2861   9.343   2.585   9.360 -0.2457  0.1713 -0.0592
  179loPI   C2B 2862   9.333   2.564   8.889  0.2710  0.0957  0.1293
  179loPI   C3B 2863   9.373   2.567   8.441 -0.0304 -0.0153 -0.0501
  179loPI   C4B 2864   9.197   2.357   8.015 -0.1219  0.2405  0.1615
  180loPI    C1 2865  13.854  15.520  10.279  0.0549 -0.0723  0.0573
  180loPI    C2 2866  13.568  15.705  10.489 -0.1916 -0.1725 -0.1838
  180loPI    C3 2867  13.886  15.911  10.359 -0.2086 -0.0347 -0.0105
  180loPI   PO4 2868  13.716  15.430  10.072 -0.0646 -0.0999 -0.1322
  180loPI   GL1 2869  13.759  15.457   9.696  0.1162 -0.2149 -0.0926
  180loPI   GL2 2870  13.415  15.461   9.709 -0.3690  0.0524 -0.1552
  180loPI   C1A 2871  13.720  15.388   9.370 -0.3113 -0.3895  0.1713
  180loPI   C2A 2872  13.660  15.276   8.953  0.0610  0.1007  0.0325
  180loPI   C3A 2873  13.652  15.372   8.549 -0.1343  0.0271 -0.2257
  180loPI   C4A 2874  13.794  15.311   8.129 -0.2126 -0.0771  0.0479
  180loPI   C5A 2875  13.807  14.815   8.003  0.1702 -0.1178 -0.1814
  180loPI   C6A 2876  13.588  14.447   8.113  0.1051 -0.2922 -0.0028
  180loPI   C1B 2877  13.280  15.616   9.326 -0.1048  0.1601 -0.1076
  180loPI   C2B 2878  13.305  15.617   8.906 -0.0067  0.1984  0.0213
  180loPI   C3B 2879  13.427  15.820   8.622 -0.0189 -0.2615  0.1100
  180loPI   C4B 2880  13.505  15.742   8.197  0.2560 -0.2269  0.0112
  181loPI    C1 2881   9.417  13.352   9.665  0.0403  0.2364  0.1196
  181loPI    C2 2882   9.564  13.597   9.946 -0.1213  0.2680  0.1775
  181loPI    C3 2883   9.318  13.298  10.049  0.2958 -0.0980  0.1434
  181loPI   PO4 2884   9.602  13.394   9.406 -0.1280 -0.0654  0.0881
  181loPI   GL1 2885   9.669  13.234   9.013  0.0656 -0.0544  0.0947
  181loPI   GL2 2886   9.483  12.958   9.215  0.0164 -0.1155 -0.2380
  181loPI   C1A 2887   9.713  13.268   8.585  0.1857  0.1675  0.1274
  181loPI   C2A 2888   9.889  13.330   8.269 -0.0686  0.1867  0.1835
  181loPI   C3A 2889   9.792  13.438   7.856  0.1194 -0.1565 -0.1142
  181loPI   C4A 2890   9.726  13.627   7.451 -0.1522  0.0570 -0.0716
  181loPI   C5A 2891   9.978  13.892   7.259 -0.3740 -0.1434  0.2616
  181loPI   C6A 2892  10.271  13.872   6.961  0.0579 -0.1444  0.1992
  181loPI   C1B 2893   9.549  12.847   8.753 -0.1576  0.2115  0.1686
  181loPI   C2B 2894   9.419  12.870   8.360 -0.1187 -0.0362  0.0495
  181loPI   C3B 2895   9.640  12.913   8.011  0.1421 -0.1722  0.2810
  181loPI   C4B 2896   9.646  12.876   7.629 -0.2187 -0.0243 -0.0963
  182loPI    C1 2897  13.160   2.421  10.377  0.2521  0.4445 -0.0034
  182loPI    C2 2898  13.028   2.568  10.030 -0.1637  0.0066 -0.0424
  182loPI    C3 2899  13.040   2.802  10.354 -0.1407  0.3116 -0.2582
  182loPI   PO4 2900  13.004   2.096  10.335 -0.2932 -0.3813 -0.1075
  182loPI   GL1 2901  12.890   1.966   9.882 -0.0766 -0.0161 -0.0782
  182loPI   GL2 2902  12.669   2.106   9.738  0.0103 -0.0555  0.3958
  182loPI   C1A 2903  13.047   2.269   9.436  0.0931 -0.1747  0.1138
  182loPI   C2A 2904  12.906   2.255   8.941  0.0321 -0.1392  0.0057
  182loPI   C3A 2905  12.904   2.378   8.564 -0.2600  0.0089  0.1358
  182loPI   C4A 2906  12.930   2.608   8.110  0.0644 -0.2759  0.0858
  182loPI   C5A 2907  13.201   2.771   7.832 -0.2702 -0.1722  0.1974
  182loPI   C6A 2908  13.376   3.047   7.440 -0.5406 -0.1330 -0.2156
  182loPI   C1B 2909  12.682   1.928   9.316 -0.3064  0.0851  0.1533
  182loPI   C2B 2910  12.635   1.817   8.849  0.4634 -0.1036 -0.2042
  182loPI   C3B 2911  12.578   2.056   8.378  0.1706 -0.1433  0.1345
  182loPI   C4B 2912  12.401   2.289   8.045 -0.0276  0.4088 -0.1429
  183loPI    C1 2913  15.447  11.644  10.333  0.2282  0.1106 -0.2229
  183loPI    C2 2914  15.218  11.952  10.223 -0.0443 -0.0381 -0.0810
  183loPI    C3 2915  15.352  11.926  10.599 -0.0035 -0.0809 -0.0985
  183loPI   PO4 2916  15.497  11.539  10.084 -0.4396 -0.3819 -0.0086
  183loPI   GL1 2917  15.378  11.595   9.695  0.3619 -0.1050  0.1070
  183loPI   GL2 2918  15.041  11.637   9.732 -0.2062 -0.2271  0.0353
  183loPI   C1A 2919  15.308  11.614   9.248  0.1692  0.2141  0.2217
  183loPI   C2A 2920  15.344  11.567   8.817 -0.1902  0.2179  0.3802
  183loPI   C3A 2921  15.650  11.568   8.462 -0.1885  0.1200 -0.0020
  183loPI   C4A 2922  15.683  11.505   8.061  0.2213 -0.3035  0.0612
  183loPI   C5A 2923  15.399  11.550   7.698 -0.0310 -0.0759  0.2634
  183loPI   C6A 2924  15.363  11.445   7.338 -0.1457 -0.1498 -0.0749
  183loPI   C1B 2925  14.859  11.673   9.388  0.2073 -0.2004 -0.0105
  183loPI   C2B 2926  14.858  11.647   8.933  0.2892 -0.4586  0.0147
  183loPI   C3B 2927  14.943  11.807   8.537 -0.0050  0.1027  0.1171
  183loPI   C4B 2928  15.251  11.712   8.224 -0.1443 -0.1072 -0.0684
  184loPI    C1 2929  10.366   9.670  10.544 -0.0233  0.1548 -0.0855
  184loPI    C2 2930   9.974   9.745  10.563 -0.0601 -0.1237  0.4455
  184loPI    C3 2931  10.104   9.367  10.539  0.1782 -0.0306  0.2349
  184loPI   PO4 2932  10.453   9.835  10.376 -0.3257  0.0722 -0.2729
  184loPI   GL1 2933  10.549   9.855   9.983  0.0536  0.3142 -0.2278
  184loPI   GL2 2934  10.562  10.118   9.894 -0.3858  0.0076 -0.2198
  184loPI   C1A 2935  10.889   9.821   9.664 -0.1517 -0.0398 -0.0228
  184loPI   C2A 2936  10.862   9.754   9.371  0.3093 -0.4599  0.0177
  184loPI   C3A 2937  10.882   9.478   9.018 -0.2237  0.0557  0.1931
  184loPI   C4A 2938  10.883   9.502   8.601 -0.2147 -0.2315 -0.2708
  184loPI   C5A 2939  11.115   9.318   8.192 -0.0748 -0.1171  0.2260
  184loPI   C6A 2940  10.796   9.170   7.826  0.0422  0.1807 -0.0445
  184loPI   C1B 2941  10.683  10.225   9.474  0.0796 -0.2472 -0.0132
  184loPI   C2B 2942  10.915  10.281   9.163 -0.0557 -0.1053  0.0376
  184loPI   C3B 2943  10.871  10.313   8.718  0.1761 -0.1818  0.2556
  184loPI   C4B 2944  10.871   9.945   8.305 -0.0935 -0.1022  0.3147
  185loPI    C1 2945   6.873  10.751   9.981 -0.0400 -0.0097 -0.0507
  185loPI    C2 2946   6.784  10.502  10.281 -0.1234  0.1770  0.0814
  185loPI    C3 2947   6.521  10.560   9.985 -0.0153 -0.0557 -0.0631
  185loPI   PO4 2948   7.067  10.717   9.910 -0.1591  0.0332  0.3298
  185loPI   GL1 2949   7.240  10.659   9.479 -0.2062 -0.0629  0.0852
  185loPI   GL2 2950   6.938  10.906   9.417 -0.0399 -0.1738 -0.0114
  185loPI   C1A 2951   7.417  10.808   9.089 -0.2024  0.1144 -0.0323
  185loPI   C2A 2952   7.527  11.077   8.779  0.2091 -0.0062 -0.2099
  185loPI   C3A 2953   7.406  11.184   8.294 -0.1447 -0.1364 -0.2569
  185loPI   C4A 2954   7.633  10.890   7.947 -0.1430  0.1365  0.1499
  185loPI   C5A 2955   7.774  10.442   7.740  0.0534 -0.0478 -0.1466
  185loPI   C6A 2956   7.756  10.112   7.342  0.1291 -0.2239 -0.2572
  185loPI   C1B 2957   6.939  11.035   8.993  0.0885  0.0977 -0.2090
  185loPI   C2B 2958   7.012  11.295   8.590  0.0152 -0.2054 -0.2499
  185loPI   C3B 2959   6.913  11.395   8.177 -0.2148  0.1812 -0.1937
  185loPI   C4B 2960   7.116  11.596   7.895  0.0170  0.0925  0.1637
  186loPI    C1 2961  13.517   4.279  10.503 -0.1758  0.2287 -0.1106
  186loPI    C2 2962  13.213   4.018  10.518  0.1191 -0.1158  0.0190
  186loPI    C3 2963  13.259   4.289  10.808 -0.1387  0.0264 -0.0705
  186loPI   PO4 2964  13.577   4.297  10.189 -0.0042  0.0210  0.1115
  186loPI   GL1 2965  13.757   4.172   9.880 -0.0566  0.0520  0.3846
  186loPI   GL2 2966  13.564   4.032   9.653  0.4429  0.2275  0.1397
  186loPI   C1A 2967  13.998   4.104   9.504 -0.1030  0.1672  0.1773
  186loPI   C2A 2968  14.085   4.067   9.131 -0.3393 -0.2487 -0.1828
  186loPI   C3A 2969  14.163   4.014   8.793  0.0139  0.3074  0.0504
  186loPI   C4A 2970  14.223   3.966   8.357  0.0705  0.1749 -0.0659
  186loPI   C5A 2971  13.934   3.946   8.061 -0.3043  0.0737  0.5228
  186loPI   C6A 2972  13.514   3.718   7.962 -0.1011  0.0427 -0.1053
  186loPI   C1B 2973  13.578   4.178   9.208 -0.3379 -0.1299  0.2427
  186loPI   C2B 2974  13.675   4.065   8.837 -0.0818  0.2787  0.1921
  186loPI   C3B 2975  13.754   3.802   8.549  0.0066 -0.1407  0.2193
  186loPI   C4B 2976  13.919   3.495   8.272  0.0830 -0.2430  0.2720
  187loPI    C1 2977   2.390  11.013   9.897 -0.0156 -0.2453 -0.0031
  187loPI    C2 2978   2.332  10.619   9.931  0.0303 -0.2485  0.0390
  187loPI    C3 2979   2.150  10.870  10.183 -0.3052 -0.2169 -0.2264
  187loPI   PO4 2980   2.554  11.008   9.699  0.0323  0.1461  0.0902
  187loPI   GL1 2981   2.622  10.973   9.290  0.0400  0.0721  0.0469
  187loPI   GL2 2982   2.642  10.657   9.427 -0.1961  0.0005  0.2344
  187loPI   C1A 2983   2.617  11.054   8.754 -0.2183  0.0320  0.0371
  187loPI   C2A 2984   2.681  11.239   8.366 -0.0820 -0.1240  0.2602
  187loPI   C3A 2985   2.452  11.321   7.923  0.2125 -0.3399 -0.0683
  187loPI   C4A 2986   2.232  11.607   7.519  0.1304  0.0322 -0.1016
  187loPI   C5A 2987   2.059  11.950   7.562 -0.0196 -0.1530 -0.0563
  187loPI   C6A 2988   1.617  12.124   7.723 -0.0538  0.0071  0.1447
  187loPI   C1B 2989   2.432  10.559   9.021 -0.1818 -0.2264 -0.4799
  187loPI   C2B 2990   2.529  10.577   8.636  0.1184 -0.1003  0.1056
  187loPI   C3B 2991   2.455  10.737   8.187 -0.2246 -0.0852  0.0833
  187loPI   C4B 2992   2.588  10.761   7.704  0.0245 -0.0627 -0.0573
  188loPI    C1 2993   3.625   9.147  10.360  0.1730 -0.0524 -0.0638
  188loPI    C2 2994   3.730   9.507  10.499  0.0777 -0.1174  0.1810
  188loPI    C3 2995   3.343   9.408  10.471  0.1036 -0.2019  0.1170
  188loPI   PO4 2996   3.866   9.147  10.140 -0.2309 -0.0741 -0.1557
  188loPI   GL1 2997   4.129   9.121   9.831 -0.2735  0.0178 -0.0212
  188loPI   GL2 2998   3.804   9.206   9.617  0.2172 -0.0809 -0.2451
  188loPI   C1A 2999   4.344   9.029   9.460  0.0798 -0.2433 -0.1495
  188loPI   C2A 3000   4.421   9.069   9.011 -0.2126  0.0300 -0.0625
  188loPI   C3A 3001   4.422   9.106   8.483 -0.4637 -0.3384  0.0647
  188loPI   C4A 3002   4.324   8.948   8.073  0.1062  0.0932  0.2099
  188loPI   C5A 3003   4.327   8.709   7.670  0.1703 -0.3185 -0.0719
  188loPI   C6A 3004   3.865   8.622   7.499 -0.3421 -0.2927 -0.0041
  188loPI   C1B 3005   3.961   9.009   9.145  0.3782 -0.0405 -0.1259
  188loPI   C2B 3006   3.966   9.042   8.783 -0.2517 -0.0633  0.2160
  188loPI   C3B 3007   3.908   9.087   8.330 -0.1038  0.0097 -0.1107
  188loPI   C4B 3008   3.837   9.312   7.915 -0.1212  0.2463 -0.3782
  189loPI    C1 3009  17.182  14.528  10.221 -0.2140  0.0208 -0.2426
  189loPI    C2 3010  17.325  14.874  10.363 -0.0142 -0.1059 -0.1292
  189loPI    C3 3011  16.999  14.710  10.526  0.0949 -0.1471  0.0504
  189loPI   PO4 3012  17.395  14.306  10.094  0.1014  0.1256  0.1997
  189loPI   GL1 3013  17.366  14.028   9.754 -0.0655 -0.1473  0.2672
  189loPI   GL2 3014  17.563  13.843   9.806 -0.1193  0.1451 -0.4578
  189loPI   C1A 3015  17.352  14.209   9.396  0.2774 -0.0620  0.1763
  189loPI   C2A 3016  17.466  14.257   8.968 -0.1715  0.2237 -0.0815
  189loPI   C3A 3017  17.474  14.248   8.580  0.3026 -0.0234  0.1182
  189loPI   C4A 3018  17.661  14.147   8.160 -0.1740 -0.0971 -0.0057
  189loPI   C5A 3019  17.451  13.960   7.731 -0.1546 -0.0798  0.0244
  189loPI   C6A 3020  17.149  14.120   7.402  0.2855 -0.3790 -0.0588
  189loPI   C1B 3021  17.605  13.622   9.408  0.1008 -0.0777 -0.1116
  189loPI   C2B 3022  17.539  13.693   9.006 -0.2023  0.1401 -0.2922
  189loPI   C3B 3023  17.515  13.754   8.591  0.1247 -0.1738 -0.1433
  189loPI   C4B 3024  17.507  13.631   8.206 -0.4816  0.1908  0.4088
  190loPI    C1 3025   7.994  10.827  10.381  0.1925 -0.0268 -0.1559
  190loPI    C2 3026   8.284  11.100  10.408  0.1468  0.0130 -0.0653
  190loPI    C3 3027   7.914  11.190  10.528  0.1634 -0.1357  0.1021
  190loPI   PO4 3028   7.943  10.731  10.085  0.0804 -0.3040  0.2911
  190loPI   GL1 3029   7.883  10.922   9.626  0.4552 -0.1195  0.2163
  190loPI   GL2 3030   7.809  10.564   9.505  0.0699 -0.0739 -0.0499
  190loPI   C1A 3031   7.857  10.962   9.157 -0.0452  0.0888  0.1166
  190loPI   C2A 3032   8.000  10.780   8.753 -0.0589  0.3704 -0.0470
  190loPI   C3A 3033   8.104  10.471   8.366  0.0082 -0.1177  0.1948
  190loPI   C4A 3034   8.174  10.695   8.030  0.1624  0.0795 -0.3180
  190loPI   C5A 3035   8.409  10.732   7.707  0.0782 -0.2343  0.1161
  190loPI   C6A 3036   8.212  10.388   7.449  0.1090  0.0623 -0.1852
  190loPI   C1B 3037   7.978  10.394   9.078 -0.0090 -0.1902  0.0562
  190loPI   C2B 3038   7.893  10.211   8.747 -0.1397  0.1428  0.0661
  190loPI   C3B 3039   8.076   9.947   8.386 -0.0337 -0.0049  0.1487
  190loPI   C4B 3040   8.129  10.017   7.953 -0.2176  0.1548 -0.1261
  191loPI    C1 3041   0.932  10.825   9.924 -0.0990  0.0592  0.0229
  191loPI    C2 3042   1.213  10.724  10.191  0.1026  0.0604 -0.1854
  191loPI    C3 3043   1.318  10.896   9.845 -0.1653  0.1624 -0.2189
  191loPI   PO4 3044   0.727  10.572  10.050 -0.0961  0.2046 -0.1241
  191loPI   GL1 3045   0.699  10.307   9.672 -0.0080  0.0177  0.1562
  191loPI   GL2 3046   0.383  10.365   9.708  0.3849 -0.0364 -0.0615
  191loPI   C1A 3047   0.756  10.460   9.200  0.3091  0.1403 -0.2254
  191loPI   C2A 3048   0.799  10.532   8.804 -0.0070 -0.0138  0.5470
  191loPI   C3A 3049   0.642  10.355   8.480 -0.1912 -0.1960 -0.0127
  191loPI   C4A 3050   0.510  10.213   8.100 -0.0789  0.2161 -0.3178
  191loPI   C5A 3051   0.162  10.019   8.031  0.0560  0.1123 -0.0140
  191loPI   C6A 3052  -0.054   9.892   7.709 -0.0435  0.0922 -0.3049
  191loPI   C1B 3053   0.276  10.435   9.298 -0.1333  0.2891 -0.3832
  191loPI   C2B 3054   0.297  10.348   8.861  0.1098  0.0119  0.1787
  191loPI   C3B 3055   0.174  10.117   8.514  0.1313  0.4007  0.2448
  191loPI   C4B 3056  -0.091   9.832   8.396 -0.0060  0.1274  0.2774
  192loPI    C1 3057   9.459   0.907  10.442 -0.1618 -0.2348  0.2967
  192loPI    C2 3058   9.537   1.144  10.755  0.3018 -0.1019  0.0889
  192loPI    C3 3059   9.640   0.758  10.766  0.0874 -0.1580  0.1943
  192loPI   PO4 3060   9.205   0.937  10.408 -0.1033  0.1127  0.0057
  192loPI   GL1 3061   9.030   1.265  10.087 -0.1413  0.0249  0.0501
  192loPI   GL2 3062   8.733   1.272   9.931  0.1588 -0.0082 -0.1296
  192loPI   C1A 3063   9.403   1.155   9.755  0.0487 -0.1318 -0.0933
  192loPI   C2A 3064   9.312   1.200   9.352 -0.1458  0.1191 -0.1487
  192loPI   C3A 3065   9.287   1.049   9.001  0.0458 -0.3371  0.1351
  192loPI   C4A 3066   9.080   1.037   8.508 -0.2776  0.0929 -0.1361
  192loPI   C5A 3067   8.926   0.564   8.329 -0.2417  0.0532  0.1874
  192loPI   C6A 3068   9.004   0.265   7.960  0.1755  0.2679  0.2824
  192loPI   C1B 3069   8.901   1.099   9.623  0.0994 -0.1389  0.0765
  192loPI   C2B 3070   8.849   1.260   9.112  0.2181  0.0493 -0.1885
  192loPI   C3B 3071   8.795   1.407   8.729  0.0419 -0.1464  0.1553
  192loPI   C4B 3072   9.140   1.511   8.521  0.3268  0.2628 -0.0032
  193loPI    C1 3073  10.321   0.522  10.721 -0.1972 -0.0396 -0.0844
  193loPI    C2 3074   9.990   0.382  10.897 -0.0070 -0.1129  0.2221
  193loPI    C3 3075  10.303   0.496  11.119  0.1263  0.0815 -0.0585
  193loPI   PO4 3076  10.331   0.447  10.530  0.0599 -0.0061 -0.1554
  193loPI   GL1 3077  10.433   0.506  10.150  0.1736  0.0359  0.1197
  193loPI   GL2 3078  10.330   0.712  10.128  0.0382 -0.1190 -0.2325
  193loPI   C1A 3079  10.691   0.424   9.704  0.2622 -0.0670 -0.1554
  193loPI   C2A 3080  10.610   0.613   9.342  0.0434  0.1592 -0.1375
  193loPI   C3A 3081  10.512   0.560   8.926 -0.1653  0.0018  0.1208
  193loPI   C4A 3082  10.569   0.461   8.521 -0.0891 -0.1355 -0.0065
  193loPI   C5A 3083  10.378   0.263   8.193  0.1966 -0.0653 -0.0788
  193loPI   C6A 3084   9.992   0.472   7.971  0.1775 -0.2175  0.1045
  193loPI   C1B 3085  10.340   0.917   9.689  0.0816  0.0663  0.1962
  193loPI   C2B 3086  10.156   0.803   9.282 -0.0464 -0.0683  0.2288
  193loPI   C3B 3087  10.031   0.626   8.846  0.0386  0.2035 -0.0214
  193loPI   C4B 3088  10.029   0.828   8.411 -0.3949  0.1342  0.3397
  194loPI    C1 3089  17.489   5.060  10.414  0.0346  0.0716  0.0361
  194loPI    C2 3090  17.537   5.330  10.705 -0.0318  0.1347 -0.0112
  194loPI    C3 3091  17.205   5.108  10.692  0.0617 -0.0116  0.0783
  194loPI   PO4 3092  17.595   5.242  10.204  0.0862 -0.2552 -0.0108
  194loPI   GL1 3093  17.581   5.398   9.781 -0.2329  0.1791 -0.0045
  194loPI   GL2 3094  17.647   5.728   9.664 -0.1780 -0.1244 -0.1224
  194loPI   C1A 3095  17.808   5.234   9.441  0.1291 -0.0560  0.1149
  194loPI   C2A 3096  17.842   5.153   9.015 -0.0123 -0.2373  0.1874
  194loPI   C3A 3097  18.041   5.142   8.656  0.1377  0.0240  0.1007
  194loPI   C4A 3098  18.092   5.036   8.291 -0.0608 -0.1122 -0.3135
  194loPI   C5A 3099  18.398   4.932   8.117  0.0615 -0.0245 -0.0540
  194loPI   C6A 3100  18.665   5.254   7.970 -0.1841 -0.1432  0.1256
  194loPI   C1B 3101  17.729   5.623   9.163  0.0652  0.1925  0.0147
  194loPI   C2B 3102  17.688   5.486   8.628 -0.0786 -0.0831  0.0685
  194loPI   C3B 3103  17.866   5.497   8.155 -0.2447  0.0877 -0.3851
  194loPI   C4B 3104  18.123   5.741   7.839  0.4212 -0.0280  0.1409
  195loPI    C1 3105   7.517  12.783  10.117 -0.0906 -0.4399 -0.2905
  195loPI    C2 3106   7.318  12.476  10.278 -0.1099 -0.2454  0.0679
  195loPI    C3 3107   7.158  12.842  10.283 -0.0023 -0.1927 -0.1821
  195loPI   PO4 3108   7.494  12.786   9.742 -0.4791 -0.0168  0.0481
  195loPI   GL1 3109   7.405  13.011   9.384  0.0082 -0.3207  0.2497
  195loPI   GL2 3110   7.254  13.369   9.232  0.0136 -0.0621  0.0307
  195loPI   C1A 3111   7.364  12.945   8.906 -0.1792  0.0273 -0.2386
  195loPI   C2A 3112   7.507  13.053   8.357  0.0668 -0.0736 -0.0512
  195loPI   C3A 3113   7.617  13.209   7.929 -0.0529  0.3241 -0.1146
  195loPI   C4A 3114   7.811  13.390   7.597 -0.0869 -0.2514  0.1715
  195loPI   C5A 3115   7.910  13.806   7.446  0.4021  0.2688 -0.2718
  195loPI   C6A 3116   7.637  14.104   7.193  0.0930 -0.3230 -0.1993
  195loPI   C1B 3117   7.343  13.513   8.771  0.1465 -0.1830  0.2524
  195loPI   C2B 3118   7.464  13.502   8.377  0.2290 -0.2026  0.1332
  195loPI   C3B 3119   7.608  13.719   7.998  0.0209  0.0970  0.1661
  195loPI   C4B 3120   7.398  13.961   7.774  0.2631  0.1288  0.2898
  196loPI    C1 3121  13.869   6.671  10.427  0.0831  0.0554  0.0112
  196loPI    C2 3122  13.582   6.587  10.693  0.1860  0.0601  0.1244
  196loPI    C3 3123  13.935   6.728  10.817  0.2906 -0.0872 -0.0016
  196loPI   PO4 3124  13.732   6.691  10.195  0.1886 -0.1234  0.3027
  196loPI   GL1 3125  13.438   6.830   9.833  0.1106  0.2526 -0.4363
  196loPI   GL2 3126  13.043   6.718   9.752 -0.0193 -0.1137 -0.0365
  196loPI   C1A 3127  13.448   6.939   9.380 -0.2754  0.1450 -0.2277
  196loPI   C2A 3128  13.507   6.838   8.988  0.3054 -0.5616  0.1344
  196loPI   C3A 3129  13.747   6.899   8.652 -0.2758  0.0922  0.1857
  196loPI   C4A 3130  14.171   6.883   8.589 -0.0030  0.3313 -0.0303
  196loPI   C5A 3131  14.431   6.589   8.265 -0.0120  0.2140 -0.2497
  196loPI   C6A 3132  14.335   6.550   7.890 -0.1069  0.2461  0.0453
  196loPI   C1B 3133  13.199   6.473   9.391 -0.1431 -0.0896 -0.2151
  196loPI   C2B 3134  13.198   6.477   9.033  0.2201 -0.2126  0.1754
  196loPI   C3B 3135  12.953   6.590   8.570 -0.1758  0.2723  0.1951
  196loPI   C4B 3136  12.674   6.635   8.163 -0.4595  0.0493 -0.1028
  197loPI    C1 3137   5.771  14.538  10.032  0.0186 -0.2786  0.0440
  197loPI    C2 3138   5.961  14.886  10.087 -0.1295 -0.1783 -0.0731
  197loPI    C3 3139   6.162  14.568   9.951  0.0119 -0.1463  0.0584
  197loPI   PO4 3140   5.560  14.593   9.982  0.0067  0.0137  0.0519
  197loPI   GL1 3141   5.329  14.576   9.715 -0.0450  0.0367 -0.1233
  197loPI   GL2 3142   5.103  14.308   9.741 -0.0900  0.4081  0.0406
  197loPI   C1A 3143   5.371  14.329   9.257 -0.1133  0.0018 -0.1512
  197loPI   C2A 3144   5.659  14.097   8.944  0.0597  0.1179  0.0993
  197loPI   C3A 3145   5.608  14.055   8.527  0.1553 -0.0187 -0.3402
  197loPI   C4A 3146   5.338  14.034   8.135 -0.1795  0.0367  0.1409
  197loPI   C5A 3147   5.537  13.904   7.738 -0.1677  0.1413 -0.0937
  197loPI   C6A 3148   5.499  14.042   7.317  0.1127 -0.1327 -0.1730
  197loPI   C1B 3149   5.091  13.966   9.453  0.2293 -0.1432  0.0047
  197loPI   C2B 3150   5.113  13.772   9.107 -0.2207 -0.0177  0.1538
  197loPI   C3B 3151   5.106  13.977   8.749 -0.1026  0.0211 -0.0850
  197loPI   C4B 3152   4.993  13.796   8.366  0.0574 -0.1146 -0.0693
  198loPI    C1 3153   3.119   9.929   9.878 -0.0655  0.0813  0.2045
  198loPI    C2 3154   3.471  10.119   9.863 -0.1184  0.1748  0.1380
  198loPI    C3 3155   3.152  10.300  10.024 -0.1443  0.1029  0.1679
  198loPI   PO4 3156   3.112   9.704   9.788 -0.4290  0.1342 -0.2661
  198loPI   GL1 3157   3.058   9.492   9.408 -0.1241 -0.0452  0.2610
  198loPI   GL2 3158   2.827   9.675   9.364  0.1106  0.1551 -0.2983
  198loPI   C1A 3159   2.947   9.176   9.091 -0.4140 -0.1506 -0.1665
  198loPI   C2A 3160   2.858   9.202   8.735 -0.0696 -0.0322  0.1671
  198loPI   C3A 3161   2.805   9.164   8.249  0.3240  0.1559 -0.0227
  198loPI   C4A 3162   2.680   9.284   7.880 -0.1355 -0.0378 -0.0236
  198loPI   C5A 3163   2.781   9.503   7.618  0.2691 -0.2189 -0.0701
  198loPI   C6A 3164   2.977   9.886   7.604  0.2651  0.0762  0.5265
  198loPI   C1B 3165   2.736   9.632   8.933  0.0883  0.0281 -0.1644
  198loPI   C2B 3166   2.706   9.733   8.499  0.1171 -0.0653 -0.0210
  198loPI   C3B 3167   2.986   9.736   8.090  0.1353  0.2152  0.0454
  198loPI   C4B 3168   3.330   9.532   7.738  0.0942 -0.1944  0.1809
  199loPI    C1 3169  14.274   3.997  10.486  0.0434  0.1257  0.1277
  199loPI    C2 3170  14.127   3.702  10.714 -0.0259  0.0091 -0.0653
  199loPI    C3 3171  13.977   4.072  10.743 -0.0614 -0.0141  0.0491
  199loPI   PO4 3172  14.296   3.951  10.277 -0.2751  0.0643 -0.0084
  199loPI   GL1 3173  14.316   4.114   9.871  0.0728  0.0234 -0.0503
  199loPI   GL2 3174  14.363   4.358   9.678  0.2341 -0.3230 -0.2583
  199loPI   C1A 3175  14.443   3.800   9.539  0.1310  0.0738  0.0038
  199loPI   C2A 3176  14.499   3.745   9.094 -0.0108  0.3208 -0.3123
  199loPI   C3A 3177  14.580   3.692   8.653 -0.2284  0.2456  0.3374
  199loPI   C4A 3178  14.682   3.778   8.152 -0.0151  0.3851  0.0445
  199loPI   C5A 3179  14.434   3.928   7.765 -0.2670  0.1229 -0.0142
  199loPI   C6A 3180  14.297   3.644   7.416  0.2084 -0.0042 -0.0122
  199loPI   C1B 3181  14.559   4.281   9.320 -0.3372 -0.1326  0.0122
  199loPI   C2B 3182  14.560   4.272   8.840  0.2302 -0.1255 -0.0572
  199loPI   C3B 3183  14.675   4.153   8.481 -0.0586  0.2005 -0.2215
  199loPI   C4B 3184  14.566   4.307   8.138 -0.2089 -0.1212  0.1818
  200loPI    C1 3185  10.286  14.779  10.086  0.1821  0.0538  0.1132
  200loPI    C2 3186  10.171  14.410  10.189 -0.0558  0.1064  0.0419
  200loPI    C3 3187  10.023  14.728  10.382  0.2310  0.1622  0.1762
  200loPI   PO4 3188  10.217  14.754   9.831 -0.0429  0.0319  0.3103
  200loPI   GL1 3189  10.120  14.793   9.410 -0.4759 -0.0523 -0.0324
  200loPI   GL2 3190  10.143  15.124   9.429 -0.2593 -0.1311  0.2901
  200loPI   C1A 3191  10.518  14.876   9.189  0.0451  0.0021 -0.2191
  200loPI   C2A 3192  10.597  14.762   8.753  0.0387 -0.0236  0.0670
  200loPI   C3A 3193  10.683  14.897   8.352 -0.1393  0.0463  0.2150
  200loPI   C4A 3194  10.694  14.966   7.896  0.1336  0.2173 -0.1156
  200loPI   C5A 3195  10.591  14.867   7.491 -0.3205 -0.0081 -0.0466
  200loPI   C6A 3196  10.772  14.559   7.304  0.2176 -0.1235  0.1340
  200loPI   C1B 3197  10.081  15.130   8.961 -0.1147  0.0753 -0.1727
  200loPI   C2B 3198   9.921  15.289   8.652 -0.3819 -0.0736  0.2222
  200loPI   C3B 3199   9.871  15.409   8.265 -0.0110  0.2063  0.0907
  200loPI   C4B 3200   9.440  15.415   8.080  0.0433 -0.1776 -0.1238
  201loPI    C1 3201   0.592   7.042   9.956  0.0581  0.3724  0.2438
  201loPI    C2 3202   0.211   6.922   9.925  0.1744  0.0271  0.0969
  201loPI    C3 3203   0.362   7.020  10.283 -0.0244  0.0770  0.1687
  201loPI   PO4 3204   0.653   7.258   9.712 -0.0441 -0.0707 -0.3715
  201loPI   GL1 3205   0.670   7.254   9.320 -0.3500  0.1403  0.0173
  201loPI   GL2 3206   0.772   7.535   9.333  0.1806  0.2955 -0.0386
  201loPI   C1A 3207   0.204   7.535   9.044 -0.0048  0.0766  0.0233
  201loPI   C2A 3208   0.275   7.632   8.669  0.0021 -0.0106  0.2983
  201loPI   C3A 3209  -0.098   7.634   8.396 -0.0511 -0.0698  0.2590
  201loPI   C4A 3210  -0.155   7.868   8.021 -0.1558  0.0627  0.0950
  201loPI   C5A 3211  -0.280   8.149   7.621 -0.0725  0.1423 -0.0619
  201loPI   C6A 3212  -0.031   8.267   7.188  0.0116 -0.1979 -0.1563
  201loPI   C1B 3213   0.647   7.948   9.167 -0.0060  0.4511 -0.1662
  201loPI   C2B 3214   0.585   8.011   8.708  0.1468  0.0701 -0.0948
  201loPI   C3B 3215   0.462   7.977   8.324  0.0664 -0.4441  0.0480
  201loPI   C4B 3216   0.394   7.828   7.875  0.1261 -0.0328  0.2591
  202loPI    C1 3217   5.425   9.638  10.174 -0.1167 -0.2185  0.2929
  202loPI    C2 3218   5.759   9.569   9.964 -0.2179 -0.0069  0.0562
  202loPI    C3 3219   5.777   9.775  10.307 -0.0903 -0.1045  0.1092
  202loPI   PO4 3220   5.298   9.774  10.056 -0.0454 -0.0855 -0.2120
  202loPI   GL1 3221   5.173   9.833   9.708 -0.0715 -0.2455 -0.1286
  202loPI   GL2 3222   4.877  10.028   9.730 -0.0406  0.2815  0.0705
  202loPI   C1A 3223   5.188   9.596   9.211 -0.0336  0.0079  0.2752
  202loPI   C2A 3224   5.147   9.603   8.832 -0.0980 -0.0878 -0.0375
  202loPI   C3A 3225   5.105   9.537   8.473 -0.2201 -0.0642  0.3767
  202loPI   C4A 3226   4.941   9.249   8.144 -0.2129  0.1086  0.0770
  202loPI   C5A 3227   5.106   8.926   7.863  0.1837 -0.0682  0.3523
  202loPI   C6A 3228   5.350   8.647   7.680  0.1445  0.0845  0.0638
  202loPI   C1B 3229   4.887   9.982   9.277 -0.0833 -0.1878 -0.1301
  202loPI   C2B 3230   4.828   9.994   8.791 -0.2109 -0.2123 -0.1925
  202loPI   C3B 3231   4.795   9.978   8.315  0.1357 -0.2613 -0.0227
  202loPI   C4B 3232   4.981   9.720   8.025 -0.1109  0.1702  0.1264
  203loPI    C1 3233   7.624   9.241  10.256 -0.0870 -0.0481  0.1707
  203loPI    C2 3234   7.629   9.640  10.230  0.0273 -0.0568  0.0484
  203loPI    C3 3235   7.706   9.463  10.579  0.0028  0.0274  0.0968
  203loPI   PO4 3236   7.771   9.174  10.052 -0.1070 -0.1867 -0.0153
  203loPI   GL1 3237   7.934   9.140   9.672  0.1664 -0.0749  0.1591
  203loPI   GL2 3238   7.701   8.803   9.745  0.2264 -0.0155 -0.0991
  203loPI   C1A 3239   8.173   9.025   9.329  0.0131  0.2752  0.3959
  203loPI   C2A 3240   8.089   9.076   8.974 -0.0103 -0.1509 -0.1826
  203loPI   C3A 3241   8.143   8.978   8.489  0.0235 -0.0503  0.2800
  203loPI   C4A 3242   8.207   8.904   8.035  0.4533 -0.0635  0.0953
  203loPI   C5A 3243   8.166   8.634   7.687  0.1076 -0.1123 -0.1610
  203loPI   C6A 3244   8.341   8.267   7.609  0.0396 -0.1503 -0.0517
  203loPI   C1B 3245   7.795   8.742   9.283  0.1977  0.1618 -0.0632
  203loPI   C2B 3246   7.823   8.713   8.814  0.0564  0.0915  0.2296
  203loPI   C3B 3247   7.869   8.590   8.393 -0.0879  0.0787  0.0470
  203loPI   C4B 3248   7.995   8.310   8.059 -0.0216 -0.0991 -0.2004
  204loPI    C1 3249  18.131  11.666  10.377 -0.0439 -0.0241 -0.0331
  204loPI    C2 3250  18.087  11.306  10.547 -0.0707 -0.0253 -0.0430
  204loPI    C3 3251  17.955  11.634  10.735  0.0595 -0.0080  0.0199
  204loPI   PO4 3252  18.158  11.654  10.138 -0.0619  0.1334  0.1561
  204loPI   GL1 3253  18.056  11.316   9.858 -0.0418 -0.2838  0.0434
  204loPI   GL2 3254  18.279  11.458   9.686  0.0156 -0.3072  0.1612
  204loPI   C1A 3255  17.889  11.251   9.426  0.0508  0.0155  0.0367
  204loPI   C2A 3256  17.961  11.122   8.983 -0.1888 -0.1790  0.0667
  204loPI   C3A 3257  17.887  10.993   8.530  0.0250  0.1975  0.0599
  204loPI   C4A 3258  18.138  10.843   8.142 -0.2455 -0.4153 -0.0895
  204loPI   C5A 3259  18.146  10.994   7.703 -0.1036 -0.1485  0.0115
  204loPI   C6A 3260  18.532  11.347   7.528 -0.0794 -0.0513 -0.3625
  204loPI   C1B 3261  18.439  11.321   9.317 -0.2438  0.0441 -0.2351
  204loPI   C2B 3262  18.498  11.230   8.916  0.0581 -0.0866 -0.1376
  204loPI   C3B 3263  18.383  11.158   8.538  0.1903  0.3989 -0.5177
  204loPI   C4B 3264  18.441  11.218   8.082 -0.0926 -0.0997  0.1678
  205loPI    C1 3265   6.846  15.717  10.002 -0.1854  0.0638 -0.0995
  205loPI    C2 3266   6.628  15.427   9.834 -0.2162  0.0668 -0.0647
  205loPI    C3 3267   6.748  15.393  10.215  0.1358 -0.0945 -0.1858
  205loPI   PO4 3268   7.167  15.621   9.883  0.0639 -0.3018  0.3401
  205loPI   GL1 3269   7.076  15.464   9.523  0.1359  0.0016  0.1326
  205loPI   GL2 3270   7.424  15.502   9.499 -0.1652 -0.1780  0.4051
  205loPI   C1A 3271   7.046  15.578   9.047  0.0585 -0.0478 -0.0318
  205loPI   C2A 3272   7.031  15.661   8.652 -0.3367 -0.1025  0.0760
  205loPI   C3A 3273   6.824  15.920   8.284  0.1472  0.3510  0.2668
  205loPI   C4A 3274   6.933  15.828   7.834  0.1072  0.0564 -0.0145
  205loPI   C5A 3275   6.656  15.729   7.665 -0.2513 -0.1616  0.1890
  205loPI   C6A 3276   6.389  15.653   7.187  0.0532 -0.1411  0.0069
  205loPI   C1B 3277   7.430  15.294   9.161  0.1164 -0.3498  0.0611
  205loPI   C2B 3278   7.471  15.290   8.761  0.3497  0.0125 -0.0975
  205loPI   C3B 3279   7.519  15.285   8.316  0.3506 -0.0084  0.0738
  205loPI   C4B 3280   7.403  15.314   7.794 -0.0639 -0.0686  0.0902
  206loPI    C1 3281  12.069  15.835  10.409  0.0996  0.0130  0.0620
  206loPI    C2 3282  12.444  15.762  10.527  0.2035 -0.0395 -0.2917
  206loPI    C3 3283  12.143  15.544  10.674  0.3091  0.0038 -0.0054
  206loPI   PO4 3284  12.112  15.947  10.141  0.2668  0.2030  0.1283
  206loPI   GL1 3285  12.045  16.060   9.652 -0.1316  0.1719 -0.1089
  206loPI   GL2 3286  11.802  15.806   9.642  0.1451  0.1578  0.4338
  206loPI   C1A 3287  11.827  16.100   9.243 -0.1962  0.3878  0.1852
  206loPI   C2A 3288  11.906  16.117   8.853 -0.3979  0.1414  0.1715
  206loPI   C3A 3289  11.952  16.195   8.373  0.0585 -0.2567  0.3900
  206loPI   C4A 3290  12.289  16.191   8.022 -0.1840  0.2334  0.1404
  206loPI   C5A 3291  12.493  15.941   7.741  0.1109  0.0610  0.1191
  206loPI   C6A 3292  12.644  15.645   7.362  0.1139 -0.4086 -0.1609
  206loPI   C1B 3293  11.479  15.705   9.283  0.0531  0.1617  0.0858
  206loPI   C2B 3294  11.453  15.849   8.970  0.2393 -0.3401  0.1978
  206loPI   C3B 3295  11.475  16.072   8.590 -0.3086 -0.1842 -0.1609
  206loPI   C4B 3296  11.456  16.269   8.294 -0.3428  0.1860 -0.3340
  207loPI    C1 3297   6.326  15.737  10.148 -0.1107 -0.0685  0.0971
  207loPI    C2 3298   6.037  15.734  10.425 -0.2167 -0.3675 -0.0127
  207loPI    C3 3299   6.421  15.736  10.537 -0.2588 -0.1715  0.1340
  207loPI   PO4 3300   6.189  15.676   9.954  0.0690  0.2347 -0.1038
  207loPI   GL1 3301   6.007  15.711   9.549 -0.1018  0.4467 -0.1619
  207loPI   GL2 3302   5.816  15.769   9.572  0.1419  0.0357 -0.1640
  207loPI   C1A 3303   6.179  15.659   9.182 -0.2546  0.2477  0.3389
  207loPI   C2A 3304   6.088  15.584   8.777  0.1425  0.2207  0.0117
  207loPI   C3A 3305   6.014  15.586   8.364 -0.0850  0.0270 -0.3769
  207loPI   C4A 3306   6.034  15.347   8.148 -0.1826 -0.2350 -0.0230
  207loPI   C5A 3307   5.878  15.112   7.728 -0.3886 -0.0428 -0.0768
  207loPI   C6A 3308   6.132  14.808   7.520  0.0800 -0.0595  0.0876
  207loPI   C1B 3309   5.602  16.105   9.307 -0.1831  0.3460  0.2456
  207loPI   C2B 3310   5.512  16.117   8.866  0.2283  0.2777  0.0085
  207loPI   C3B 3311   5.346  16.388   8.550  0.1163  0.2702  0.2835
  207loPI   C4B 3312   5.146  16.269   8.209 -0.3420 -0.1646 -0.0845
  208loPI    C1 3313   1.736  17.451  10.510 -0.1605 -0.1921 -0.0191
  208loPI    C2 3314   1.893  17.112  10.654 -0.0362 -0.1100  0.0410
  208loPI    C3 3315   1.651  17.333  10.883  0.0248 -0.0668  0.0640
  208loPI   PO4 3316   1.651  17.380  10.252  0.0141 -0.0261 -0.0447
  208loPI   GL1 3317   1.601  17.434   9.831 -0.2287  0.1664  0.1103
  208loPI   GL2 3318   1.669  17.800   9.723 -0.0953  0.4299 -0.1328
  208loPI   C1A 3319   1.344  17.199   9.564 -0.0513 -0.2725  0.1624
  208loPI   C2A 3320   1.535  17.385   9.141  0.1211 -0.0798  0.0047
  208loPI   C3A 3321   1.703  17.412   8.813  0.2835  0.2608  0.1330
  208loPI   C4A 3322   1.931  17.716   8.611 -0.1115 -0.1281  0.0599
  208loPI   C5A 3323   2.327  17.884   8.577 -0.0912 -0.2375 -0.2339
  208loPI   C6A 3324   2.500  17.695   8.104 -0.0973  0.1369  0.1545
  208loPI   C1B 3325   1.738  17.826   9.293 -0.0156  0.4007 -0.0837
  208loPI   C2B 3326   1.958  18.035   8.990  0.0906  0.1235 -0.0589
  208loPI   C3B 3327   2.000  18.265   8.585 -0.0436  0.0594 -0.1300
  208loPI   C4B 3328   2.110  18.260   8.210  0.0024  0.0879  0.0410
  209loPI    C1 3329  17.375   9.481  10.509 -0.2308  0.1970  0.0345
  209loPI    C2 3330  17.238   9.810  10.692 -0.3316  0.0607  0.2064
  209loPI    C3 3331  17.475   9.555  10.889 -0.1487  0.0950  0.0330
  209loPI   PO4 3332  17.204   9.433  10.332  0.1566  0.0304 -0.1047
  209loPI   GL1 3333  17.154   9.503   9.887  0.1324 -0.0634 -0.0682
  209loPI   GL2 3334  17.267   9.160   9.859 -0.1047 -0.2650 -0.0736
  209loPI   C1A 3335  17.102   9.379   9.441  0.0759  0.0150  0.1760
  209loPI   C2A 3336  17.039   9.457   9.047  0.0165 -0.1875 -0.3432
  209loPI   C3A 3337  17.000   9.259   8.646  0.0462  0.1729  0.0957
  209loPI   C4A 3338  17.110   8.958   8.264  0.1296  0.1118 -0.1451
  209loPI   C5A 3339  17.069   8.712   7.939  0.1345 -0.3116  0.0474
  209loPI   C6A 3340  17.308   8.334   7.846  0.1762  0.1038 -0.1696
  209loPI   C1B 3341  17.229   8.880   9.586 -0.0985  0.0543 -0.3937
  209loPI   C2B 3342  17.028   8.965   9.117  0.0584  0.2334  0.2270
  209loPI   C3B 3343  17.140   8.764   8.697 -0.0833  0.0285 -0.0048
  209loPI   C4B 3344  17.021   8.481   8.336  0.0610  0.0350 -0.0028
  210loPI    C1 3345   2.005   4.538  10.727 -0.2965  0.1732  0.0050
  210loPI    C2 3346   1.883   4.302  11.026  0.4931 -0.4246 -0.1117
  210loPI    C3 3347   2.135   4.603  11.099 -0.0593  0.0417 -0.0531
  210loPI   PO4 3348   2.188   4.364  10.515 -0.1731 -0.1469  0.1902
  210loPI   GL1 3349   2.118   4.202  10.152  0.2826 -0.1161  0.0275
  210loPI   GL2 3350   2.149   3.845  10.207  0.2024 -0.0327 -0.0289
  210loPI   C1A 3351   1.997   3.970   9.746 -0.3891 -0.2473  0.1992
  210loPI   C2A 3352   2.141   3.726   9.495  0.0329  0.0324  0.1223
  210loPI   C3A 3353   2.110   3.564   9.025  0.3328 -0.2291 -0.1436
  210loPI   C4A 3354   2.261   3.547   8.618  0.1826  0.0066 -0.4420
  210loPI   C5A 3355   2.040   3.579   8.250 -0.1292 -0.0499 -0.1125
  210loPI   C6A 3356   2.032   3.373   8.001  0.1318  0.1628  0.1104
  210loPI   C1B 3357   1.980   3.487   9.878 -0.2126  0.1747 -0.0086
  210loPI   C2B 3358   1.934   3.276   9.434 -0.0244 -0.2466 -0.1216
  210loPI   C3B 3359   1.963   3.155   8.973 -0.2613  0.4913 -0.3339
  210loPI   C4B 3360   1.792   3.171   8.519  0.1664  0.1766  0.1905
  211loPI    C1 3361  17.852  10.289  10.347  0.0020 -0.1730  0.1200
  211loPI    C2 3362  17.527  10.217  10.569 -0.1236  0.0401  0.0084
  211loPI    C3 3363  17.873  10.311  10.746 -0.1784  0.0335  0.1202
  211loPI   PO4 3364  17.803  10.463  10.112  0.0793 -0.2273  0.4688
  211loPI   GL1 3365  18.003  10.522   9.773 -0.3599 -0.1478  0.1177
  211loPI   GL2 3366  18.277  10.289   9.566  0.1436  0.0637 -0.2920
  211loPI   C1A 3367  17.936  10.634   9.249  0.0245  0.0201  0.0610
  211loPI   C2A 3368  17.843  10.558   8.888 -0.1292 -0.2064  0.1549
  211loPI   C3A 3369  17.672  10.553   8.428 -0.0512  0.4854 -0.0501
  211loPI   C4A 3370  17.534  10.577   8.142  0.1382  0.1075 -0.2567
  211loPI   C5A 3371  17.363  10.286   7.968 -0.0116  0.0075 -0.0535
  211loPI   C6A 3372  17.089  10.350   7.538 -0.3175 -0.0302  0.2136
  211loPI   C1B 3373  18.218  10.266   9.059  0.1548 -0.0397 -0.2347
  211loPI   C2B 3374  18.037   9.957   8.780 -0.2383  0.2798  0.2866
  211loPI   C3B 3375  17.797  10.018   8.499 -0.3244 -0.2747  0.1058
  211loPI   C4B 3376  17.558   9.870   8.155 -0.1122 -0.2288 -0.1245
  212loPI    C1 3377  13.707  17.451  10.755 -0.0422  0.0800  0.1693
  212loPI    C2 3378  13.433  17.231  10.947 -0.1880  0.2009  0.1024
  212loPI    C3 3379  13.773  17.333  11.132 -0.0942 -0.1236  0.1162
  212loPI   PO4 3380  13.595  17.432  10.525 -0.1739 -0.0649  0.0427
  212loPI   GL1 3381  13.376  17.395  10.185  0.0211 -0.0921  0.0997
  212loPI   GL2 3382  13.723  17.298  10.046  0.4126 -0.1429 -0.1048
  212loPI   C1A 3383  13.252  17.297   9.793 -0.1189  0.1204 -0.3752
  212loPI   C2A 3384  13.286  17.363   9.333  0.1118 -0.0866 -0.0284
  212loPI   C3A 3385  13.257  17.392   8.899 -0.0206 -0.0873  0.0953
  212loPI   C4A 3386  13.184  17.443   8.506 -0.0235 -0.2712  0.1292
  212loPI   C5A 3387  13.013  17.261   8.175  0.2351  0.1994  0.0053
  212loPI   C6A 3388  13.058  17.050   7.623  0.2594  0.0911 -0.0683
  212loPI   C1B 3389  13.703  17.490   9.625  0.0980 -0.2365  0.0522
  212loPI   C2B 3390  13.715  17.510   9.173  0.1102 -0.2177  0.3017
  212loPI   C3B 3391  13.729  17.672   8.708 -0.0853  0.0541  0.1395
  212loPI   C4B 3392  13.572  17.877   8.334  0.1751 -0.2362  0.0080
  213loPI    C1 3393  17.850   4.443  10.602 -0.0853  0.0720  0.0234
  213loPI    C2 3394  17.785   4.819  10.721 -0.2601  0.0506 -0.0031
  213loPI    C3 3395  17.708   4.514  10.969  0.2725  0.0481  0.1708
  213loPI   PO4 3396  17.858   4.367  10.284  0.1028  0.1806  0.0777
  213loPI   GL1 3397  18.000   4.475   9.865 -0.1034 -0.4594  0.1864
  213loPI   GL2 3398  18.356   4.334   9.810  0.1167  0.0631  0.2204
  213loPI   C1A 3399  17.898   4.695   9.470 -0.2623 -0.1419  0.0259
  213loPI   C2A 3400  17.957   4.643   8.971  0.1569 -0.1575 -0.0289
  213loPI   C3A 3401  17.992   4.600   8.508 -0.0549 -0.0127  0.1365
  213loPI   C4A 3402  17.970   4.549   8.096 -0.1156  0.3222 -0.0547
  213loPI   C5A 3403  18.010   4.108   7.922  0.1689  0.1590 -0.0625
  213loPI   C6A 3404  18.005   3.896   7.483  0.2683 -0.0516 -0.2333
  213loPI   C1B 3405  18.171   4.246   9.357  0.0240 -0.1639  0.2982
  213loPI   C2B 3406  18.211   4.220   8.962  0.1831 -0.2301  0.2945
  213loPI   C3B 3407  18.350   4.335   8.687 -0.0855  0.1741 -0.2322
  213loPI   C4B 3408  18.318   4.211   8.287  0.0042  0.0214  0.2977
  214loPI    C1 3409  14.246  17.588  10.114  0.2698 -0.0212 -0.1408
  214loPI    C2 3410  14.065  17.412  10.424 -0.2882  0.2510 -0.2976
  214loPI    C3 3411  14.230  17.189  10.135 -0.2656 -0.0044 -0.0914
  214loPI   PO4 3412  14.169  17.924  10.138 -0.0389 -0.3139 -0.0889
  214loPI   GL1 3413  13.928  18.227   9.912  0.1366  0.2809  0.2916
  214loPI   GL2 3414  13.741  18.091   9.682  0.1897 -0.1589 -0.0982
  214loPI   C1A 3415  14.207  18.333   9.655 -0.4347  0.2074 -0.0356
  214loPI   C2A 3416  14.536  18.229   9.406 -0.0944 -0.4769 -0.0223
  214loPI   C3A 3417  14.847  18.405   9.165 -0.1939 -0.1282 -0.1443
  214loPI   C4A 3418  15.180  18.397   8.870 -0.0153 -0.2913 -0.3811
  214loPI   C5A 3419  15.424  18.630   8.536  0.0905 -0.0393 -0.0732
  214loPI   C6A 3420  15.866  18.545   8.342  0.2785 -0.2546 -0.2131
  214loPI   C1B 3421  13.557  18.337   9.409 -0.2390 -0.1035  0.1127
  214loPI   C2B 3422  13.416  18.506   9.011 -0.0130  0.3266 -0.0422
  214loPI   C3B 3423  13.161  18.666   8.619  0.0522 -0.0533 -0.2016
  214loPI   C4B 3424  13.230  18.988   8.326 -0.0731 -0.0303  0.2920
  215loPI    C1 3425  11.441   3.040  10.561  0.2613  0.0046 -0.0325
  215loPI    C2 3426  11.197   2.751  10.691  0.2115  0.0893  0.0646
  215loPI    C3 3427  11.579   2.759  10.810  0.3070 -0.1355 -0.2139
  215loPI   PO4 3428  11.483   2.925  10.222  0.1403  0.2148 -0.1352
  215loPI   GL1 3429  11.517   2.767   9.920 -0.0572  0.0372 -0.0725
  215loPI   GL2 3430  11.205   2.746   9.802  0.3028  0.0255 -0.2493
  215loPI   C1A 3431  11.646   2.735   9.495 -0.3149  0.2623 -0.0326
  215loPI   C2A 3432  11.586   2.674   9.049  0.0558  0.1722  0.0773
  215loPI   C3A 3433  11.546   2.648   8.607 -0.2579 -0.2460 -0.3713
  215loPI   C4A 3434  11.197   2.761   8.320 -0.1565  0.2432 -0.1941
  215loPI   C5A 3435  10.959   2.543   8.060 -0.1780  0.1148  0.1936
  215loPI   C6A 3436  10.979   2.421   7.743  0.1828  0.0045  0.1218
  215loPI   C1B 3437  11.207   2.506   9.342 -0.2755 -0.0214  0.1796
  215loPI   C2B 3438  10.986   2.323   8.951 -0.0233 -0.3095  0.6082
  215loPI   C3B 3439  11.043   2.279   8.539  0.0956  0.3274  0.4095
  215loPI   C4B 3440  10.936   2.013   8.105  0.3257  0.1321  0.0478
  216loPI    C1 3441   8.666  11.469  10.128  0.2122 -0.1681  0.1648
  216loPI    C2 3442   8.583  11.472  10.520  0.0829  0.0752  0.1371
  216loPI    C3 3443   8.792  11.772  10.357  0.1063 -0.0077  0.0133
  216loPI   PO4 3444   8.491  11.405  10.052 -0.2289  0.2100 -0.2327
  216loPI   GL1 3445   8.316  11.544   9.657  0.4457 -0.0488  0.2180
  216loPI   GL2 3446   8.337  11.261   9.532 -0.1117 -0.3764 -0.0942
  216loPI   C1A 3447   8.425  11.664   9.273  0.0685  0.0922  0.4482
  216loPI   C2A 3448   8.487  11.578   8.810  0.1055 -0.1969 -0.1238
  216loPI   C3A 3449   8.473  11.466   8.373  0.3934  0.2615 -0.0500
  216loPI   C4A 3450   8.659  11.568   8.029 -0.2093  0.0582  0.2482
  216loPI   C5A 3451   8.503  11.601   7.747  0.2797 -0.1769  0.1147
  216loPI   C6A 3452   8.259  11.952   7.439 -0.2358 -0.1093  0.0063
  216loPI   C1B 3453   8.324  11.199   9.093  0.0877 -0.2359 -0.0816
  216loPI   C2B 3454   8.386  11.064   8.729  0.1320  0.3012  0.1511
  216loPI   C3B 3455   8.562  10.955   8.275 -0.0623  0.1304 -0.2060
  216loPI   C4B 3456   8.774  11.084   7.934 -0.1163  0.0581  0.1604
  217loPI    C1 3457  15.342   4.948  10.316  0.1060 -0.1964  0.1690
  217loPI    C2 3458  14.975   4.920  10.473  0.0278 -0.1307 -0.0002
  217loPI    C3 3459  15.185   5.258  10.514  0.0875 -0.1837  0.1347
  217loPI   PO4 3460  15.303   4.807  10.051 -0.1315  0.2422 -0.0853
  217loPI   GL1 3461  15.433   4.959   9.701  0.0247 -0.1063 -0.0706
  217loPI   GL2 3462  15.136   4.981   9.558 -0.0752 -0.1105 -0.2565
  217loPI   C1A 3463  15.812   4.953   9.451 -0.0138 -0.0381  0.1466
  217loPI   C2A 3464  15.771   4.966   9.107 -0.1327 -0.1176  0.0109
  217loPI   C3A 3465  15.757   4.912   8.706 -0.2716  0.0746  0.1012
  217loPI   C4A 3466  15.865   5.025   8.351  0.2746 -0.1597  0.0225
  217loPI   C5A 3467  15.818   5.241   7.989 -0.4188 -0.1706  0.1682
  217loPI   C6A 3468  16.159   5.373   7.716 -0.1869  0.3094 -0.1642
  217loPI   C1B 3469  15.216   4.995   9.154  0.0162 -0.0876 -0.1163
  217loPI   C2B 3470  15.279   4.897   8.666  0.0758 -0.1353 -0.2094
  217loPI   C3B 3471  15.297   4.930   8.173  0.1000 -0.1801  0.1518
  217loPI   C4B 3472  15.564   4.797   7.868  0.0407  0.0933 -0.0926
  218loPI    C1 3473   5.889  16.377  10.237 -0.0128  0.2317  0.0689
  218loPI    C2 3474   5.680  16.142  10.484  0.1623 -0.1413 -0.1311
  218loPI    C3 3475   5.491  16.353  10.202  0.0122 -0.1105 -0.0089
  218loPI   PO4 3476   6.055  16.246  10.170 -0.2686 -0.0291 -0.1293
  218loPI   GL1 3477   6.057  16.212   9.729  0.0380  0.0251  0.1029
  218loPI   GL2 3478   5.734  16.281   9.753 -0.4807 -0.0369  0.0552
  218loPI   C1A 3479   6.116  16.140   9.250 -0.4046  0.1369  0.1878
  218loPI   C2A 3480   5.975  16.031   8.920 -0.5387 -0.3950  0.1303
  218loPI   C3A 3481   5.837  16.173   8.485  0.0034  0.1974  0.0603
  218loPI   C4A 3482   5.744  16.095   8.032 -0.2791 -0.0183  0.2026
  218loPI   C5A 3483   5.743  15.709   7.886  0.1464  0.0894 -0.1523
  218loPI   C6A 3484   6.173  15.626   7.753  0.1936 -0.1288  0.0691
  218loPI   C1B 3485   5.924  16.589   9.373  0.0814 -0.1400 -0.1710
  218loPI   C2B 3486   6.006  16.575   8.960 -0.0446  0.3198 -0.0797
  218loPI   C3B 3487   5.852  16.668   8.600  0.1822 -0.0461 -0.0489
  218loPI   C4B 3488   5.595  16.591   8.194 -0.0839 -0.1924  0.1896
  219loPI    C1 3489  11.062   1.150  10.974  0.0744 -0.2663  0.3052
  219loPI    C2 3490  11.331   1.445  10.960 -0.0630 -0.1517 -0.0037
  219loPI    C3 3491  10.965   1.516  11.103 -0.0989 -0.1694 -0.0864
  219loPI   PO4 3492  11.120   0.937  10.786  0.1296 -0.1438  0.3189
  219loPI   GL1 3493  11.096   0.890  10.316  0.0792 -0.0159 -0.0056
  219loPI   GL2 3494  10.811   0.891  10.059  0.0965  0.1271  0.0251
  219loPI   C1A 3495  11.326   0.979   9.911  0.2184 -0.1146  0.1059
  219loPI   C2A 3496  11.589   1.024   9.563 -0.1128 -0.2151 -0.0458
  219loPI   C3A 3497  11.556   0.933   9.122  0.1241  0.1080  0.0882
  219loPI   C4A 3498  11.700   0.780   8.649 -0.1079 -0.1081 -0.1561
  219loPI   C5A 3499  11.674   0.779   8.220  0.3635 -0.0670  0.1848
  219loPI   C6A 3500  11.668   0.428   8.062  0.2228 -0.1288 -0.0350
  219loPI   C1B 3501  10.797   1.098   9.625  0.0186 -0.0082 -0.3908
  219loPI   C2B 3502  10.523   1.151   9.250 -0.0012  0.0564 -0.2973
  219loPI   C3B 3503  10.321   1.021   8.810  0.3030  0.1735 -0.2678
  219loPI   C4B 3504  10.507   1.028   8.339  0.0038 -0.0574  0.2164
  220loPI    C1 3505   3.648   5.888  10.467  0.1142  0.2994  0.0369
  220loPI    C2 3506   3.789   6.124  10.175 -0.0818  0.1310 -0.1980
  220loPI    C3 3507   3.487   6.249  10.406  0.2180  0.3535  0.0815
  220loPI   PO4 3508   3.602   5.579  10.311  0.0063 -0.3735 -0.0284
  220loPI   GL1 3509   3.622   5.629   9.905 -0.1636 -0.1266 -0.2346
  220loPI   GL2 3510   3.369   5.741   9.678  0.1661  0.1445 -0.3477
  220loPI   C1A 3511   3.699   5.491   9.478  0.0280 -0.2558 -0.3233
  220loPI   C2A 3512   3.990   5.480   9.034  0.0387  0.1839 -0.2215
  220loPI   C3A 3513   3.879   5.479   8.613  0.1606 -0.1082 -0.0506
  220loPI   C4A 3514   3.869   5.760   8.275 -0.2067 -0.2029  0.0548
  220loPI   C5A 3515   3.784   5.761   7.816 -0.1449 -0.0718 -0.0560
  220loPI   C6A 3516   3.820   5.362   7.492 -0.0400 -0.2292  0.1831
  220loPI   C1B 3517   3.221   5.916   9.306 -0.1816 -0.1525  0.0664
  220loPI   C2B 3518   3.186   5.997   8.886 -0.0813  0.3451  0.1954
  220loPI   C3B 3519   2.982   5.972   8.529  0.0496  0.1178  0.0095
  220loPI   C4B 3520   2.667   5.674   8.361  0.4543  0.1474  0.0382
  221loPI    C1 3521   0.845  15.026  10.698 -0.0537  0.0948  0.0999
  221loPI    C2 3522   1.234  15.068  10.781 -0.0510 -0.1447  0.2158
  221loPI    C3 3523   0.963  15.278  10.986  0.0211  0.0951  0.0693
  221loPI   PO4 3524   0.826  14.867  10.520 -0.1637  0.1828  0.0954
  221loPI   GL1 3525   0.845  14.843  10.040 -0.1403 -0.0776 -0.1063
  221loPI   GL2 3526   1.125  15.029   9.889 -0.0533  0.1252  0.0792
  221loPI   C1A 3527   0.658  14.790   9.664 -0.0824  0.1083 -0.0747
  221loPI   C2A 3528   0.586  14.714   9.247  0.1482 -0.2372  0.4205
  221loPI   C3A 3529   0.656  14.752   8.803  0.3878 -0.0131  0.0376
  221loPI   C4A 3530   0.792  14.528   8.324  0.0737 -0.2129 -0.1278
  221loPI   C5A 3531   0.933  14.163   8.110  0.0653  0.1136  0.0000
  221loPI   C6A 3532   1.002  13.724   8.292  0.1336  0.0670  0.0617
  221loPI   C1B 3533   0.943  15.180   9.441  0.0537 -0.2425  0.1246
  221loPI   C2B 3534   0.615  15.235   9.250 -0.0642  0.0573 -0.2638
  221loPI   C3B 3535   0.545  15.239   8.774  0.2149  0.0667  0.0340
  221loPI   C4B 3536   0.610  15.355   8.410 -0.0954  0.2041 -0.0568
  222loPI    C1 3537   8.365   6.721  10.501 -0.1484 -0.2402 -0.0515
  222loPI    C2 3538   8.181   7.067  10.584  0.0216 -0.1578 -0.0134
  222loPI    C3 3539   8.186   6.773  10.855 -0.4038 -0.3150 -0.1673
  222loPI   PO4 3540   8.245   6.655  10.287  0.1943  0.0430 -0.1637
  222loPI   GL1 3541   8.404   6.575   9.980 -0.0694  0.0146  0.0515
  222loPI   GL2 3542   8.367   6.290   9.858  0.0969 -0.0953 -0.3446
  222loPI   C1A 3543   8.354   6.684   9.560 -0.0920 -0.1918 -0.1404
  222loPI   C2A 3544   8.427   6.760   9.077 -0.0893 -0.1732  0.1040
  222loPI   C3A 3545   8.529   6.892   8.655 -0.0441 -0.1954  0.0088
  222loPI   C4A 3546   8.859   7.081   8.438  0.0555  0.0079 -0.0898
  222loPI   C5A 3547   8.912   7.486   8.251 -0.1485 -0.0242  0.1087
  222loPI   C6A 3548   9.072   7.868   8.066 -0.1513 -0.3063 -0.1184
  222loPI   C1B 3549   8.365   6.196   9.500  0.4134 -0.1891  0.1457
  222loPI   C2B 3550   8.338   6.222   9.089 -0.0544 -0.2822  0.0587
  222loPI   C3B 3551   8.504   6.301   8.670  0.1246  0.0478  0.2043
  222loPI   C4B 3552   8.449   6.645   8.245  0.2832  0.2218 -0.3151
  223loPI    C1 3553   6.854   1.908  10.198 -0.1977 -0.1855  0.0566
  223loPI    C2 3554   6.701   1.839  10.561 -0.0786 -0.1037  0.1228
  223loPI    C3 3555   7.002   2.100  10.516 -0.2651  0.0826 -0.0704
  223loPI   PO4 3556   6.610   1.908  10.060 -0.2572  0.2818 -0.1729
  223loPI   GL1 3557   6.558   2.017   9.661 -0.4029 -0.1026 -0.1308
  223loPI   GL2 3558   6.589   2.348   9.539 -0.1929  0.0918 -0.2073
  223loPI   C1A 3559   6.561   1.974   9.176  0.0943 -0.2426  0.0897
  223loPI   C2A 3560   6.353   2.048   8.757  0.1503  0.2831  0.0117
  223loPI   C3A 3561   6.094   1.978   8.438  0.2785  0.2295 -0.3281
  223loPI   C4A 3562   6.041   1.847   8.065  0.1533 -0.1846  0.1340
  223loPI   C5A 3563   6.160   2.159   7.722  0.0513  0.0348 -0.1269
  223loPI   C6A 3564   6.279   2.634   7.685 -0.1406  0.0769  0.1188
  223loPI   C1B 3565   6.724   2.500   9.304 -0.1030  0.0203 -0.1041
  223loPI   C2B 3566   6.605   2.471   8.947 -0.1464 -0.0241  0.0190
  223loPI   C3B 3567   6.535   2.394   8.459  0.2770 -0.1175 -0.0590
  223loPI   C4B 3568   6.229   2.420   8.112  0.0192  0.0590 -0.1760
  224loPI    C1 3569   5.127   7.577  10.100  0.1330  0.0778  0.1787
  224loPI    C2 3570   4.798   7.673  10.306 -0.1425 -0.0380 -0.1977
  224loPI    C3 3571   5.084   7.452  10.478 -0.4067 -0.2086  0.0317
  224loPI   PO4 3572   5.030   7.503   9.876 -0.2315 -0.0483  0.2377
  224loPI   GL1 3573   4.667   7.453   9.541 -0.0716 -0.4589 -0.0242
  224loPI   GL2 3574   4.861   7.208   9.441  0.0195 -0.0152  0.0318
  224loPI   C1A 3575   4.313   7.325   9.121 -0.1835  0.0168  0.1233
  224loPI   C2A 3576   4.189   7.015   8.669  0.0698 -0.2424 -0.1839
  224loPI   C3A 3577   4.138   6.790   8.429 -0.0003  0.0506  0.0243
  224loPI   C4A 3578   3.978   6.503   7.952  0.1170  0.2262 -0.0968
  224loPI   C5A 3579   3.884   6.478   7.429 -0.2971 -0.1027 -0.3078
  224loPI   C6A 3580   4.132   6.345   7.098  0.0880 -0.0207 -0.1777
  224loPI   C1B 3581   5.023   7.182   9.085 -0.0857  0.0270 -0.2073
  224loPI   C2B 3582   5.190   7.321   8.762  0.1097  0.0500 -0.2145
  224loPI   C3B 3583   5.155   7.414   8.350  0.0596  0.1203  0.2142
  224loPI   C4B 3584   4.827   7.568   8.158  0.1317  0.0680  0.0306
  225loPI    C1 3585   8.984  12.957   9.993 -0.0557  0.1744 -0.1648
  225loPI    C2 3586   8.711  13.244  10.047  0.0237  0.2140  0.0368
  225loPI    C3 3587   8.914  13.100  10.360 -0.0431 -0.0907 -0.0570
  225loPI   PO4 3588   9.066  12.936   9.711  0.2441 -0.0610  0.2424
  225loPI   GL1 3589   8.872  12.641   9.332 -0.1562  0.0770  0.0021
  225loPI   GL2 3590   8.942  12.889   9.271 -0.3823  0.3093 -0.0184
  225loPI   C1A 3591   8.749  12.356   9.054  0.2582  0.1070 -0.1789
  225loPI   C2A 3592   8.587  12.233   8.646 -0.0556 -0.0172  0.1292
  225loPI   C3A 3593   8.519  12.000   8.309 -0.0064  0.1447 -0.2430
  225loPI   C4A 3594   8.365  12.048   8.000 -0.0286  0.0490  0.3079
  225loPI   C5A 3595   8.208  12.361   7.775 -0.1691 -0.0781  0.0916
  225loPI   C6A 3596   7.970  12.603   7.612 -0.2156 -0.0441 -0.2594
  225loPI   C1B 3597   9.075  12.938   8.899 -0.3337  0.1315 -0.2883
  225loPI   C2B 3598   9.228  13.272   8.617 -0.1981  0.0171 -0.1693
  225loPI   C3B 3599   9.379  13.355   8.142 -0.0815 -0.0259 -0.1002
  225loPI   C4B 3600   9.190  13.086   7.849 -0.1002 -0.0229 -0.0109
  226loPI    C1 3601   5.066   8.404   9.937 -0.0646  0.0022 -0.2167
  226loPI    C2 3602   4.965   8.258   9.578  0.0236 -0.0874 -0.2058
  226loPI    C3 3603   4.923   8.032   9.906  0.2435 -0.1212 -0.1994
  226loPI   PO4 3604   5.406   8.513   9.878  0.2558 -0.1084  0.1635
  226loPI   GL1 3605   5.654   8.657   9.531  0.1408  0.0682  0.1768
  226loPI   GL2 3606   5.341   8.779   9.475  0.3598  0.0569  0.0418
  226loPI   C1A 3607   5.657   8.712   9.077  0.1427  0.1554 -0.0113
  226loPI   C2A 3608   5.649   8.880   8.688 -0.2202 -0.0658 -0.0911
  226loPI   C3A 3609   5.937   8.771   8.500  0.2464 -0.0700 -0.2488
  226loPI   C4A 3610   6.161   8.830   8.132  0.0204 -0.2452  0.0113
  226loPI   C5A 3611   6.272   8.538   7.823 -0.0316 -0.1669  0.1569
  226loPI   C6A 3612   5.837   8.452   7.573 -0.0109 -0.2548  0.0867
  226loPI   C1B 3613   5.116   9.032   9.087  0.1399  0.1630 -0.0484
  226loPI   C2B 3614   5.165   9.054   8.629 -0.0743  0.2248 -0.3007
  226loPI   C3B 3615   5.430   9.110   8.232 -0.2274  0.0051  0.0955
  226loPI   C4B 3616   5.857   9.162   8.126  0.0300 -0.1232  0.1347
  227loPI    C1 3617   0.297  12.417  10.316  0.0997 -0.0562 -0.1776
  227loPI    C2 3618   0.252  12.020  10.293  0.1220 -0.0720  0.0334
  227loPI    C3 3619   0.586  12.175  10.450 -0.1469  0.0211  0.5337
  227loPI   PO4 3620   0.253  12.502  10.116  0.0149 -0.0491  0.3038
  227loPI   GL1 3621   0.369  12.351   9.711 -0.0393 -0.0755  0.1480
  227loPI   GL2 3622   0.470  12.031   9.836 -0.1235 -0.0394 -0.2790
  227loPI   C1A 3623   0.252  12.433   9.273 -0.0614  0.2711  0.1233
  227loPI   C2A 3624   0.234  12.687   9.012 -0.2941  0.1621 -0.0851
  227loPI   C3A 3625   0.086  12.592   8.602 -0.0246  0.2875  0.2788
  227loPI   C4A 3626  -0.005  12.338   8.354  0.0331  0.0399 -0.2604
  227loPI   C5A 3627   0.055  12.179   7.978  0.1781  0.1344 -0.3822
  227loPI   C6A 3628   0.023  11.954   7.589  0.0628 -0.0397 -0.1052
  227loPI   C1B 3629   0.782  12.156   9.498  0.2369 -0.0811 -0.1440
  227loPI   C2B 3630   0.623  12.105   9.130  0.0208  0.2042  0.0809
  227loPI   C3B 3631   0.436  12.124   8.799  0.1455  0.0858  0.1227
  227loPI   C4B 3632   0.398  11.996   8.389  0.1179 -0.0319 -0.0570
  228loPI    C1 3633  15.528  14.697  10.410 -0.1528 -0.2346  0.1234
  228loPI    C2 3634  15.790  14.449  10.582  0.2195  0.0582 -0.0061
  228loPI    C3 3635  15.645  14.760  10.788  0.0447 -0.0484  0.0338
  228loPI   PO4 3636  15.454  14.642  10.154 -0.0345  0.0201 -0.2605
  228loPI   GL1 3637  15.533  14.456   9.709 -0.0776 -0.3018  0.0300
  228loPI   GL2 3638  15.343  14.228   9.706 -0.1399  0.2808  0.4592
  228loPI   C1A 3639  15.644  14.611   9.243 -0.0856 -0.0448  0.0591
  228loPI   C2A 3640  15.754  14.535   8.856  0.0117  0.0030 -0.3012
  228loPI   C3A 3641  15.565  14.745   8.496 -0.1034 -0.0520 -0.1887
  228loPI   C4A 3642  15.371  14.988   8.247 -0.3638 -0.0011  0.2206
  228loPI   C5A 3643  15.125  15.260   8.062 -0.3017  0.0523  0.0736
  228loPI   C6A 3644  14.826  15.628   8.127 -0.0387 -0.1914  0.0322
  228loPI   C1B 3645  15.338  14.084   9.229  0.0133  0.1764  0.1549
  228loPI   C2B 3646  15.442  14.183   8.870 -0.1179 -0.0802  0.2126
  228loPI   C3B 3647  15.383  14.170   8.550  0.1370 -0.1753 -0.0701
  228loPI   C4B 3648  15.465  14.007   8.098 -0.1613  0.1955 -0.1626
  229loPI    C1 3649  17.043  15.588  10.434 -0.2535 -0.0701  0.0604
  229loPI    C2 3650  16.969  15.201  10.504  0.0769 -0.0979  0.2774
  229loPI    C3 3651  17.323  15.358  10.605  0.0466  0.1983 -0.0599
  229loPI   PO4 3652  16.876  15.630  10.209  0.0230  0.3391  0.3826
  229loPI   GL1 3653  16.772  15.835   9.842 -0.3181  0.1100 -0.1985
  229loPI   GL2 3654  17.013  15.921   9.863 -0.0727  0.2079  0.0714
  229loPI   C1A 3655  16.590  15.719   9.439 -0.0104 -0.0853 -0.1101
  229loPI   C2A 3656  16.809  15.713   8.992 -0.0264 -0.0071  0.4138
  229loPI   C3A 3657  16.740  15.810   8.490  0.1304 -0.0505  0.2364
  229loPI   C4A 3658  16.664  16.038   8.134  0.1507  0.1574  0.1316
  229loPI   C5A 3659  16.959  16.078   7.860  0.0230  0.0784 -0.0693
  229loPI   C6A 3660  17.028  16.204   7.435 -0.0202 -0.2112 -0.1376
  229loPI   C1B 3661  17.180  16.063   9.452  0.0358  0.0350  0.0821
  229loPI   C2B 3662  17.307  16.136   9.093 -0.1929  0.1321  0.0120
  229loPI   C3B 3663  17.192  15.958   8.793 -0.1760  0.1302 -0.1512
  229loPI   C4B 3664  17.160  15.976   8.324  0.1723  0.0947 -0.1190
  230loPI    C1 3665  12.286  16.797  10.501 -0.1345  0.0928  0.2808
  230loPI    C2 3666  12.478  17.122  10.635  0.4024 -0.0392 -0.1354
  230loPI    C3 3667  12.586  16.758  10.763 -0.1275 -0.0719  0.2493
  230loPI   PO4 3668  12.185  16.908  10.244 -0.4204  0.1985 -0.2573
  230loPI   GL1 3669  11.880  16.861   9.796  0.1679  0.2797 -0.2301
  230loPI   GL2 3670  11.957  16.618   9.762 -0.2101 -0.1026  0.3600
  230loPI   C1A 3671  11.901  17.168   9.445  0.3045  0.0780  0.1243
  230loPI   C2A 3672  11.884  17.135   8.968 -0.2689  0.3581 -0.1533
  230loPI   C3A 3673  11.737  17.093   8.571  0.0190  0.3709  0.0667
  230loPI   C4A 3674  11.937  17.079   8.138  0.1097  0.0486 -0.1707
  230loPI   C5A 3675  11.683  17.115   7.833 -0.0077  0.2145 -0.0200
  230loPI   C6A 3676  11.584  17.362   7.499 -0.0777 -0.1128 -0.2255
  230loPI   C1B 3677  11.902  16.711   9.344 -0.0340 -0.0780 -0.0341
  230loPI   C2B 3678  11.850  16.656   9.065 -0.0096  0.4182 -0.2631
  230loPI   C3B 3679  11.809  16.585   8.596  0.2104  0.1101 -0.0383
  230loPI   C4B 3680  11.798  16.603   8.125 -0.3578  0.5497 -0.3750
  231loPI    C1 3681  12.469   6.544  10.261  0.1519  0.3872  0.0432
  231loPI    C2 3682  12.591   6.636  10.630 -0.0228  0.2120  0.1467
  231loPI    C3 3683  12.210   6.693  10.526 -0.0335  0.0176  0.0763
  231loPI   PO4 3684  12.648   6.486   9.963 -0.2117 -0.0999 -0.0629
  231loPI   GL1 3685  12.665   6.238   9.777 -0.1897 -0.3218  0.1949
  231loPI   GL2 3686  12.762   5.887   9.781 -0.1528  0.0043  0.3020
  231loPI   C1A 3687  12.748   6.310   9.350 -0.1191  0.0772 -0.0954
  231loPI   C2A 3688  12.593   6.345   8.910  0.3747  0.0474 -0.6014
  231loPI   C3A 3689  12.394   6.546   8.536  0.5031 -0.2883 -0.0373
  231loPI   C4A 3690  12.184   6.735   8.192 -0.1306  0.1316  0.0398
  231loPI   C5A 3691  12.109   6.994   7.874 -0.1016  0.0093 -0.1058
  231loPI   C6A 3692  12.178   7.124   7.450  0.1685  0.3455 -0.0964
  231loPI   C1B 3693  12.692   5.769   9.281  0.0074  0.1261  0.1587
  231loPI   C2B 3694  12.563   5.784   8.781  0.0022 -0.2497  0.0364
  231loPI   C3B 3695  12.495   6.085   8.491  0.1917  0.3984  0.2269
  231loPI   C4B 3696  12.263   6.275   8.065 -0.3787  0.0547 -0.2288
  232loPI    C1 3697   9.157  17.316  10.707 -0.2749  0.2198  0.0260
  232loPI    C2 3698   8.796  17.148  10.748 -0.0768 -0.2800 -0.1972
  232loPI    C3 3699   9.068  17.112  11.039 -0.1470 -0.0463 -0.1003
  232loPI   PO4 3700   9.211  17.266  10.453  0.0499  0.3831 -0.0604
  232loPI   GL1 3701   9.202  17.247   9.955  0.0996 -0.2042 -0.0547
  232loPI   GL2 3702   8.979  17.556  10.077  0.1365  0.0359 -0.0667
  232loPI   C1A 3703   9.364  17.185   9.543  0.1234 -0.0446  0.0907
  232loPI   C2A 3704   9.545  17.400   9.151 -0.2304  0.3533 -0.0898
  232loPI   C3A 3705   9.626  17.227   8.835  0.0137  0.2899 -0.2404
  232loPI   C4A 3706   9.602  17.156   8.379 -0.0055 -0.0449  0.1968
  232loPI   C5A 3707   9.684  16.952   8.040 -0.0399 -0.1347  0.0749
  232loPI   C6A 3708   9.287  16.684   7.793 -0.1028 -0.0266  0.1379
  232loPI   C1B 3709   8.771  17.527   9.644 -0.1099  0.3875 -0.1118
  232loPI   C2B 3710   8.624  17.527   9.228  0.1555 -0.1313 -0.2457
  232loPI   C3B 3711   8.688  17.537   8.740 -0.6810  0.0690  0.0742
  232loPI   C4B 3712   8.797  17.665   8.290 -0.0582  0.1593  0.1114
  233loPI    C1 3713   6.269   2.365  10.195  0.0138  0.1262 -0.0041
  233loPI    C2 3714   6.623   2.440  10.024 -0.0109  0.0827 -0.0747
  233loPI    C3 3715   6.603   2.362  10.416  0.0830 -0.1208 -0.1090
  233loPI   PO4 3716   6.188   2.272   9.911 -0.3061  0.0832  0.0511
  233loPI   GL1 3717   5.992   2.198   9.542  0.1818  0.0918  0.1704
  233loPI   GL2 3718   6.079   1.918   9.389 -0.1722 -0.3189 -0.3883
  233loPI   C1A 3719   6.175   2.390   9.200 -0.0550 -0.3502  0.0142
  233loPI   C2A 3720   5.922   2.427   8.730 -0.0014  0.0163 -0.0424
  233loPI   C3A 3721   5.697   2.387   8.400  0.0656 -0.0733 -0.0487
  233loPI   C4A 3722   5.379   2.569   8.177 -0.1776 -0.0882  0.0713
  233loPI   C5A 3723   4.984   2.568   8.240  0.3702 -0.1214  0.0570
  233loPI   C6A 3724   4.607   2.652   8.211 -0.1681  0.0607  0.0138
  233loPI   C1B 3725   6.119   1.722   9.033 -0.0342 -0.1217 -0.2403
  233loPI   C2B 3726   5.843   1.586   8.661 -0.1481  0.2031 -0.0912
  233loPI   C3B 3727   5.689   1.691   8.295 -0.2163  0.3361  0.0110
  233loPI   C4B 3728   5.252   1.555   8.222  0.2367 -0.0172  0.2378
  234loPI    C1 3729   6.196  12.919  10.155 -0.1074 -0.2379 -0.0384
  234loPI    C2 3730   5.933  13.103  10.393 -0.0260  0.0164 -0.1417
  234loPI    C3 3731   5.827  12.770  10.199 -0.1822 -0.0357  0.0298
  234loPI   PO4 3732   6.261  13.128   9.988 -0.2995  0.0707 -0.1097
  234loPI   GL1 3733   6.408  13.212   9.603 -0.1748  0.2135 -0.1115
  234loPI   GL2 3734   6.811  13.120   9.524 -0.3111 -0.0519  0.0298
  234loPI   C1A 3735   6.325  13.134   9.164  0.0940  0.0052 -0.0649
  234loPI   C2A 3736   6.404  12.927   8.860 -0.2326 -0.0763  0.1417
  234loPI   C3A 3737   6.590  13.004   8.479  0.1534 -0.0576  0.1657
  234loPI   C4A 3738   6.564  12.846   8.133  0.0407  0.0781  0.3411
  234loPI   C5A 3739   6.598  12.615   7.730  0.1910 -0.2472 -0.1623
  234loPI   C6A 3740   6.365  12.217   7.515  0.0640  0.3853 -0.0706
  234loPI   C1B 3741   6.834  13.084   8.970 -0.0917 -0.0810  0.0320
  234loPI   C2B 3742   7.043  13.191   8.592 -0.0070 -0.1300  0.1790
  234loPI   C3B 3743   6.994  13.182   8.169  0.4611  0.0662  0.0316
  234loPI   C4B 3744   6.731  13.126   7.797  0.0408  0.0164  0.4292
  235loPI    C1 3745  11.338  11.571  10.192 -0.1911  0.1169 -0.1471
  235loPI    C2 3746  11.092  11.597  10.506 -0.1475 -0.1101 -0.0925
  235loPI    C3 3747  11.431  11.808  10.499 -0.0869 -0.2004  0.0713
  235loPI   PO4 3748  11.321  11.417  10.104  0.0001  0.3802 -0.1159
  235loPI   GL1 3749  11.523  11.224   9.862 -0.0813 -0.4302 -0.1260
  235loPI   GL2 3750  11.790  11.304   9.835  0.1467  0.0859 -0.2714
  235loPI   C1A 3751  11.439  11.118   9.456 -0.4186 -0.0066  0.3171
  235loPI   C2A 3752  11.433  11.007   8.928 -0.1879 -0.1565 -0.1392
  235loPI   C3A 3753  11.489  10.893   8.510 -0.2780  0.2010 -0.1120
  235loPI   C4A 3754  11.614  10.673   8.121  0.3654 -0.0644  0.0574
  235loPI   C5A 3755  11.875  10.869   7.749  0.3177 -0.2920  0.0299
  235loPI   C6A 3756  11.696  10.825   7.383 -0.2700  0.1143  0.0461
  235loPI   C1B 3757  11.924  11.319   9.382 -0.2558 -0.0386 -0.4367
  235loPI   C2B 3758  11.910  11.219   8.939 -0.2994 -0.0426  0.0966
  235loPI   C3B 3759  12.079  11.200   8.582  0.1444 -0.0157  0.2371
  235loPI   C4B 3760  11.841  11.239   8.271 -0.0165  0.2595 -0.1550
  236loPI    C1 3761   0.949   9.425  10.193  0.0321  0.1976  0.0159
  236loPI    C2 3762   0.732   9.271  10.492  0.0395  0.1269 -0.0150
  236loPI    C3 3763   0.738   9.666  10.433  0.0749  0.1450  0.1071
  236loPI   PO4 3764   0.904   9.214  10.034 -0.3953 -0.1075 -0.1175
  236loPI   GL1 3765   0.714   9.389   9.690  0.1839  0.1280  0.2586
  236loPI   GL2 3766   0.664   9.078   9.581 -0.1098  0.1474  0.1598
  236loPI   C1A 3767   0.950   9.463   9.298  0.1311  0.2108 -0.1222
  236loPI   C2A 3768   0.786   9.362   8.817  0.0227  0.3831 -0.2776
  236loPI   C3A 3769   0.775   9.304   8.396 -0.0153 -0.1236 -0.2368
  236loPI   C4A 3770   0.847   9.313   8.016 -0.0989 -0.1157 -0.2232
  236loPI   C5A 3771   0.951   9.211   7.644 -0.0867 -0.3290  0.0931
  236loPI   C6A 3772   1.113   9.287   7.278 -0.0661 -0.2989 -0.2447
  236loPI   C1B 3773   0.537   8.930   9.131 -0.0770  0.1886 -0.1814
  236loPI   C2B 3774   0.534   8.971   8.663 -0.3480 -0.0524 -0.1171
  236loPI   C3B 3775   0.434   9.045   8.172 -0.0212  0.1851 -0.0205
  236loPI   C4B 3776   0.417   9.168   7.699  0.0928 -0.1254  0.1728
  237loPI    C1 3777  16.154   7.865   9.989 -0.0843 -0.1078  0.2277
  237loPI    C2 3778  15.985   7.820  10.349 -0.3122  0.0362  0.1410
  237loPI    C3 3779  16.226   8.132  10.278 -0.1437 -0.0760  0.2134
  237loPI   PO4 3780  16.218   7.639   9.898 -0.1188  0.0872 -0.2898
  237loPI   GL1 3781  16.304   7.349   9.582 -0.1931  0.0653  0.1658
  237loPI   GL2 3782  16.041   7.203   9.665  0.2390  0.1431 -0.0786
  237loPI   C1A 3783  16.348   7.428   9.182  0.2887 -0.2355  0.0467
  237loPI   C2A 3784  16.330   7.475   8.815  0.1473 -0.1800 -0.1491
  237loPI   C3A 3785  16.319   7.585   8.387  0.3368 -0.2593 -0.0913
  237loPI   C4A 3786  15.983   7.675   8.138 -0.1870  0.1757 -0.2307
  237loPI   C5A 3787  15.632   7.997   7.903  0.0643 -0.2148 -0.2918
  237loPI   C6A 3788  15.287   7.844   7.650 -0.2749 -0.0720 -0.0226
  237loPI   C1B 3789  15.839   7.323   9.303  0.1842  0.1316 -0.0732
  237loPI   C2B 3790  15.838   7.214   8.861  0.2261  0.0040  0.2510
  237loPI   C3B 3791  16.042   7.192   8.478  0.3332 -0.2349  0.0010
  237loPI   C4B 3792  16.090   7.139   8.068 -0.0676 -0.2849  0.2013
  238loPI    C1 3793  13.258  13.902  10.238 -0.2010  0.0985 -0.0467
  238loPI    C2 3794  13.037  13.911  10.571  0.1038 -0.0487  0.1634
  238loPI    C3 3795  13.318  14.189  10.509  0.1397 -0.1001  0.0944
  238loPI   PO4 3796  13.039  13.888  10.068 -0.2771  0.0842 -0.0133
  238loPI   GL1 3797  12.986  13.875   9.711  0.1859  0.0019 -0.2351
  238loPI   GL2 3798  13.301  13.944   9.651  0.1551  0.1270 -0.1552
  238loPI   C1A 3799  12.910  13.930   9.276  0.1120 -0.0698 -0.1563
  238loPI   C2A 3800  13.055  14.027   8.871  0.1040  0.0322  0.2124
  238loPI   C3A 3801  13.076  13.794   8.511  0.1230  0.1610  0.2214
  238loPI   C4A 3802  12.749  13.729   8.314 -0.2546  0.0460  0.1479
  238loPI   C5A 3803  12.529  14.047   8.047 -0.4637  0.0336 -0.0077
  238loPI   C6A 3804  12.545  14.495   7.849  0.0782 -0.0271 -0.0743
  238loPI   C1B 3805  13.426  14.107   9.270 -0.1629  0.1781 -0.0363
  238loPI   C2B 3806  13.715  14.243   8.998  0.2038  0.0086  0.0876
  238loPI   C3B 3807  13.852  14.300   8.477 -0.0028  0.0092 -0.1749
  238loPI   C4B 3808  14.175  14.426   8.159 -0.3833 -0.0305 -0.4148
  239loPI    C1 3809   5.833   9.310  10.411 -0.2449 -0.0803 -0.0187
  239loPI    C2 3810   5.861   9.127  10.765  0.0597  0.0344  0.0193
  239loPI    C3 3811   5.942   9.517  10.735 -0.2294  0.0853 -0.1286
  239loPI   PO4 3812   5.975   9.168  10.198 -0.1418 -0.2022  0.0213
  239loPI   GL1 3813   6.173   9.287   9.794  0.0024 -0.1862  0.2892
  239loPI   GL2 3814   5.803   9.105   9.691  0.2238 -0.2651  0.1726
  239loPI   C1A 3815   6.206   9.414   9.382  0.2080 -0.1105 -0.3309
  239loPI   C2A 3816   6.159   9.325   8.982  0.1312 -0.0875 -0.0889
  239loPI   C3A 3817   6.045   9.345   8.557 -0.0169 -0.0884 -0.1702
  239loPI   C4A 3818   6.371   9.291   8.122  0.0394  0.2709 -0.1081
  239loPI   C5A 3819   6.502   9.601   7.812  0.0063 -0.1140 -0.0532
  239loPI   C6A 3820   6.285   9.672   7.429 -0.0492 -0.1477  0.1853
  239loPI   C1B 3821   5.588   9.195   9.259  0.2516  0.1004  0.0270
  239loPI   C2B 3822   5.604   9.404   8.889  0.0666  0.1279 -0.2630
  239loPI   C3B 3823   5.616   9.577   8.464 -0.1883  0.0899 -0.2834
  239loPI   C4B 3824   5.571   9.563   8.007 -0.0645 -0.1500 -0.0916
  240loPI    C1 3825   9.946   4.724  10.627  0.1526  0.0569 -0.0287
  240loPI    C2 3826  10.071   4.754  11.006 -0.0729 -0.0199  0.0536
  240loPI    C3 3827  10.223   4.471  10.767  0.1184  0.0712  0.0657
  240loPI   PO4 3828   9.946   4.891  10.530 -0.0600 -0.2235  0.1225
  240loPI   GL1 3829   9.837   4.835  10.088  0.2285 -0.1663 -0.1218
  240loPI   GL2 3830   9.461   4.873  10.005 -0.1417  0.2154  0.0281
  240loPI   C1A 3831   9.977   4.876   9.629 -0.1348  0.0135 -0.0594
  240loPI   C2A 3832   9.948   4.853   9.303  0.2774  0.2799  0.1344
  240loPI   C3A 3833   9.911   4.847   8.903 -0.3307  0.0782  0.0376
  240loPI   C4A 3834   9.929   4.767   8.445  0.3721 -0.3618 -0.0987
  240loPI   C5A 3835   9.743   4.935   7.992 -0.1332  0.1408 -0.4443
  240loPI   C6A 3836   9.627   5.250   7.777 -0.0574 -0.0586 -0.1626
  240loPI   C1B 3837   9.484   4.994   9.579  0.0906  0.0927 -0.2446
  240loPI   C2B 3838   9.414   5.013   9.148 -0.2764 -0.1299 -0.0509
  240loPI   C3B 3839   9.388   5.048   8.775  0.1393  0.0465  0.1607
  240loPI   C4B 3840   9.437   4.887   8.373  0.0758 -0.0920 -0.1277
  241loPI    C1 3841   4.278   6.543  10.454 -0.1138 -0.2193 -0.1860
  241loPI    C2 3842   3.962   6.349  10.604 -0.0935 -0.1390 -0.0361
  241loPI    C3 3843   4.093   6.682  10.781 -0.0252 -0.0810 -0.1940
  241loPI   PO4 3844   4.218   6.472  10.133 -0.2532 -0.1614 -0.0278
  241loPI   GL1 3845   4.191   6.608   9.773 -0.1662 -0.0321  0.1050
  241loPI   GL2 3846   4.229   6.377   9.427  0.0015 -0.0658 -0.1076
  241loPI   C1A 3847   3.864   6.561   9.635  0.0092 -0.0729 -0.0947
  241loPI   C2A 3848   3.766   6.577   9.191  0.1232  0.2253 -0.0865
  241loPI   C3A 3849   3.666   6.691   8.765  0.0630  0.3150  0.3248
  241loPI   C4A 3850   3.668   6.502   8.384 -0.1431  0.2864 -0.2022
  241loPI   C5A 3851   3.639   6.116   8.100 -0.0453 -0.1520  0.1881
  241loPI   C6A 3852   3.298   5.861   8.109  0.1238  0.4339 -0.0680
  241loPI   C1B 3853   4.110   6.322   8.939  0.2299 -0.0523 -0.0817
  241loPI   C2B 3854   4.119   6.259   8.496  0.0568 -0.4506  0.0187
  241loPI   C3B 3855   4.265   6.029   8.173 -0.1156 -0.3923 -0.0529
  241loPI   C4B 3856   4.327   5.684   7.908 -0.2703 -0.3000  0.2094
  242loPI    C1 3857  16.192  12.821  10.377  0.0907 -0.0211 -0.2294
  242loPI    C2 3858  15.940  12.513  10.338  0.0585 -0.0182 -0.0526
  242loPI    C3 3859  15.949  12.723  10.678  0.0646  0.1910 -0.1797
  242loPI   PO4 3860  16.391  12.692  10.183  0.0390 -0.4001  0.1893
  242loPI   GL1 3861  16.517  12.489   9.867  0.1804 -0.1343 -0.2968
  242loPI   GL2 3862  16.779  12.329   9.892  0.1934 -0.2335  0.0004
  242loPI   C1A 3863  16.600  12.527   9.482 -0.0629  0.1738 -0.1481
  242loPI   C2A 3864  16.478  12.392   9.114  0.0297 -0.2311 -0.0117
  242loPI   C3A 3865  16.451  12.503   8.678  0.1040  0.0335  0.3161
  242loPI   C4A 3866  16.289  12.514   8.259 -0.1798  0.0330 -0.0911
  242loPI   C5A 3867  16.200  12.602   7.762 -0.1151 -0.0154 -0.0272
  242loPI   C6A 3868  15.911  12.873   7.567  0.0479  0.1345  0.0352
  242loPI   C1B 3869  16.772  11.951   9.580 -0.0074 -0.3180 -0.3375
  242loPI   C2B 3870  16.662  11.919   9.129  0.0378  0.1218  0.1396
  242loPI   C3B 3871  16.535  11.922   8.736  0.0645  0.1144  0.1034
  242loPI   C4B 3872  16.426  11.957   8.311 -0.0251 -0.0495 -0.1514
  243loPI    C1 3873   7.488   5.422  10.662  0.0265 -0.0724 -0.0802
  243loPI    C2 3874   7.711   5.569  10.959 -0.1048  0.0352 -0.0338
  243loPI    C3 3875   7.365   5.387  11.041 -0.0347 -0.1322 -0.1055
  243loPI   PO4 3876   7.658   5.334  10.522 -0.1107  0.0426  0.0953
  243loPI   GL1 3877   7.883   5.332  10.094  0.1047  0.0725  0.3794
  243loPI   GL2 3878   8.122   4.956  10.018  0.2983  0.2672  0.0293
  243loPI   C1A 3879   7.987   5.329   9.649  0.1109 -0.1342 -0.0151
  243loPI   C2A 3880   8.044   5.275   9.206 -0.1171 -0.1839  0.0430
  243loPI   C3A 3881   8.042   5.351   8.738 -0.0248  0.3311 -0.2078
  243loPI   C4A 3882   8.003   5.527   8.346 -0.1736 -0.3056  0.0186
  243loPI   C5A 3883   8.234   5.718   8.024  0.0166  0.0771 -0.1311
  243loPI   C6A 3884   8.542   6.043   7.754 -0.3440 -0.0911  0.1787
  243loPI   C1B 3885   8.386   4.990   9.564  0.1079  0.0815  0.0506
  243loPI   C2B 3886   8.513   5.033   9.195  0.1586  0.1916  0.0777
  243loPI   C3B 3887   8.471   5.143   8.743 -0.0953 -0.0961 -0.1673
  243loPI   C4B 3888   8.239   5.093   8.374  0.1970 -0.0591 -0.5600
  244loPI    C1 3889  16.236   9.966  10.579 -0.3099 -0.1011 -0.1975
  244loPI    C2 3890  15.909   9.769  10.462 -0.2630 -0.0671 -0.3905
  244loPI    C3 3891  15.918   9.946  10.821 -0.4714 -0.0317 -0.4011
  244loPI   PO4 3892  16.341  10.091  10.411  0.1919  0.3169 -0.0067
  244loPI   GL1 3893  16.450   9.939   9.982  0.0046  0.5101  0.1731
  244loPI   GL2 3894  16.721   9.820   9.877 -0.1074  0.3001 -0.1695
  244loPI   C1A 3895  16.197   9.933   9.624 -0.2656  0.3327  0.1491
  244loPI   C2A 3896  15.945   9.904   9.233 -0.1207  0.1511 -0.1695
  244loPI   C3A 3897  15.920   9.890   8.839  0.0714  0.0141 -0.0233
  244loPI   C4A 3898  15.962  10.138   8.486 -0.1033  0.0032  0.0630
  244loPI   C5A 3899  16.126  10.409   8.131 -0.1437 -0.2185  0.0391
  244loPI   C6A 3900  16.392  10.641   8.082 -0.0218 -0.0572 -0.2005
  244loPI   C1B 3901  16.651   9.613   9.488  0.1678 -0.0785  0.0485
  244loPI   C2B 3902  16.464   9.699   9.084  0.3040  0.0046  0.0203
  244loPI   C3B 3903  16.432   9.537   8.657  0.1505 -0.4332  0.1160
  244loPI   C4B 3904  16.697   9.313   8.225  0.2122  0.0320 -0.0724
  245loPI    C1 3905  14.403  18.304  10.593  0.0248  0.0227  0.1921
  245loPI    C2 3906  14.547  18.173  10.942 -0.1744  0.0306  0.2784
  245loPI    C3 3907  14.153  18.221  10.894 -0.1606 -0.1155  0.0024
  245loPI   PO4 3908  14.782  18.322  10.474  0.0635  0.0643  0.0491
  245loPI   GL1 3909  14.981  18.301  10.114 -0.2813 -0.0271  0.1080
  245loPI   GL2 3910  15.296  18.122   9.893  0.1616  0.2893  0.0692
  245loPI   C1A 3911  15.016  18.512   9.711  0.2573  0.1342 -0.2189
  245loPI   C2A 3912  15.264  18.530   9.412  0.0661 -0.3196 -0.3547
  245loPI   C3A 3913  15.505  18.712   9.025 -0.0492 -0.1609 -0.1602
  245loPI   C4A 3914  15.823  18.514   8.829  0.0756 -0.1079  0.2309
  245loPI   C5A 3915  16.001  18.143   8.588 -0.2262  0.1837  0.1860
  245loPI   C6A 3916  15.886  17.702   8.439  0.0304  0.2144 -0.2986
  245loPI   C1B 3917  15.589  18.093   9.686 -0.4161  0.2613  0.4095
  245loPI   C2B 3918  15.795  17.985   9.311 -0.1282 -0.1787  0.1929
  245loPI   C3B 3919  15.649  18.063   8.896  0.3656  0.4092  0.0119
  245loPI   C4B 3920  15.407  18.065   8.492 -0.1788  0.1370 -0.1591
  246loPI    C1 3921   5.995   4.434  10.469  0.0185 -0.0136 -0.1910
  246loPI    C2 3922   5.709   4.521  10.204 -0.0953  0.0446 -0.0504
  246loPI    C3 3923   5.796   4.780  10.496  0.0920  0.0209 -0.0843
  246loPI   PO4 3924   6.229   4.287  10.332  0.0561 -0.1504  0.1036
  246loPI   GL1 3925   6.380   4.306   9.978 -0.1069  0.0862  0.0713
  246loPI   GL2 3926   6.170   4.214   9.780 -0.0140  0.0658 -0.0372
  246loPI   C1A 3927   6.428   4.593   9.640 -0.1635 -0.5902  0.0168
  246loPI   C2A 3928   6.439   4.624   9.191 -0.0202 -0.2111  0.1107
  246loPI   C3A 3929   6.393   4.513   8.782 -0.1561  0.2118 -0.1461
  246loPI   C4A 3930   6.407   4.629   8.281  0.5108  0.1276 -0.3603
  246loPI   C5A 3931   6.544   4.309   7.914 -0.1250  0.2138 -0.0441
  246loPI   C6A 3932   6.218   4.161   7.651 -0.3249  0.1496  0.0978
  246loPI   C1B 3933   6.011   4.109   9.401 -0.1019 -0.2638  0.0575
  246loPI   C2B 3934   6.092   4.235   9.010  0.2563  0.0798 -0.1197
  246loPI   C3B 3935   6.041   4.199   8.638 -0.4142  0.4517  0.0718
  246loPI   C4B 3936   6.093   4.274   8.168  0.0285 -0.1448 -0.1385
  247loPI    C1 3937   8.139  13.858   9.749  0.1586  0.1625  0.0772
  247loPI    C2 3938   8.204  13.504   9.575  0.0501  0.1647  0.0315
  247loPI    C3 3939   8.456  13.638   9.855  0.1880  0.1304 -0.0751
  247loPI   PO4 3940   8.077  14.053   9.545  0.3148 -0.0181 -0.0225
  247loPI   GL1 3941   8.133  14.433   9.313 -0.3564  0.0296  0.1591
  247loPI   GL2 3942   8.223  14.212   9.124 -0.1261 -0.2684  0.0372
  247loPI   C1A 3943   7.842  14.607   8.965  0.0230  0.1242 -0.0316
  247loPI   C2A 3944   7.970  14.569   8.418  0.0610 -0.0873 -0.0688
  247loPI   C3A 3945   8.099  14.660   8.081 -0.4304 -0.2602 -0.0943
  247loPI   C4A 3946   8.145  14.898   7.742 -0.1360  0.0828  0.0036
  247loPI   C5A 3947   8.233  15.327   7.597  0.0975 -0.2639 -0.1961
  247loPI   C6A 3948   8.046  15.680   7.752 -0.0125 -0.2577  0.1167
  247loPI   C1B 3949   8.198  14.155   8.748  0.2286  0.2135  0.1749
  247loPI   C2B 3950   8.214  14.141   8.334 -0.1609 -0.0491 -0.0149
  247loPI   C3B 3951   8.189  13.892   7.882 -0.1610 -0.0849 -0.3103
  247loPI   C4B 3952   8.436  13.623   7.562 -0.0337 -0.2589 -0.2279
  248loPI    C1 3953   4.598   5.368  10.559 -0.2313  0.2078 -0.0826
  248loPI    C2 3954   4.842   5.450  10.865 -0.0961 -0.3801 -0.0222
  248loPI    C3 3955   4.453   5.386  10.932 -0.2192  0.2457 -0.0797
  248loPI   PO4 3956   4.541   5.547  10.355  0.1513 -0.1267 -0.1273
  248loPI   GL1 3957   4.704   5.464   9.974 -0.3570  0.0936  0.0858
  248loPI   GL2 3958   4.518   5.748   9.783  0.0070  0.1255 -0.1695
  248loPI   C1A 3959   4.836   5.394   9.592  0.0553  0.2067  0.5472
  248loPI   C2A 3960   4.877   5.250   9.098 -0.0470  0.1889 -0.1294
  248loPI   C3A 3961   5.062   5.231   8.702  0.0351  0.0864  0.1955
  248loPI   C4A 3962   5.179   5.314   8.218  0.1408 -0.0223  0.2049
  248loPI   C5A 3963   4.952   5.482   7.766 -0.2338  0.0393  0.3826
  248loPI   C6A 3964   4.874   5.542   7.309  0.0710 -0.0229 -0.0096
  248loPI   C1B 3965   4.497   5.961   9.398 -0.3264  0.2035 -0.3449
  248loPI   C2B 3966   4.424   5.909   9.010 -0.1249  0.0279  0.2774
  248loPI   C3B 3967   4.250   5.812   8.593 -0.1370  0.0290 -0.3132
  248loPI   C4B 3968   4.289   5.465   8.317 -0.2665  0.1192 -0.1110
  249loPI    C1 3969   5.415   6.008  10.197  0.0899  0.1195  0.0023
  249loPI    C2 3970   5.211   6.154  10.508  0.0284  0.1315 -0.0432
  249loPI    C3 3971   5.609   6.115  10.530  0.0084 -0.0081  0.0918
  249loPI   PO4 3972   5.356   5.790  10.154 -0.0904 -0.3540 -0.4090
  249loPI   GL1 3973   5.264   5.509   9.847  0.0833 -0.2058 -0.1165
  249loPI   GL2 3974   5.172   5.167   9.829 -0.1473  0.0993  0.1968
  249loPI   C1A 3975   5.319   5.434   9.378  0.2962  0.0447 -0.0314
  249loPI   C2A 3976   5.635   5.368   9.122 -0.0469 -0.2317  0.0701
  249loPI   C3A 3977   5.659   5.424   8.622 -0.0245 -0.0471  0.3334
  249loPI   C4A 3978   5.773   5.425   8.139 -0.0761  0.5151 -0.2469
  249loPI   C5A 3979   6.207   5.419   7.878 -0.0529 -0.1686  0.2432
  249loPI   C6A 3980   6.369   5.643   7.521 -0.1688 -0.0197  0.3115
  249loPI   C1B 3981   5.079   4.891   9.435 -0.1505 -0.1943  0.0450
  249loPI   C2B 3982   5.097   4.777   9.012  0.0368  0.0316 -0.2885
  249loPI   C3B 3983   5.174   4.648   8.600  0.1228  0.0951 -0.1985
  249loPI   C4B 3984   4.965   4.837   8.303 -0.0413 -0.0299 -0.0319
  250loPI    C1 3985   8.425  15.548  10.080 -0.1391  0.0049  0.3021
  250loPI    C2 3986   8.346  15.156  10.056 -0.0109  0.0001 -0.1160
  250loPI    C3 3987   8.531  15.342   9.754 -0.0871  0.3894  0.0705
  250loPI   PO4 3988   8.170  15.764  10.101 -0.1914  0.1519  0.1112
  250loPI   GL1 3989   8.075  16.079   9.683  0.2873 -0.0386 -0.1898
  250loPI   GL2 3990   8.292  16.280   9.667  0.1950  0.1742  0.1147
  250loPI   C1A 3991   8.217  15.938   9.269  0.1200 -0.1295 -0.1063
  250loPI   C2A 3992   8.263  16.040   8.880 -0.1609  0.0552  0.0325
  250loPI   C3A 3993   8.376  16.295   8.551 -0.2426 -0.2165 -0.2792
  250loPI   C4A 3994   8.460  16.462   8.103  0.0686  0.2796  0.2233
  250loPI   C5A 3995   8.677  16.381   7.722 -0.0678  0.2231  0.2072
  250loPI   C6A 3996   8.832  16.112   7.418  0.0704  0.0154  0.1983
  250loPI   C1B 3997   8.413  16.413   9.291 -0.1050 -0.2065 -0.3085
  250loPI   C2B 3998   8.601  16.622   8.893 -0.1726  0.2477 -0.0811
  250loPI   C3B 3999   8.729  16.657   8.465 -0.0298  0.2900 -0.2101
  250loPI   C4B 4000   8.816  16.809   7.950  0.0448  0.2122 -0.2230
  251loPI    C1 4001   0.005   9.226  10.270 -0.0499  0.0527  0.0302
  251loPI    C2 4002   0.264   9.007  10.481  0.1876  0.2316 -0.0703
  251loPI    C3 4003   0.190   9.385  10.587  0.2104  0.2814 -0.2302
  251loPI   PO4 4004  -0.014   9.186  10.033 -0.0974  0.0485 -0.0490
  251loPI   GL1 4005  -0.072   8.772   9.770 -0.1604 -0.0751 -0.0411
  251loPI   GL2 4006   0.316   8.670   9.602 -0.2006 -0.3363  0.0043
  251loPI   C1A 4007  -0.044   9.014   9.400  0.2681 -0.1447 -0.2563
  251loPI   C2A 4008  -0.130   9.033   8.960  0.2634 -0.1052  0.1883
  251loPI   C3A 4009  -0.408   9.035   8.564 -0.2864 -0.0537  0.0802
  251loPI   C4A 4010  -0.454   9.025   8.069 -0.2193 -0.1326  0.1269
  251loPI   C5A 4011  -0.457   9.167   7.665 -0.0839 -0.0686  0.0209
  251loPI   C6A 4012  -0.532   9.201   7.164  0.1946  0.1140  0.3261
  251loPI   C1B 4013   0.208   8.627   9.124 -0.1168  0.2961  0.1412
  251loPI   C2B 4014   0.062   8.720   8.624 -0.0820 -0.0094 -0.3375
  251loPI   C3B 4015   0.045   8.862   8.195  0.1616  0.0795 -0.1591
  251loPI   C4B 4016  -0.022   8.934   7.757 -0.1581  0.2813  0.3766
  252loPI    C1 4017  14.320   1.974  10.440  0.1834  0.1910  0.0265
  252loPI    C2 4018  14.542   2.172  10.708  0.2308  0.1367  0.0275
  252loPI    C3 4019  14.143   2.178  10.735  0.2399 -0.0645  0.2414
  252loPI   PO4 4020  14.568   2.036  10.214  0.0779  0.0663  0.3876
  252loPI   GL1 4021  14.759   2.239   9.921  0.2769  0.0263 -0.3206
  252loPI   GL2 4022  15.077   2.338   9.874 -0.2701  0.3130 -0.0809
  252loPI   C1A 4023  14.757   1.970   9.573  0.1787 -0.0814 -0.1725
  252loPI   C2A 4024  14.857   1.966   9.192  0.1492  0.2017 -0.1844
  252loPI   C3A 4025  14.852   2.029   8.796  0.2147 -0.2710  0.0640
  252loPI   C4A 4026  14.582   1.832   8.463 -0.3734  0.0467 -0.0857
  252loPI   C5A 4027  14.675   1.543   8.252  0.2297  0.0434  0.0788
  252loPI   C6A 4028  15.040   1.532   8.079  0.3078  0.0318  0.0632
  252loPI   C1B 4029  15.067   2.434   9.426 -0.1619  0.0600 -0.4265
  252loPI   C2B 4030  15.050   2.421   8.976 -0.2814  0.4806 -0.0843
  252loPI   C3B 4031  15.024   2.538   8.534 -0.1891 -0.0014 -0.0905
  252loPI   C4B 4032  15.082   2.605   8.148  0.0446 -0.2253 -0.1517
  253loPI    C1 4033  15.951  11.808  10.310  0.2908  0.3564 -0.1863
  253loPI    C2 4034  16.011  11.772  10.704  0.0230 -0.1968 -0.1869
  253loPI    C3 4035  16.310  11.699  10.448  0.0944 -0.2128 -0.0994
  253loPI   PO4 4036  15.729  12.076  10.237  0.3807  0.1166 -0.2288
  253loPI   GL1 4037  15.550  12.038   9.794  0.3390 -0.0228 -0.0989
  253loPI   GL2 4038  15.255  12.138   9.752  0.2861 -0.0237 -0.3329
  253loPI   C1A 4039  15.728  12.040   9.376  0.1453 -0.0470 -0.4407
  253loPI   C2A 4040  15.637  12.023   9.021 -0.0836 -0.3541  0.0753
  253loPI   C3A 4041  15.556  12.081   8.624  0.1001  0.0349  0.0046
  253loPI   C4A 4042  15.195  12.197   8.286  0.0073 -0.1209  0.1837
  253loPI   C5A 4043  15.021  12.485   7.911  0.0243 -0.1630 -0.2945
  253loPI   C6A 4044  14.583  12.624   7.733 -0.0812  0.0777 -0.1539
  253loPI   C1B 4045  15.199  12.117   9.337  0.1503 -0.1892 -0.1392
  253loPI   C2B 4046  15.162  11.999   9.033  0.1336 -0.2254  0.1851
  253loPI   C3B 4047  14.975  12.245   8.743 -0.1093  0.3123  0.5744
  253loPI   C4B 4048  14.723  12.414   8.362 -0.0948 -0.0542 -0.2796
  254loPI    C1 4049  12.378   1.256  10.252 -0.1059  0.1271 -0.1708
  254loPI    C2 4050  12.245   1.115  10.602 -0.3805  0.1478 -0.2642
  254loPI    C3 4051  12.445   0.874  10.352 -0.0540  0.1716 -0.0330
  254loPI   PO4 4052  12.266   1.475  10.205  0.1506  0.2455 -0.1107
  254loPI   GL1 4053  12.288   1.756   9.807  0.1018 -0.0894  0.0810
  254loPI   GL2 4054  12.594   1.534   9.843  0.0638  0.0796 -0.0364
  254loPI   C1A 4055  12.264   1.590   9.423 -0.2805  0.0593  0.0747
  254loPI   C2A 4056  12.178   1.740   9.016 -0.2593 -0.2239  0.2855
  254loPI   C3A 4057  12.272   1.689   8.571  0.0123  0.2119 -0.2683
  254loPI   C4A 4058  12.242   1.731   8.153 -0.2018  0.0778  0.0247
  254loPI   C5A 4059  12.655   1.735   7.890 -0.2940 -0.2346 -0.1030
  254loPI   C6A 4060  12.738   1.919   7.530 -0.1598  0.3466 -0.0428
  254loPI   C1B 4061  12.741   1.386   9.502  0.0909 -0.1186  0.1937
  254loPI   C2B 4062  12.608   1.350   9.119  0.0541  0.1461  0.1446
  254loPI   C3B 4063  12.718   1.381   8.718 -0.1203  0.0872 -0.0821
  254loPI   C4B 4064  12.683   1.405   8.272 -0.0401 -0.2291  0.1414
  255loPI    C1 4065   8.485   4.555  10.389 -0.1140  0.0669  0.0581
  255loPI    C2 4066   8.393   4.692  10.753  0.0292  0.1120  0.0778
  255loPI    C3 4067   8.105   4.641  10.480 -0.0642  0.1789  0.1629
  255loPI   PO4 4068   8.711   4.429  10.485 -0.1110  0.0669  0.1501
  255loPI   GL1 4069   9.084   4.495  10.333  0.3536 -0.0745 -0.0905
  255loPI   GL2 4070   8.986   4.766  10.164 -0.2038 -0.1552  0.2096
  255loPI   C1A 4071   9.135   4.396   9.852  0.4513  0.0230  0.1089
  255loPI   C2A 4072   9.181   4.417   9.375 -0.0215 -0.0942 -0.0504
  255loPI   C3A 4073   9.204   4.436   9.081  0.3437  0.1036  0.0176
  255loPI   C4A 4074   9.104   4.375   8.766 -0.1535  0.3537 -0.3702
  255loPI   C5A 4075   9.178   4.391   8.344  0.3182 -0.0787 -0.2591
  255loPI   C6A 4076   9.244   4.174   7.882  0.5023  0.2761 -0.2627
  255loPI   C1B 4077   9.052   4.860   9.744 -0.1409 -0.2441 -0.1777
  255loPI   C2B 4078   8.993   4.909   9.368 -0.1590  0.0640 -0.1327
  255loPI   C3B 4079   8.950   4.999   8.970 -0.0284 -0.0489 -0.3933
  255loPI   C4B 4080   8.932   4.884   8.533  0.0485  0.0225 -0.1959
  256loPI    C1 4081   4.765  18.365  10.473 -0.1537  0.1220 -0.1758
  256loPI    C2 4082   4.415  18.473  10.313 -0.2624  0.1342  0.0661
  256loPI    C3 4083   4.427  18.188  10.593 -0.0923  0.2141  0.1412
  256loPI   PO4 4084   4.923  18.331  10.166  0.1712 -0.0234 -0.3237
  256loPI   GL1 4085   4.713  18.361   9.813 -0.0219  0.3563 -0.0462
  256loPI   GL2 4086   4.941  18.465   9.700  0.1521  0.3974 -0.0702
  256loPI   C1A 4087   4.435  18.676   9.676 -0.2086 -0.3277  0.0097
  256loPI   C2A 4088   4.286  18.995   9.545 -0.0804 -0.0223  0.0433
  256loPI   C3A 4089   4.267  19.235   9.333 -0.1121 -0.1512  0.5478
  256loPI   C4A 4090   4.200  19.225   8.860  0.2808 -0.1008  0.4140
  256loPI   C5A 4091   4.233  19.048   8.444 -0.2928 -0.0604 -0.0873
  256loPI   C6A 4092   4.577  18.877   8.194 -0.0770  0.0370 -0.2874
  256loPI   C1B 4093   4.803  18.542   9.360  0.2729  0.1209  0.1481
  256loPI   C2B 4094   4.626  18.905   9.117 -0.2434  0.1677  0.0927
  256loPI   C3B 4095   4.668  18.958   8.703  0.0014  0.1416  0.3683
  256loPI   C4B 4096   4.727  19.261   8.424 -0.1195  0.0645  0.0958
  257loPI    C1 4097   2.435   2.979  10.505 -0.1099 -0.0145 -0.0782
  257loPI    C2 4098   2.700   2.890  10.791  0.2557  0.1225 -0.3654
  257loPI    C3 4099   2.342   3.039  10.890  0.3552  0.1182  0.0204
  257loPI   PO4 4100   2.476   2.865  10.333  0.2036  0.0290  0.1397
  257loPI   GL1 4101   2.552   2.953   9.956 -0.4076  0.3314 -0.1667
  257loPI   GL2 4102   2.268   3.116   9.949 -0.2522 -0.0029 -0.0849
  257loPI   C1A 4103   2.383   2.650   9.556  0.2577  0.1852  0.2317
  257loPI   C2A 4104   2.382   2.308   9.252 -0.0173 -0.0594  0.0221
  257loPI   C3A 4105   2.662   1.991   9.006  0.0163 -0.1604  0.1267
  257loPI   C4A 4106   2.730   1.923   8.631 -0.3086 -0.0024 -0.2016
  257loPI   C5A 4107   2.787   2.213   8.261  0.1507 -0.2296  0.0863
  257loPI   C6A 4108   3.062   2.554   8.096  0.2211 -0.3873 -0.0434
  257loPI   C1B 4109   2.391   3.112   9.449  0.0398 -0.1822  0.1772
  257loPI   C2B 4110   2.503   2.840   9.152 -0.0715 -0.1208 -0.1159
  257loPI   C3B 4111   2.427   2.526   8.799  0.0966  0.2183  0.1174
  257loPI   C4B 4112   2.335   2.441   8.420  0.2527  0.0495  0.1917
  258loPI    C1 4113   9.374  16.437  10.567  0.0132 -0.1522 -0.2379
  258loPI    C2 4114   9.459  16.817  10.657  0.2010 -0.1951 -0.2305
  258loPI    C3 4115   9.078  16.702  10.618  0.1212 -0.1133  0.2402
  258loPI   PO4 4116   9.484  16.424  10.360 -0.1247  0.2078  0.0371
  258loPI   GL1 4117   9.605  16.450   9.955 -0.2720 -0.0478  0.0437
  258loPI   GL2 4118   9.581  16.140   9.842  0.1404  0.0915  0.1011
  258loPI   C1A 4119   9.313  16.663   9.604  0.4034 -0.0526 -0.0255
  258loPI   C2A 4120   9.530  16.824   9.122 -0.1509 -0.1335 -0.2482
  258loPI   C3A 4121   9.599  16.691   8.650  0.1462 -0.0828  0.1750
  258loPI   C4A 4122   9.925  16.729   8.350 -0.3532  0.0288 -0.1808
  258loPI   C5A 4123  10.308  16.869   7.970  0.3659 -0.0185  0.2124
  258loPI   C6A 4124  10.502  16.872   7.552 -0.1397 -0.0166 -0.0012
  258loPI   C1B 4125   9.746  15.940   9.446  0.1377 -0.1104  0.0085
  258loPI   C2B 4126   9.926  15.609   9.184 -0.5938 -0.2490  0.0393
  258loPI   C3B 4127  10.062  15.907   8.858 -0.1091 -0.0533 -0.3177
  258loPI   C4B 4128  10.118  15.758   8.476 -0.0428 -0.1122 -0.0852
  259loPI    C1 4129  16.141   6.090  10.507 -0.0794  0.0955 -0.0429
  259loPI    C2 4130  16.090   6.485  10.543  0.0975  0.1278 -0.1333
  259loPI    C3 4131  15.806   6.234  10.670  0.0146  0.2817 -0.0113
  259loPI   PO4 4132  16.248   6.027  10.317 -0.1318  0.3083 -0.3644
  259loPI   GL1 4133  16.386   6.222  10.014 -0.1916 -0.0623 -0.0288
  259loPI   GL2 4134  16.230   5.999   9.858 -0.1338 -0.0259  0.2900
  259loPI   C1A 4135  16.430   6.394   9.627 -0.1227 -0.2398 -0.0973
  259loPI   C2A 4136  16.522   6.417   9.149 -0.2128 -0.0776 -0.2568
  259loPI   C3A 4137  16.585   6.383   8.834 -0.0651  0.2387 -0.1287
  259loPI   C4A 4138  16.880   6.442   8.594  0.0360 -0.2080  0.1582
  259loPI   C5A 4139  16.867   6.476   8.138  0.1310  0.2086 -0.1888
  259loPI   C6A 4140  16.811   6.050   7.914  0.3632 -0.1732 -0.1749
  259loPI   C1B 4141  16.269   5.940   9.361  0.3590  0.3689 -0.1106
  259loPI   C2B 4142  16.405   5.864   8.927 -0.3753  0.0231 -0.0140
  259loPI   C3B 4143  16.337   5.934   8.435 -0.0391 -0.0182 -0.0848
  259loPI   C4B 4144  16.321   5.777   7.961 -0.1677  0.1347 -0.0501
  260loPI    C1 4145   2.999   6.443  10.309 -0.1151 -0.0033  0.0724
  260loPI    C2 4146   3.263   6.712  10.444 -0.2652  0.2484 -0.1283
  260loPI    C3 4147   3.050   6.495  10.703  0.0067  0.1715  0.0350
  260loPI   PO4 4148   2.944   6.584  10.099  0.1007  0.0881  0.3932
  260loPI   GL1 4149   2.868   6.407   9.702  0.1203 -0.4287 -0.0597
  260loPI   GL2 4150   3.015   6.135   9.686  0.0820 -0.0159  0.0169
  260loPI   C1A 4151   3.246   6.414   9.359 -0.2386  0.1760 -0.1832
  260loPI   C2A 4152   3.283   6.480   8.969 -0.1841  0.0564 -0.2199
  260loPI   C3A 4153   3.143   6.419   8.659 -0.0109 -0.0033  0.1637
  260loPI   C4A 4154   3.176   6.341   8.244  0.3253 -0.1097 -0.1088
  260loPI   C5A 4155   3.364   6.473   7.885  0.0657  0.2070  0.2272
  260loPI   C6A 4156   3.569   6.769   7.745 -0.2152  0.0601  0.2256
  260loPI   C1B 4157   2.803   6.203   9.281  0.2121  0.0414  0.1098
  260loPI   C2B 4158   2.731   6.281   8.857 -0.2637  0.0751  0.1483
  260loPI   C3B 4159   2.452   6.136   8.504 -0.1056 -0.1081  0.4557
  260loPI   C4B 4160   2.667   6.053   8.080  0.1621 -0.1270 -0.1806
  261loPI    C1 4161  12.494  10.989  10.464  0.1297 -0.2064  0.3498
  261loPI    C2 4162  12.224  11.282  10.426  0.3148 -0.1103 -0.3831
  261loPI    C3 4163  12.124  10.940  10.608  0.0575  0.3443  0.3730
  261loPI   PO4 4164  12.614  10.968  10.240  0.3343  0.3240  0.0658
  261loPI   GL1 4165  12.800  11.145   9.838 -0.0608  0.1708  0.1919
  261loPI   GL2 4166  12.791  11.481   9.677 -0.1327  0.0269  0.0963
  261loPI   C1A 4167  12.811  11.105   9.379 -0.2932  0.0867 -0.0376
  261loPI   C2A 4168  12.859  11.327   9.003 -0.0261  0.0769  0.0849
  261loPI   C3A 4169  12.657  11.301   8.540  0.0457 -0.1577  0.1123
  261loPI   C4A 4170  12.485  11.226   8.139 -0.1925  0.0193 -0.0537
  261loPI   C5A 4171  12.184  11.336   7.919  0.1191  0.0104  0.2479
  261loPI   C6A 4172  11.804  11.698   7.884 -0.2083  0.0663 -0.0082
  261loPI   C1B 4173  12.959  11.763   9.374  0.0485 -0.3022 -0.1645
  261loPI   C2B 4174  12.858  11.954   8.983  0.4741 -0.1219 -0.0304
  261loPI   C3B 4175  12.811  11.900   8.511  0.2261 -0.2546  0.0097
  261loPI   C4B 4176  12.940  11.645   8.113 -0.0789  0.0200 -0.0854
  262loPI    C1 4177  13.738   5.255  10.460  0.1935 -0.2313 -0.1517
  262loPI    C2 4178  14.113   5.252  10.598  0.1193  0.1624  0.0734
  262loPI    C3 4179  13.815   5.113  10.825  0.0552  0.3953  0.1351
  262loPI   PO4 4180  13.794   5.278  10.097  0.1936 -0.1180 -0.0485
  262loPI   GL1 4181  13.988   5.152   9.757  0.1397  0.1821  0.2205
  262loPI   GL2 4182  14.059   4.765   9.813 -0.1193 -0.3250 -0.2002
  262loPI   C1A 4183  13.801   5.104   9.345 -0.0560  0.1292  0.0868
  262loPI   C2A 4184  13.580   5.017   9.000 -0.0721 -0.2061 -0.3577
  262loPI   C3A 4185  13.173   5.248   8.985  0.0602 -0.0354 -0.1794
  262loPI   C4A 4186  13.106   5.488   8.674  0.2668 -0.2558  0.2498
  262loPI   C5A 4187  12.977   5.659   8.265 -0.2559  0.2253  0.0162
  262loPI   C6A 4188  12.758   5.664   8.013  0.1769  0.0657  0.1958
  262loPI   C1B 4189  14.081   4.666   9.473  0.1622  0.1009 -0.4930
  262loPI   C2B 4190  13.799   4.576   9.255  0.3075  0.0329  0.0184
  262loPI   C3B 4191  13.965   4.464   8.897 -0.3003  0.3875  0.1196
  262loPI   C4B 4192  13.972   4.364   8.468  0.2023  0.1219 -0.2992
  263loPI    C1 4193  13.654   6.190  10.342  0.0632  0.3200  0.0608
  263loPI    C2 4194  13.294   6.075  10.474  0.0996 -0.0064 -0.1144
  263loPI    C3 4195  13.615   6.042  10.711  0.0753 -0.0731 -0.0906
  263loPI   PO4 4196  13.647   6.195  10.145 -0.1091  0.2350 -0.0249
  263loPI   GL1 4197  13.598   6.286   9.751 -0.0866  0.0386 -0.1148
  263loPI   GL2 4198  13.777   6.515   9.736 -0.0031  0.5070 -0.2456
  263loPI   C1A 4199  13.509   5.997   9.446 -0.0633 -0.0900 -0.1951
  263loPI   C2A 4200  13.123   6.013   9.100  0.0861 -0.1134 -0.1142
  263loPI   C3A 4201  13.044   5.974   8.675  0.3667 -0.0492  0.2531
  263loPI   C4A 4202  13.301   6.068   8.403 -0.0952  0.1404  0.0194
  263loPI   C5A 4203  13.565   6.186   8.022 -0.1900  0.2400 -0.1389
  263loPI   C6A 4204  13.843   6.208   7.734  0.0934  0.0609  0.0849
  263loPI   C1B 4205  13.794   6.406   9.273  0.2536 -0.4965 -0.0295
  263loPI   C2B 4206  14.089   6.592   8.978  0.1469  0.1870  0.1108
  263loPI   C3B 4207  14.104   6.394   8.581 -0.0297 -0.2589  0.0506
  263loPI   C4B 4208  14.181   6.079   8.187  0.0893  0.4952  0.0996
  264loPI    C1 4209  14.664   5.288  10.484  0.1024  0.0081 -0.2784
  264loPI    C2 4210  14.770   5.612  10.694 -0.0534  0.0398 -0.2480
  264loPI    C3 4211  14.564   5.317  10.870  0.1368 -0.1023 -0.2610
  264loPI   PO4 4212  14.753   5.432  10.097  0.0652 -0.1666 -0.0502
  264loPI   GL1 4213  14.866   5.467   9.643 -0.2108  0.1910 -0.0672
  264loPI   GL2 4214  14.538   5.319   9.687 -0.0012 -0.2051  0.1939
  264loPI   C1A 4215  14.773   5.185   9.216  0.1163 -0.1693 -0.0065
  264loPI   C2A 4216  14.710   5.004   8.820  0.2118  0.5004  0.1147
  264loPI   C3A 4217  14.792   4.756   8.391 -0.0130 -0.2433  0.0225
  264loPI   C4A 4218  14.750   4.726   7.935  0.1969 -0.2375 -0.2823
  264loPI   C5A 4219  15.042   4.626   7.707 -0.1965  0.0393 -0.0291
  264loPI   C6A 4220  15.228   4.262   7.542 -0.4373  0.0492 -0.0694
  264loPI   C1B 4221  14.296   5.075   9.270 -0.0328 -0.0089  0.4033
  264loPI   C2B 4222  14.034   4.975   8.842 -0.4015 -0.1391 -0.1212
  264loPI   C3B 4223  13.954   5.042   8.489  0.0426  0.0760  0.0959
  264loPI   C4B 4224  14.015   5.449   8.281 -0.1974  0.1315  0.0228
  265loPI    C1 4225   3.204  15.715  10.513 -0.2680 -0.3995  0.1149
  265loPI    C2 4226   2.954  15.616  10.809  0.0150 -0.0084  0.4949
  265loPI    C3 4227   3.316  15.765  10.893  0.1715 -0.0606 -0.0507
  265loPI   PO4 4228   2.998  15.838  10.264  0.4985  0.3284  0.2715
  265loPI   GL1 4229   3.140  15.928   9.880  0.1230 -0.2754  0.0026
  265loPI   GL2 4230   3.250  16.217   9.787  0.2013  0.0892 -0.2076
  265loPI   C1A 4231   3.335  15.822   9.464  0.4348  0.1101 -0.1778
  265loPI   C2A 4232   3.300  15.896   9.060 -0.0735 -0.1409 -0.0032
  265loPI   C3A 4233   3.392  15.835   8.577  0.2192  0.1776 -0.3070
  265loPI   C4A 4234   3.608  15.745   8.275 -0.0999 -0.0899 -0.0105
  265loPI   C5A 4235   3.994  15.611   8.151  0.0709 -0.3848 -0.2270
  265loPI   C6A 4236   4.411  15.538   8.139  0.1204 -0.2989 -0.1694
  265loPI   C1B 4237   3.209  16.360   9.384  0.2893 -0.0664 -0.0202
  265loPI   C2B 4238   3.179  16.584   9.008 -0.0568  0.2329  0.3207
  265loPI   C3B 4239   3.143  16.592   8.583 -0.0357 -0.3587 -0.1284
  265loPI   C4B 4240   3.042  16.689   8.106 -0.0211 -0.0777 -0.0681
  266loPI    C1 4241   3.117   4.114  10.647  0.2368  0.1388  0.1023
  266loPI    C2 4242   3.265   4.357  10.928  0.0659  0.1054  0.2228
  266loPI    C3 4243   2.869   4.321  10.883  0.0885 -0.1660  0.2205
  266loPI   PO4 4244   3.173   4.145  10.415 -0.3065 -0.3064  0.2280
  266loPI   GL1 4245   3.067   4.295   9.935 -0.2095  0.0325 -0.0312
  266loPI   GL2 4246   2.806   4.391   9.887 -0.1582  0.1818  0.0045
  266loPI   C1A 4247   2.959   3.965   9.661  0.1334  0.1173  0.3308
  266loPI   C2A 4248   2.869   4.108   9.160 -0.1541  0.3231  0.1188
  266loPI   C3A 4249   2.725   4.252   8.686 -0.0443 -0.2343  0.3201
  266loPI   C4A 4250   2.694   4.368   8.194  0.2387 -0.0569 -0.2244
  266loPI   C5A 4251   3.109   4.561   7.955 -0.1107 -0.0170 -0.2779
  266loPI   C6A 4252   3.497   4.438   7.700  0.1615 -0.1120  0.0973
  266loPI   C1B 4253   2.797   4.480   9.429  0.1946  0.1324 -0.0420
  266loPI   C2B 4254   2.790   4.600   8.985 -0.3820 -0.2223  0.2437
  266loPI   C3B 4255   2.854   4.794   8.691  0.2031  0.1728 -0.2702
  266loPI   C4B 4256   2.887   4.819   8.292  0.2091 -0.1429  0.0779
  267loPI    C1 4257   9.202  14.225   9.886 -0.1010 -0.0451 -0.0947
  267loPI    C2 4258   8.908  14.495   9.893 -0.0095  0.0518  0.1434
  267loPI    C3 4259   9.121  14.425  10.223  0.2494 -0.0020 -0.0325
  267loPI   PO4 4260   9.311  14.312   9.595 -0.2615  0.0314  0.2310
  267loPI   GL1 4261   9.211  14.326   9.236 -0.4030  0.2156  0.2955
  267loPI   GL2 4262   9.098  14.553   9.154  0.0176  0.0235  0.1894
  267loPI   C1A 4263   9.294  14.239   8.750  0.1275 -0.1644 -0.1350
  267loPI   C2A 4264   9.427  14.307   8.401 -0.3643  0.3181  0.1601
  267loPI   C3A 4265   9.584  14.497   8.122 -0.2358 -0.0212 -0.1497
  267loPI   C4A 4266   9.732  14.550   7.689 -0.1497  0.1881 -0.0377
  267loPI   C5A 4267   9.765  14.817   7.409  0.3160  0.1505  0.0838
  267loPI   C6A 4268  10.068  15.108   7.442 -0.3854 -0.3567 -0.2962
  267loPI   C1B 4269   8.928  14.623   8.676  0.2038  0.1911 -0.0834
  267loPI   C2B 4270   9.070  14.592   8.190 -0.0395  0.1036  0.1525
  267loPI   C3B 4271   9.221  14.849   7.873 -0.0154 -0.0561  0.1049
  267loPI   C4B 4272   9.429  15.167   7.604 -0.0753  0.2277  0.0220
  268loPI    C1 4273  14.442   0.669  10.899 -0.2384 -0.0807  0.2110
  268loPI    C2 4274  14.637   0.368  10.720 -0.2081 -0.1593  0.3746
  268loPI    C3 4275  14.429   0.301  11.056 -0.0199  0.0449  0.5353
  268loPI   PO4 4276  14.634   0.860  10.642  0.1353  0.1045 -0.3537
  268loPI   GL1 4277  14.882   0.568  10.340 -0.1137 -0.1499  0.2090
  268loPI   GL2 4278  15.092   0.345  10.501 -0.3533  0.0039  0.0313
  268loPI   C1A 4279  14.769   0.543   9.886  0.0112 -0.0289 -0.0056
  268loPI   C2A 4280  14.620   0.361   9.478  0.0414 -0.0277  0.1997
  268loPI   C3A 4281  14.467   0.298   9.045  0.1352  0.1210  0.3104
  268loPI   C4A 4282  14.540   0.319   8.548  0.2301  0.0273  0.1769
  268loPI   C5A 4283  14.569  -0.145   8.248 -0.1087 -0.0450 -0.0721
  268loPI   C6A 4284  14.743  -0.518   8.126  0.3570  0.0628 -0.1432
  268loPI   C1B 4285  15.212   0.386  10.060 -0.2095  0.1910 -0.0811
  268loPI   C2B 4286  15.205   0.641   9.638  0.1981 -0.2363 -0.0610
  268loPI   C3B 4287  15.520   0.749   9.308  0.2220  0.4665 -0.0998
  268loPI   C4B 4288  15.500   0.787   8.823 -0.1613 -0.1281 -0.0764
  269loPI    C1 4289   7.493   6.461  10.546  0.1347 -0.0167 -0.3271
  269loPI    C2 4290   7.777   6.740  10.503  0.3333 -0.1319  0.1640
  269loPI    C3 4291   7.825   6.446  10.769 -0.2005 -0.2200  0.1746
  269loPI   PO4 4292   7.486   6.322  10.278  0.3210  0.0625 -0.0392
  269loPI   GL1 4293   7.392   6.084   9.867  0.0391  0.0663 -0.3348
  269loPI   GL2 4294   7.115   6.215   9.828  0.3507  0.0278  0.0578
  269loPI   C1A 4295   7.443   6.146   9.318 -0.0284  0.2113 -0.2542
  269loPI   C2A 4296   7.451   6.171   8.916  0.0424 -0.2918 -0.0531
  269loPI   C3A 4297   7.480   6.088   8.479 -0.3181 -0.0178 -0.3059
  269loPI   C4A 4298   7.679   5.891   8.178 -0.1159 -0.1814 -0.1479
  269loPI   C5A 4299   7.810   5.815   7.854 -0.1669  0.0064 -0.0294
  269loPI   C6A 4300   8.132   5.801   7.529  0.1571 -0.0251 -0.0149
  269loPI   C1B 4301   6.979   6.348   9.367  0.2953 -0.1574 -0.0466
  269loPI   C2B 4302   6.919   6.399   8.992  0.1797  0.0212 -0.0201
  269loPI   C3B 4303   7.073   6.378   8.533 -0.1551 -0.0655 -0.1860
  269loPI   C4B 4304   7.282   6.368   8.073  0.0552  0.0174 -0.0039
  270loPI    C1 4305  13.707  11.737  10.135  0.0346 -0.0548  0.0590
  270loPI    C2 4306  13.362  11.774  10.334  0.0178  0.2683 -0.0249
  270loPI    C3 4307  13.634  11.506  10.453 -0.3351 -0.1195 -0.0682
  270loPI   PO4 4308  13.815  11.984  10.125 -0.0271  0.1240 -0.0309
  270loPI   GL1 4309  13.983  12.060   9.796  0.1530 -0.3850  0.1927
  270loPI   GL2 4310  14.265  12.298   9.922 -0.1135  0.0205  0.0191
  270loPI   C1A 4311  13.829  11.851   9.478 -0.0335 -0.2709 -0.1192
  270loPI   C2A 4312  13.664  11.776   9.105 -0.1774 -0.2604  0.0044
  270loPI   C3A 4313  13.390  11.736   8.795 -0.3300 -0.0666 -0.2763
  270loPI   C4A 4314  13.128  11.489   8.598 -0.0319  0.0541  0.2392
  270loPI   C5A 4315  13.095  11.217   8.217 -0.1099  0.0189 -0.0712
  270loPI   C6A 4316  12.953  11.081   7.848 -0.0076 -0.1984 -0.0144
  270loPI   C1B 4317  14.497  12.571   9.470  0.0338 -0.0522 -0.1289
  270loPI   C2B 4318  14.469  12.826   9.085 -0.0301 -0.2093 -0.0186
  270loPI   C3B 4319  14.391  12.857   8.652 -0.0196  0.0889  0.0307
  270loPI   C4B 4320  14.500  12.864   8.261 -0.1609 -0.0365  0.0650
  271loPI    C1 4321  16.809   4.640  10.083 -0.0320 -0.1027  0.0800
  271loPI    C2 4322  16.922   4.893  10.371  0.0187 -0.1333  0.0872
  271loPI    C3 4323  16.560   4.725  10.384  0.0426 -0.1793  0.1639
  271loPI   PO4 4324  16.939   4.510   9.970  0.2076  0.0616  0.0436
  271loPI   GL1 4325  17.025   4.370   9.631 -0.3628  0.0407  0.3087
  271loPI   GL2 4326  16.973   4.077   9.685 -0.3585  0.0425 -0.3954
  271loPI   C1A 4327  17.112   4.496   9.250  0.0091 -0.2801 -0.0917
  271loPI   C2A 4328  17.094   4.282   8.822  0.3768  0.0161 -0.2100
  271loPI   C3A 4329  17.343   4.383   8.433 -0.0486  0.1339 -0.0738
  271loPI   C4A 4330  17.396   4.422   8.051 -0.1130  0.0007  0.3893
  271loPI   C5A 4331  17.517   4.128   7.669 -0.2747 -0.1942 -0.0765
  271loPI   C6A 4332  17.328   3.832   7.478  0.2026  0.2652 -0.3972
  271loPI   C1B 4333  17.046   4.008   9.287 -0.1839  0.2136 -0.3766
  271loPI   C2B 4334  17.006   3.821   8.978 -0.1657 -0.1244  0.0051
  271loPI   C3B 4335  16.893   3.811   8.539 -0.1062 -0.0313 -0.0550
  271loPI   C4B 4336  16.902   3.709   8.061  0.1026 -0.1333 -0.0617
  272loPI    C1 4337  17.367   3.190  10.484  0.2646 -0.0203  0.0883
  272loPI    C2 4338  17.750   3.128  10.579  0.3117  0.0707 -0.0384
  272loPI    C3 4339  17.589   3.491  10.625  0.2931  0.0785 -0.1625
  272loPI   PO4 4340  17.321   2.992  10.292  0.3847 -0.2522  0.0173
  272loPI   GL1 4341  17.222   3.040   9.911 -0.0349 -0.0060 -0.1824
  272loPI   GL2 4342  17.392   3.215   9.650 -0.3907  0.0134 -0.1197
  272loPI   C1A 4343  17.012   2.817   9.489 -0.1871 -0.1371  0.0351
  272loPI   C2A 4344  16.979   2.821   8.987 -0.0432  0.0784  0.0217
  272loPI   C3A 4345  17.056   2.931   8.544 -0.0495 -0.0220  0.0796
  272loPI   C4A 4346  17.238   2.818   8.232  0.4712 -0.1359  0.1991
  272loPI   C5A 4347  17.482   2.794   7.838 -0.2946 -0.1159 -0.0807
  272loPI   C6A 4348  17.575   2.999   7.437 -0.1239  0.0045  0.0256
  272loPI   C1B 4349  17.462   3.095   9.213  0.0659 -0.4016 -0.0068
  272loPI   C2B 4350  17.441   3.148   8.819 -0.0453 -0.2197  0.0890
  272loPI   C3B 4351  17.549   3.254   8.351  0.0267  0.2001 -0.0823
  272loPI   C4B 4352  17.771   3.187   7.918  0.1304 -0.1282  0.0701
  273loPI    C1 4353  18.135   3.389  10.732 -0.2392  0.0340 -0.0129
  273loPI    C2 4354  17.901   3.606  10.972 -0.0218  0.0868  0.1549
  273loPI    C3 4355  18.180   3.366  11.129  0.2319  0.2444 -0.0476
  273loPI   PO4 4356  18.135   3.537  10.514 -0.2304 -0.0001 -0.1304
  273loPI   GL1 4357  18.097   3.709  10.099  0.1448  0.0355  0.1517
  273loPI   GL2 4358  17.978   3.973   9.917  0.1187 -0.0712  0.2342
  273loPI   C1A 4359  18.363   3.487   9.736 -0.1196  0.1351  0.2171
  273loPI   C2A 4360  18.456   3.411   9.336 -0.3348 -0.2479  0.0996
  273loPI   C3A 4361  18.427   3.281   8.922 -0.2504 -0.1389 -0.0264
  273loPI   C4A 4362  18.434   3.307   8.525  0.0291 -0.1522 -0.1311
  273loPI   C5A 4363  18.468   3.579   8.135 -0.3546 -0.2046  0.2032
  273loPI   C6A 4364  18.434   3.890   7.731 -0.0771  0.0044  0.0506
  273loPI   C1B 4365  17.975   3.903   9.583 -0.2167 -0.2338  0.0376
  273loPI   C2B 4366  18.081   3.751   9.257  0.0987 -0.0895 -0.2206
  273loPI   C3B 4367  17.997   3.663   8.879 -0.0061 -0.2338  0.1786
  273loPI   C4B 4368  17.999   3.577   8.385 -0.0969 -0.2724 -0.1517
  274loPI    C1 4369   7.146   3.648  10.245  0.1123 -0.0261  0.1294
  274loPI    C2 4370   6.792   3.762  10.394  0.0807 -0.0879  0.1020
  274loPI    C3 4371   7.055   3.570  10.627  0.0200 -0.2096  0.0709
  274loPI   PO4 4372   7.131   3.457  10.051  0.0197 -0.1709 -0.1190
  274loPI   GL1 4373   7.177   3.331   9.686  0.0926  0.3391  0.2045
  274loPI   GL2 4374   6.957   3.527   9.632  0.1023  0.0160  0.2705
  274loPI   C1A 4375   7.408   3.377   9.327 -0.3448 -0.0044 -0.0332
  274loPI   C2A 4376   7.542   3.275   8.939 -0.3502 -0.2991  0.1433
  274loPI   C3A 4377   7.423   3.349   8.562 -0.1608  0.0826 -0.1398
  274loPI   C4A 4378   7.234   3.466   8.217  0.0754  0.1105  0.1852
  274loPI   C5A 4379   7.072   3.372   7.826 -0.0328 -0.0798 -0.0557
  274loPI   C6A 4380   7.186   3.141   7.456 -0.0227  0.1732 -0.1004
  274loPI   C1B 4381   6.933   3.522   9.260  0.0018 -0.3160 -0.1547
  274loPI   C2B 4382   7.009   3.604   8.834  0.0300 -0.4273  0.1352
  274loPI   C3B 4383   6.849   3.718   8.442 -0.4083 -0.0051  0.1271
  274loPI   C4B 4384   6.850   4.063   8.164 -0.1829 -0.0128  0.0887
  275loPI    C1 4385   2.898   5.441  10.312  0.0244  0.0037 -0.2558
  275loPI    C2 4386   3.203   5.261  10.125  0.0135 -0.2478 -0.0371
  275loPI    C3 4387   3.215   5.315  10.521 -0.2267 -0.2604 -0.0266
  275loPI   PO4 4388   2.792   5.605  10.201  0.3328 -0.0807  0.1658
  275loPI   GL1 4389   2.828   5.648   9.704 -0.2331 -0.1111  0.0119
  275loPI   GL2 4390   2.943   5.402   9.724  0.0218 -0.0849  0.1190
  275loPI   C1A 4391   2.671   5.741   9.361  0.0575 -0.0626 -0.5705
  275loPI   C2A 4392   2.757   5.774   9.001  0.3439  0.0715 -0.2768
  275loPI   C3A 4393   2.950   5.485   8.693 -0.1895  0.0324 -0.2267
  275loPI   C4A 4394   3.106   5.242   8.351 -0.0527 -0.2202 -0.1007
  275loPI   C5A 4395   3.352   4.912   8.206  0.0209  0.1115  0.1694
  275loPI   C6A 4396   3.500   4.931   7.648 -0.0140  0.0752 -0.4045
  275loPI   C1B 4397   3.047   5.464   9.320 -0.0436  0.0067  0.1234
  275loPI   C2B 4398   3.402   5.512   9.060 -0.4275  0.1740 -0.1770
  275loPI   C3B 4399   3.432   5.540   8.554  0.0304  0.1041 -0.0910
  275loPI   C4B 4400   3.485   5.372   8.033 -0.2139  0.0318  0.4030
  276loPI    C1 4401   0.391  12.922  10.448  0.0127  0.0528 -0.1219
  276loPI    C2 4402   0.747  12.999  10.613  0.0409 -0.2141 -0.0551
  276loPI    C3 4403   0.569  12.646  10.675 -0.2483 -0.0736 -0.0668
  276loPI   PO4 4404   0.407  12.996  10.242 -0.0518  0.0033 -0.0249
  276loPI   GL1 4405   0.580  12.832   9.849  0.1196 -0.1086  0.2096
  276loPI   GL2 4406   0.299  13.023   9.732  0.1726 -0.1186  0.1359
  276loPI   C1A 4407   0.644  12.725   9.442 -0.3186  0.1114 -0.1771
  276loPI   C2A 4408   0.711  12.582   8.999 -0.1738 -0.1519 -0.3092
  276loPI   C3A 4409   0.612  12.553   8.551  0.5891 -0.1347 -0.1441
  276loPI   C4A 4410   0.426  12.601   8.118  0.1279 -0.1050  0.0934
  276loPI   C5A 4411   0.517  13.022   7.951 -0.0313 -0.3410 -0.0288
  276loPI   C6A 4412   0.913  13.312   7.924  0.0034 -0.0145 -0.0551
  276loPI   C1B 4413   0.092  12.921   9.401 -0.1113  0.0302  0.1446
  276loPI   C2B 4414  -0.078  13.125   9.177 -0.0870  0.2662  0.1469
  276loPI   C3B 4415  -0.088  13.099   8.725 -0.0210  0.1298  0.3102
  276loPI   C4B 4416  -0.246  12.915   8.317 -0.1952 -0.0739 -0.1522
  277loPI    C1 4417   6.937   1.420  10.364 -0.0669  0.0554  0.0230
  277loPI    C2 4418   6.667   1.312  10.638  0.0173 -0.0024  0.0837
  277loPI    C3 4419   7.053   1.220  10.690  0.0608  0.1505  0.0370
  277loPI   PO4 4420   6.787   1.374  10.073 -0.0750 -0.2385 -0.2814
  277loPI   GL1 4421   6.547   1.485   9.722  0.1698 -0.2097 -0.0645
  277loPI   GL2 4422   6.308   1.463   9.420 -0.0702 -0.1231 -0.2973
  277loPI   C1A 4423   6.871   1.537   9.310 -0.1582  0.1091 -0.1572
  277loPI   C2A 4424   7.113   1.290   9.045  0.0821 -0.1202 -0.1900
  277loPI   C3A 4425   7.180   1.379   8.660 -0.0237 -0.0470 -0.1842
  277loPI   C4A 4426   6.845   1.423   8.419  0.0354 -0.0384 -0.2863
  277loPI   C5A 4427   6.461   1.410   8.161 -0.0421 -0.2998  0.1357
  277loPI   C6A 4428   6.003   1.375   8.005  0.2475  0.2955 -0.0443
  277loPI   C1B 4429   5.744   1.378   9.332 -0.2679  0.2131 -0.0899
  277loPI   C2B 4430   5.552   1.496   9.027  0.0621  0.1963  0.1534
  277loPI   C3B 4431   5.434   1.290   8.651  0.1755 -0.0941  0.1603
  277loPI   C4B 4432   5.217   1.047   8.288 -0.0431  0.1468 -0.0920
  278loPI    C1 4433  15.344   8.901  10.434 -0.0211 -0.1773 -0.0118
  278loPI    C2 4434  15.528   8.626  10.659  0.0071  0.0423  0.2389
  278loPI    C3 4435  15.582   9.015  10.735 -0.1749  0.1161  0.0022
  278loPI   PO4 4436  15.042   8.856  10.394  0.0637 -0.1700 -0.0137
  278loPI   GL1 4437  14.970   8.819  10.017 -0.0701 -0.0384 -0.1152
  278loPI   GL2 4438  15.341   8.892   9.962  0.1078  0.1753 -0.2670
  278loPI   C1A 4439  14.875   8.816   9.573  0.0305 -0.3286  0.0871
  278loPI   C2A 4440  14.512   8.917   9.342  0.0502 -0.2764  0.0158
  278loPI   C3A 4441  14.269   8.892   8.955 -0.2443  0.0378  0.0738
  278loPI   C4A 4442  14.351   9.036   8.497 -0.0763 -0.0213 -0.3085
  278loPI   C5A 4443  14.225   9.038   8.099  0.1774  0.2335 -0.3222
  278loPI   C6A 4444  14.029   8.684   7.922  0.0164 -0.2727  0.1061
  278loPI   C1B 4445  15.279   9.096   9.594  0.0979  0.2150  0.0769
  278loPI   C2B 4446  15.468   9.360   9.372 -0.0314 -0.3978  0.2431
  278loPI   C3B 4447  15.413   9.652   8.986  0.0112 -0.1423 -0.2352
  278loPI   C4B 4448  15.479   9.777   8.521 -0.1168  0.3381  0.2377
  279loPI    C1 4449  11.454   7.949  10.101  0.0419  0.0617  0.0106
  279loPI    C2 4450  11.673   7.936  10.436  0.0055  0.1109  0.0364
  279loPI    C3 4451  11.449   7.621  10.331 -0.0173  0.1120  0.0816
  279loPI   PO4 4452  11.349   8.201  10.150 -0.0231 -0.1196 -0.1386
  279loPI   GL1 4453  11.546   8.427   9.872  0.3363 -0.0926  0.4885
  279loPI   GL2 4454  11.426   8.604   9.852  0.0631 -0.0814 -0.1187
  279loPI   C1A 4455  11.718   8.217   9.571 -0.0164  0.2131  0.2459
  279loPI   C2A 4456  11.731   8.238   9.207 -0.1861  0.0074  0.0713
  279loPI   C3A 4457  11.798   7.930   8.990 -0.1455 -0.3116 -0.3549
  279loPI   C4A 4458  12.027   7.831   8.603 -0.0044  0.1725  0.3288
  279loPI   C5A 4459  12.277   7.491   8.423  0.2517  0.1693  0.1632
  279loPI   C6A 4460  12.270   7.472   8.036 -0.1924 -0.0572 -0.0559
  279loPI   C1B 4461  11.580   8.706   9.431  0.0020  0.1421 -0.1838
  279loPI   C2B 4462  11.582   8.660   8.956 -0.1387 -0.1627 -0.2586
  279loPI   C3B 4463  11.671   8.306   8.702 -0.2309 -0.0220  0.1383
  279loPI   C4B 4464  11.667   8.065   8.279  0.1939  0.1988 -0.2135
  280loPI    C1 4465   6.682   4.191  10.482  0.0391 -0.0428  0.1282
  280loPI    C2 4466   6.571   4.456  10.761  0.1667  0.2027 -0.0498
  280loPI    C3 4467   6.751   4.115  10.868  0.0086  0.1894  0.1808
  280loPI   PO4 4468   6.925   4.344  10.211 -0.1329 -0.0111  0.2937
  280loPI   GL1 4469   6.926   4.419   9.794 -0.1544 -0.1708 -0.1883
  280loPI   GL2 4470   7.096   4.724   9.831 -0.1025 -0.4091  0.1002
  280loPI   C1A 4471   6.984   4.488   9.352 -0.2312 -0.0344 -0.3709
  280loPI   C2A 4472   6.844   4.592   9.002  0.0569 -0.1571  0.0294
  280loPI   C3A 4473   6.911   4.596   8.592  0.2454 -0.1041  0.0875
  280loPI   C4A 4474   6.939   4.582   8.075  0.2663 -0.1120  0.0543
  280loPI   C5A 4475   6.978   4.846   7.751 -0.0496 -0.1808 -0.1969
  280loPI   C6A 4476   7.142   5.055   7.299 -0.0376 -0.2821  0.0586
  280loPI   C1B 4477   7.158   4.932   9.391  0.0776  0.0559 -0.2486
  280loPI   C2B 4478   7.161   4.960   8.959  0.0902 -0.1866 -0.1306
  280loPI   C3B 4479   7.246   4.927   8.599  0.3519 -0.3723 -0.1568
  280loPI   C4B 4480   7.255   4.876   8.182 -0.3224  0.0123  0.1295
  281loPI    C1 4481   2.388   1.946  10.434 -0.0567 -0.0854 -0.0941
  281loPI    C2 4482   2.051   1.959  10.219  0.0206 -0.1014 -0.2175
  281loPI    C3 4483   2.060   2.117  10.587 -0.0820  0.0242 -0.2682
  281loPI   PO4 4484   2.408   1.626  10.356  0.1736  0.4680  0.1297
  281loPI   GL1 4485   2.335   1.554   9.984  0.0537 -0.1546 -0.0698
  281loPI   GL2 4486   2.165   1.357   9.791 -0.1104 -0.0586  0.2354
  281loPI   C1A 4487   2.457   1.768   9.606 -0.0291  0.0747  0.0726
  281loPI   C2A 4488   2.539   1.567   9.186  0.2321  0.1142 -0.0059
  281loPI   C3A 4489   2.367   1.595   8.764 -0.1831 -0.3645  0.2875
  281loPI   C4A 4490   2.394   1.579   8.284  0.0942  0.4356 -0.3428
  281loPI   C5A 4491   2.351   1.402   7.837 -0.1692 -0.2453 -0.0063
  281loPI   C6A 4492   2.131   1.008   7.788  0.1643 -0.0038 -0.1191
  281loPI   C1B 4493   2.270   1.251   9.452 -0.0336  0.2233  0.4008
  281loPI   C2B 4494   2.136   1.167   9.018 -0.1422  0.2303 -0.1486
  281loPI   C3B 4495   2.014   1.247   8.637 -0.0357 -0.3223 -0.0796
  281loPI   C4B 4496   1.999   1.272   8.220  0.1904  0.2133 -0.0399
  282loPI    C1 4497   9.715   8.338  10.478 -0.0976 -0.1898 -0.0325
  282loPI    C2 4498   9.870   8.461  10.826 -0.0918 -0.0134 -0.0968
  282loPI    C3 4499   9.608   8.159  10.820  0.0997 -0.1841  0.0331
  282loPI   PO4 4500   9.712   8.569  10.350 -0.3512 -0.1553 -0.0823
  282loPI   GL1 4501   9.550   8.599   9.947 -0.1643  0.3100  0.0187
  282loPI   GL2 4502   9.493   8.277  10.048 -0.2038 -0.0314  0.1981
  282loPI   C1A 4503   9.824   8.773   9.642  0.1140  0.0972  0.2008
  282loPI   C2A 4504   9.747   8.864   9.187  0.2946 -0.1434 -0.2820
  282loPI   C3A 4505   9.720   8.827   8.706 -0.0869  0.3391  0.1006
  282loPI   C4A 4506   9.776   8.770   8.237 -0.2060  0.0181  0.0256
  282loPI   C5A 4507   9.972   8.711   7.893  0.1423  0.3188  0.2019
  282loPI   C6A 4508  10.088   8.298   7.808  0.2145  0.1878  0.1347
  282loPI   C1B 4509   9.272   8.204   9.634  0.0547 -0.0757 -0.3115
  282loPI   C2B 4510   9.108   8.066   9.287  0.0286  0.0681  0.3227
  282loPI   C3B 4511   9.012   8.228   8.898 -0.2169 -0.0159  0.0763
  282loPI   C4B 4512   8.611   8.240   8.748  0.1105 -0.1779 -0.0112
  283loPI    C1 4513  18.163   2.849  10.600 -0.0677 -0.0129  0.0102
  283loPI    C2 4514  17.890   2.565  10.670 -0.0509  0.0317  0.2665
  283loPI    C3 4515  17.929   2.871  10.924 -0.1117  0.2990 -0.0401
  283loPI   PO4 4516  18.339   2.613  10.458  0.0815  0.0703  0.1568
  283loPI   GL1 4517  18.446   2.551  10.038 -0.2079  0.0310  0.1483
  283loPI   GL2 4518  18.556   2.857  10.066  0.0787 -0.2329 -0.1070
  283loPI   C1A 4519  18.277   2.513   9.570 -0.0043 -0.1369  0.1548
  283loPI   C2A 4520  18.111   2.499   9.085  0.1068  0.0436 -0.0134
  283loPI   C3A 4521  17.780   2.761   9.051 -0.2341  0.0412 -0.1775
  283loPI   C4A 4522  17.702   2.827   8.587  0.2482  0.2065  0.2380
  283loPI   C5A 4523  17.735   2.628   8.220 -0.1022 -0.1944  0.0022
  283loPI   C6A 4524  17.471   2.316   7.919  0.2692  0.3940 -0.0999
  283loPI   C1B 4525  18.472   3.006   9.667  0.1874 -0.0362  0.0708
  283loPI   C2B 4526  18.363   2.909   9.268  0.0843  0.3094 -0.1594
  283loPI   C3B 4527  18.266   2.855   8.760  0.2672 -0.5887  0.0875
  283loPI   C4B 4528  18.162   2.595   8.551 -0.2170  0.0838  0.2399
  284loPI    C1 4529   8.277  12.306   9.987 -0.2205  0.1372  0.0999
  284loPI    C2 4530   8.495  11.971   9.976 -0.0931  0.2237 -0.0554
  284loPI    C3 4531   8.519  12.216  10.292 -0.1803  0.0917  0.0546
  284loPI   PO4 4532   8.325  12.468   9.651 -0.0693 -0.0287 -0.3206
  284loPI   GL1 4533   8.242  12.408   9.244  0.2104 -0.1701 -0.1769
  284loPI   GL2 4534   8.366  12.719   9.143  0.0492 -0.1835  0.1495
  284loPI   C1A 4535   8.200  12.095   9.024  0.0832 -0.1992  0.0661
  284loPI   C2A 4536   8.118  11.914   8.695 -0.0527  0.1313 -0.1956
  284loPI   C3A 4537   8.100  11.791   8.376  0.2467 -0.0903  0.1837
  284loPI   C4A 4538   8.056  11.684   7.988 -0.1782 -0.2002  0.3254
  284loPI   C5A 4539   7.901  11.585   7.515 -0.2389  0.2065  0.1606
  284loPI   C6A 4540   7.715  11.795   7.102  0.3128 -0.0623  0.2943
  284loPI   C1B 4541   8.590  12.889   8.931 -0.0623  0.0044  0.0490
  284loPI   C2B 4542   8.685  12.745   8.570  0.0030 -0.0479 -0.2014
  284loPI   C3B 4543   8.971  12.816   8.257  0.0621  0.2772 -0.1718
  284loPI   C4B 4544   8.957  12.670   7.756 -0.2759 -0.2911  0.3226
  285loPI    C1 4545   5.538   6.610  10.240 -0.2875  0.1901  0.2424
  285loPI    C2 4546   5.807   6.669  10.530 -0.0080 -0.0455  0.0371
  285loPI    C3 4547   5.542   6.955  10.442  0.3059  0.2740  0.1052
  285loPI   PO4 4548   5.624   6.455  10.088  0.2190 -0.1946 -0.2124
  285loPI   GL1 4549   5.951   6.445   9.836  0.0628 -0.1558 -0.0904
  285loPI   GL2 4550   6.036   6.105   9.915 -0.2057  0.2731 -0.1128
  285loPI   C1A 4551   6.066   6.412   9.449  0.1381  0.3501  0.0909
  285loPI   C2A 4552   6.177   6.346   9.048  0.0817 -0.2936 -0.0221
  285loPI   C3A 4553   6.123   6.262   8.642  0.1550  0.0922 -0.1793
  285loPI   C4A 4554   6.173   6.376   8.284  0.2210  0.0428  0.0556
  285loPI   C5A 4555   5.966   6.649   7.964 -0.3530  0.0224  0.2132
  285loPI   C6A 4556   5.712   6.796   7.566  0.0135 -0.0232 -0.0487
  285loPI   C1B 4557   6.131   5.811   9.596  0.1725 -0.0937 -0.0304
  285loPI   C2B 4558   6.113   5.740   9.148  0.0321  0.1094 -0.0521
  285loPI   C3B 4559   6.132   5.735   8.661  0.4550 -0.0959 -0.2330
  285loPI   C4B 4560   6.189   5.787   8.286 -0.0538 -0.2005 -0.1151
  286loPI    C1 4561   1.519  15.557  10.667  0.0482 -0.3011 -0.0789
  286loPI    C2 4562   1.437  15.515  11.057  0.0586  0.0601 -0.0345
  286loPI    C3 4563   1.762  15.342  10.900  0.0915 -0.0297  0.1312
  286loPI   PO4 4564   1.419  15.850  10.542 -0.0514  0.0133  0.2008
  286loPI   GL1 4565   1.245  15.819  10.096 -0.0182 -0.0927 -0.1589
  286loPI   GL2 4566   1.298  15.492   9.843  0.1098 -0.0068  0.0464
  286loPI   C1A 4567   1.251  15.928   9.726 -0.2189  0.0402  0.0553
  286loPI   C2A 4568   1.166  16.212   9.394  0.0405 -0.2304  0.3171
  286loPI   C3A 4569   1.182  16.346   9.047 -0.2299 -0.3431  0.2566
  286loPI   C4A 4570   1.129  16.193   8.731  0.0415 -0.0178  0.2665
  286loPI   C5A 4571   1.369  15.826   8.451 -0.0737 -0.0412  0.0240
  286loPI   C6A 4572   1.302  15.443   8.419 -0.3199 -0.0387 -0.0291
  286loPI   C1B 4573   1.427  15.502   9.479 -0.5366  0.3590 -0.0001
  286loPI   C2B 4574   1.717  15.666   9.170 -0.1722 -0.1106 -0.2828
  286loPI   C3B 4575   2.112  15.858   9.345 -0.1681  0.0323 -0.0513
  286loPI   C4B 4576   2.395  15.700   9.180 -0.2322 -0.3159  0.4920
  287loPI    C1 4577  15.351   1.440  10.586 -0.1523  0.3290 -0.2002
  287loPI    C2 4578  15.325   1.233  10.927  0.0110  0.1433 -0.2986
  287loPI    C3 4579  15.115   1.570  10.881 -0.0738  0.1267 -0.0461
  287loPI   PO4 4580  15.388   1.328  10.366  0.1661  0.0244  0.1877
  287loPI   GL1 4581  15.293   1.193   9.920  0.1717  0.2866  0.3016
  287loPI   GL2 4582  14.939   1.016   9.861 -0.2561  0.1753  0.0103
  287loPI   C1A 4583  15.310   1.154   9.590  0.0394 -0.0407  0.1985
  287loPI   C2A 4584  15.230   1.132   9.035 -0.1777  0.0273 -0.1836
  287loPI   C3A 4585  15.092   1.042   8.660 -0.2641 -0.4403  0.0642
  287loPI   C4A 4586  15.375   0.848   8.268 -0.0126 -0.2003 -0.0652
  287loPI   C5A 4587  15.509   0.848   7.829  0.1925 -0.0972  0.0288
  287loPI   C6A 4588  15.419   0.729   7.446 -0.0251  0.1318  0.2625
  287loPI   C1B 4589  14.871   0.955   9.462  0.0552 -0.0338 -0.1151
  287loPI   C2B 4590  15.039   0.671   9.178  0.1800  0.1960 -0.3347
  287loPI   C3B 4591  14.958   0.462   8.861 -0.1004 -0.0413  0.0616
  287loPI   C4B 4592  14.950   0.035   8.478 -0.1365  0.0871  0.1794
  288loPI    C1 4593  16.664  15.066  10.056  0.0982  0.0136  0.0486
  288loPI    C2 4594  16.532  14.863  10.375 -0.1667  0.0073 -0.0622
  288loPI    C3 4595  16.499  15.261  10.364 -0.1846  0.0050 -0.0936
  288loPI   PO4 4596  16.928  15.044   9.978 -0.0937 -0.1273  0.0475
  288loPI   GL1 4597  17.237  14.923   9.804  0.0028  0.3189  0.3111
  288loPI   GL2 4598  17.509  14.714   9.838  0.0015 -0.2396 -0.3565
  288loPI   C1A 4599  17.598  15.101   9.632 -0.2375 -0.0474  0.0501
  288loPI   C2A 4600  17.637  15.087   9.247 -0.3907 -0.1432  0.0679
  288loPI   C3A 4601  17.648  15.113   8.725 -0.0745  0.2696 -0.0896
  288loPI   C4A 4602  17.594  15.277   8.322  0.2047  0.3276 -0.1586
  288loPI   C5A 4603  17.632  15.148   7.911 -0.0026  0.0311 -0.2311
  288loPI   C6A 4604  17.566  15.455   7.648  0.0065 -0.0692 -0.1405
  288loPI   C1B 4605  17.673  14.568   9.536  0.0861  0.3072  0.1238
  288loPI   C2B 4606  17.772  14.613   9.143 -0.0919 -0.1351  0.0512
  288loPI   C3B 4607  17.753  14.582   8.758 -0.0757 -0.1789  0.2365
  288loPI   C4B 4608  17.650  14.637   8.358 -0.0078 -0.0776 -0.3051
  289loPI    C1 4609   5.277  16.745  10.448  0.1905  0.0137  0.1107
  289loPI    C2 4610   5.224  16.411  10.661  0.0766  0.0071  0.0728
  289loPI    C3 4611   5.013  16.739  10.749  0.0675  0.0198  0.0036
  289loPI   PO4 4612   5.160  16.767  10.173  0.2616 -0.1162 -0.2627
  289loPI   GL1 4613   5.557  16.767   9.844 -0.1833 -0.1352  0.2516
  289loPI   GL2 4614   5.741  17.063   9.672 -0.0605 -0.1590 -0.2040
  289loPI   C1A 4615   5.362  16.549   9.360 -0.0744  0.0759 -0.1198
  289loPI   C2A 4616   4.958  16.515   9.145 -0.2470 -0.0651 -0.3105
  289loPI   C3A 4617   4.837  16.393   8.669 -0.2403  0.1114  0.1161
  289loPI   C4A 4618   4.920  16.686   8.357  0.0864 -0.0121  0.0267
  289loPI   C5A 4619   4.986  17.142   8.251 -0.2389 -0.3955 -0.2118
  289loPI   C6A 4620   5.063  17.291   7.910  0.1823 -0.1329  0.2215
  289loPI   C1B 4621   5.954  17.092   9.310 -0.2211  0.0867 -0.3676
  289loPI   C2B 4622   6.184  17.054   8.899 -0.3129 -0.1952  0.0217
  289loPI   C3B 4623   6.150  17.024   8.481  0.0302  0.1477  0.0509
  289loPI   C4B 4624   6.070  17.015   8.007  0.0770 -0.1636  0.0586
  290loPI    C1 4625  10.419  14.298   9.684 -0.0333  0.2168  0.0101
  290loPI    C2 4626  10.535  14.105  10.014  0.0086  0.1584 -0.0385
  290loPI    C3 4627  10.787  14.141   9.706 -0.1223 -0.0230 -0.1691
  290loPI   PO4 4628  10.234  14.206   9.481  0.1106 -0.0867  0.0372
  290loPI   GL1 4629  10.076  14.258   9.224  0.1621 -0.1785  0.0152
  290loPI   GL2 4630   9.705  14.248   9.278 -0.0228 -0.1602 -0.0093
  290loPI   C1A 4631  10.085  14.597   8.967  0.0677 -0.0096 -0.2791
  290loPI   C2A 4632  10.157  14.842   8.569  0.0779  0.0881  0.1969
  290loPI   C3A 4633  10.250  15.061   8.232 -0.1384 -0.3295 -0.2393
  290loPI   C4A 4634  10.187  15.319   7.921  0.0502  0.0597  0.4424
  290loPI   C5A 4635   9.854  15.461   7.751  0.0380  0.0335  0.2941
  290loPI   C6A 4636   9.773  15.602   7.411  0.0823  0.1758 -0.1445
  290loPI   C1B 4637   9.732  14.236   8.863  0.2291  0.0571  0.1038
  290loPI   C2B 4638   9.949  14.323   8.513  0.3567  0.0365 -0.0759
  290loPI   C3B 4639  10.059  14.524   8.150  0.3062 -0.0585  0.6020
  290loPI   C4B 4640  10.241  14.755   7.853 -0.0038 -0.0775  0.1411
  291loPI    C1 4641   9.189   5.271  10.690 -0.2216 -0.0541  0.1494
  291loPI    C2 4642   9.165   5.663  10.612 -0.0821 -0.0495  0.1283
  291loPI    C3 4643   8.921   5.498  10.882 -0.1464  0.0504  0.1316
  291loPI   PO4 4644   9.161   5.173  10.485 -0.0016 -0.2768 -0.2119
  291loPI   GL1 4645   9.064   5.283  10.094 -0.0182 -0.1450  0.0353
  291loPI   GL2 4646   9.163   5.582   9.830  0.1322 -0.0603  0.1956
  291loPI   C1A 4647   8.777   5.287   9.622 -0.0337 -0.0246  0.0541
  291loPI   C2A 4648   8.683   5.460   9.304 -0.3480  0.2411  0.2312
  291loPI   C3A 4649   8.758   5.538   8.892  0.0715 -0.1278 -0.2250
  291loPI   C4A 4650   8.856   5.346   8.486  0.1240 -0.0008 -0.1678
  291loPI   C5A 4651   8.695   5.007   8.063 -0.0354  0.0456  0.2225
  291loPI   C6A 4652   8.324   5.034   7.880 -0.1454 -0.1663 -0.1337
  291loPI   C1B 4653   9.209   5.455   9.416 -0.5110 -0.1973  0.2729
  291loPI   C2B 4654   9.265   5.436   8.949 -0.1682 -0.1072 -0.2058
  291loPI   C3B 4655   9.246   5.564   8.625  0.0761  0.1268  0.0719
  291loPI   C4B 4656   9.490   5.550   8.164 -0.0234  0.2593  0.0454
  292loPI    C1 4657  12.911   3.658  10.311 -0.1295 -0.1748 -0.0086
  292loPI    C2 4658  12.790   3.311  10.468 -0.0811 -0.1283  0.1327
  292loPI    C3 4659  13.101   3.506  10.628 -0.1617  0.0230  0.1076
  292loPI   PO4 4660  12.843   3.741  10.060  0.2293  0.3655 -0.2349
  292loPI   GL1 4661  12.987   3.560   9.685 -0.2455 -0.0028  0.2029
  292loPI   GL2 4662  13.057   3.973   9.608 -0.1473 -0.1115  0.3089
  292loPI   C1A 4663  12.888   3.541   9.152  0.0390 -0.2470 -0.0534
  292loPI   C2A 4664  12.840   3.530   8.759 -0.3843  0.1059 -0.0790
  292loPI   C3A 4665  13.007   3.495   8.326 -0.3735  0.1546  0.1892
  292loPI   C4A 4666  13.015   3.857   8.078  0.1256  0.0037 -0.0083
  292loPI   C5A 4667  12.795   4.215   7.836 -0.0244  0.0116 -0.1065
  292loPI   C6A 4668  12.796   4.592   7.730 -0.4389 -0.1810 -0.2011
  292loPI   C1B 4669  12.645   3.948   9.335  0.1515  0.0110 -0.1254
  292loPI   C2B 4670  12.471   3.808   8.925 -0.0265  0.0056 -0.0650
  292loPI   C3B 4671  12.601   3.922   8.472  0.1378 -0.2295  0.1599
  292loPI   C4B 4672  12.555   3.590   8.131  0.3793 -0.2368  0.1643
  293loPI    C1 4673   3.222  11.312  10.176  0.1629 -0.1561  0.0694
  293loPI    C2 4674   2.894  11.084  10.178  0.0531 -0.0007 -0.0242
  293loPI    C3 4675   3.044  11.221  10.522 -0.1067  0.1065  0.0044
  293loPI   PO4 4676   3.201  11.378   9.883 -0.2509 -0.0766  0.0482
  293loPI   GL1 4677   3.444  11.179   9.548  0.2480 -0.1017  0.1854
  293loPI   GL2 4678   3.130  10.974   9.584  0.0503 -0.1909 -0.1484
  293loPI   C1A 4679   3.659  11.372   9.198 -0.2217 -0.0740  0.1249
  293loPI   C2A 4680   3.758  11.429   8.749  0.1964 -0.2742  0.2817
  293loPI   C3A 4681   3.647  11.510   8.283 -0.1070  0.3198  0.0617
  293loPI   C4A 4682   3.815  11.614   7.892 -0.0186  0.4689  0.0261
  293loPI   C5A 4683   3.981  11.853   7.716 -0.2845 -0.2673  0.1265
  293loPI   C6A 4684   4.148  12.199   7.793 -0.1591 -0.0201 -0.2167
  293loPI   C1B 4685   3.083  11.106   9.153  0.2369 -0.0456  0.1309
  293loPI   C2B 4686   3.124  11.229   8.633 -0.1975 -0.0838  0.2946
  293loPI   C3B 4687   3.144  11.395   8.230 -0.2565  0.1149 -0.0907
  293loPI   C4B 4688   2.956  11.153   7.837 -0.1496  0.3323  0.2428
  294loPI    C1 4689   8.620   8.967  10.417  0.3918 -0.1006 -0.2121
  294loPI    C2 4690   8.941   9.070  10.632  0.1593  0.0610  0.0642
  294loPI    C3 4691   8.648   9.335  10.571  0.0421 -0.1087 -0.1218
  294loPI   PO4 4692   8.649   8.814  10.167  0.2651  0.0114 -0.0763
  294loPI   GL1 4693   9.059   8.852   9.781  0.0880  0.1883  0.1178
  294loPI   GL2 4694   9.030   9.178   9.643  0.2384  0.0254 -0.0760
  294loPI   C1A 4695   9.359   8.741   9.555 -0.1747  0.0672  0.0772
  294loPI   C2A 4696   9.248   8.589   9.215 -0.1418 -0.1544  0.3255
  294loPI   C3A 4697   9.286   8.680   8.861  0.0418 -0.2155 -0.0311
  294loPI   C4A 4698   9.299   8.480   8.566  0.0363 -0.1810  0.1842
  294loPI   C5A 4699   8.908   8.510   8.131 -0.3018 -0.2174  0.1191
  294loPI   C6A 4700   8.673   8.678   7.772 -0.0226 -0.1880 -0.1153
  294loPI   C1B 4701   9.159   9.098   9.239  0.2155 -0.0562  0.3254
  294loPI   C2B 4702   9.077   9.296   8.855  0.0474 -0.0066  0.0253
  294loPI   C3B 4703   9.183   8.964   8.484  0.0840 -0.2206  0.1021
  294loPI   C4B 4704   9.270   8.807   8.158 -0.2910  0.2639 -0.1631
  295loPI    C1 4705  11.409  10.835  10.350 -0.1617 -0.1527 -0.0668
  295loPI    C2 4706  11.581  10.945  10.694  0.2828 -0.2007 -0.2659
  295loPI    C3 4707  11.217  11.082  10.599  0.2339 -0.0387  0.1340
  295loPI   PO4 4708  11.664  10.882  10.179 -0.2667  0.2641  0.0520
  295loPI   GL1 4709  11.870  10.772   9.701  0.0498 -0.1658  0.0068
  295loPI   GL2 4710  12.175  10.708   9.615 -0.2503  0.2977  0.1510
  295loPI   C1A 4711  11.793  10.759   9.251 -0.1871 -0.0860 -0.1190
  295loPI   C2A 4712  11.868  10.719   8.791  0.0251  0.1462  0.0237
  295loPI   C3A 4713  12.065  10.700   8.477  0.1262  0.0750 -0.2153
  295loPI   C4A 4714  12.283  10.812   8.082  0.0443 -0.0246 -0.2602
  295loPI   C5A 4715  12.455  10.913   7.709  0.0621 -0.2567  0.3754
  295loPI   C6A 4716  12.665  10.705   7.378  0.0727 -0.1566 -0.0697
  295loPI   C1B 4717  12.309  10.946   9.297 -0.0747 -0.0010 -0.1834
  295loPI   C2B 4718  12.415  10.996   8.933 -0.0523  0.2383  0.0874
  295loPI   C3B 4719  12.565  10.776   8.629  0.0012  0.1150 -0.0424
  295loPI   C4B 4720  12.776  10.742   8.290 -0.1729 -0.0596  0.2074
  296loPI    C1 4721   9.062  12.126  10.222  0.3104 -0.0376 -0.2792
  296loPI    C2 4722   9.234  12.450  10.063 -0.0406  0.2973  0.0031
  296loPI    C3 4723   9.326  12.337  10.436 -0.1039  0.2186 -0.0051
  296loPI   PO4 4724   9.055  11.972   9.988 -0.0973  0.0356  0.3464
  296loPI   GL1 4725   9.098  12.107   9.590 -0.3375 -0.0228 -0.1407
  296loPI   GL2 4726   9.361  11.840   9.599  0.3431  0.0557  0.1757
  296loPI   C1A 4727   9.040  11.968   9.259  0.1254  0.0737 -0.1178
  296loPI   C2A 4728   8.894  11.907   8.831 -0.1410 -0.0146 -0.0205
  296loPI   C3A 4729   9.053  11.697   8.470  0.0876 -0.0572 -0.2663
  296loPI   C4A 4730   9.220  11.622   8.075  0.0035 -0.1579  0.0185
  296loPI   C5A 4731   9.518  11.715   7.716  0.1037 -0.0404 -0.2251
  296loPI   C6A 4732   9.423  11.892   7.412  0.0669  0.2038 -0.2396
  296loPI   C1B 4733   9.227  11.539   9.316  0.1010  0.3690 -0.0779
  296loPI   C2B 4734   9.291  11.500   8.909 -0.2969 -0.1880  0.4116
  296loPI   C3B 4735   9.488  11.424   8.551 -0.3366  0.3232 -0.1378
  296loPI   C4B 4736   9.742  11.567   8.150  0.1514 -0.1548 -0.0641
  297loPI    C1 4737  15.202   7.166   9.960 -0.1566 -0.1781  0.1037
  297loPI    C2 4738  15.415   7.126  10.296  0.3780  0.1343 -0.1831
  297loPI    C3 4739  15.203   7.459  10.232 -0.1557 -0.1445  0.0677
  297loPI   PO4 4740  15.247   6.825   9.899 -0.0869  0.2111  0.0736
  297loPI   GL1 4741  15.474   6.476   9.714  0.1553  0.1307 -0.2851
  297loPI   GL2 4742  15.520   6.103   9.765  0.0124 -0.1465 -0.0401
  297loPI   C1A 4743  15.372   6.235   9.301  0.2136  0.0875  0.0417
  297loPI   C2A 4744  15.380   6.030   8.920  0.0901 -0.1909 -0.2925
  297loPI   C3A 4745  15.558   6.189   8.495 -0.2564 -0.1461 -0.0780
  297loPI   C4A 4746  15.906   6.157   8.114 -0.1697  0.1283 -0.0453
  297loPI   C5A 4747  16.396   6.291   7.952  0.1018  0.0049  0.2197
  297loPI   C6A 4748  16.686   6.488   7.609 -0.2475  0.1843  0.0541
  297loPI   C1B 4749  15.852   6.197   9.558 -0.1659  0.0302 -0.5036
  297loPI   C2B 4750  16.051   6.325   9.108  0.0031 -0.0271 -0.2595
  297loPI   C3B 4751  16.085   6.393   8.577  0.1575 -0.0783  0.0701
  297loPI   C4B 4752  16.026   6.622   8.320  0.3590 -0.1023 -0.1957
  298loPI    C1 4753   6.635  16.581  10.211 -0.2654  0.1631  0.1631
  298loPI    C2 4754   6.557  16.230  10.385  0.3198 -0.0494  0.0200
  298loPI    C3 4755   6.738  16.519  10.593  0.0523  0.0868  0.0680
  298loPI   PO4 4756   6.765  16.537  10.014 -0.0254  0.3578 -0.1926
  298loPI   GL1 4757   6.586  16.798   9.693  0.0148  0.3371 -0.0551
  298loPI   GL2 4758   6.324  16.997   9.603  0.0369  0.2111 -0.4402
  298loPI   C1A 4759   6.425  16.578   9.407  0.0619 -0.0573  0.2449
  298loPI   C2A 4760   6.521  16.525   9.060 -0.0670  0.0806 -0.2753
  298loPI   C3A 4761   6.530  16.617   8.703 -0.2424  0.0664  0.3290
  298loPI   C4A 4762   6.230  16.573   8.305 -0.0164  0.0399 -0.0249
  298loPI   C5A 4763   6.122  16.535   7.800  0.2083 -0.0593  0.1123
  298loPI   C6A 4764   5.664  16.576   7.625 -0.1499  0.2308  0.0746
  298loPI   C1B 4765   6.556  17.020   9.177 -0.0759  0.0893 -0.1530
  298loPI   C2B 4766   6.639  17.094   8.752  0.0031 -0.1927  0.1911
  298loPI   C3B 4767   6.658  16.944   8.323 -0.1224 -0.1248 -0.1405
  298loPI   C4B 4768   6.581  16.841   7.973  0.3669  0.2146  0.1674
  299loPI    C1 4769  14.721  14.725  10.346 -0.0670  0.0335 -0.0898
  299loPI    C2 4770  15.017  14.968  10.229  0.1550 -0.1186  0.1455
  299loPI    C3 4771  15.038  14.782  10.583 -0.2385 -0.1089  0.1793
  299loPI   PO4 4772  14.483  14.698  10.108  0.1997  0.1478  0.0066
  299loPI   GL1 4773  14.356  14.772   9.751  0.0364  0.0916  0.0788
  299loPI   GL2 4774  14.545  14.775   9.600 -0.1144  0.1155 -0.1627
  299loPI   C1A 4775  14.035  14.939   9.406 -0.0116  0.4832 -0.0417
  299loPI   C2A 4776  14.045  14.785   9.002  0.2463  0.0043  0.0672
  299loPI   C3A 4777  13.942  14.770   8.585  0.1013  0.2594 -0.1473
  299loPI   C4A 4778  13.486  14.852   8.504  0.1534  0.1194  0.0439
  299loPI   C5A 4779  13.327  15.088   8.105  0.3028  0.0675  0.0618
  299loPI   C6A 4780  12.827  14.999   7.953 -0.0299  0.0365  0.1781
  299loPI   C1B 4781  14.484  14.708   9.241  0.1220  0.2110 -0.1267
  299loPI   C2B 4782  14.587  14.840   8.877  0.2642  0.0990  0.4046
  299loPI   C3B 4783  14.517  14.737   8.463 -0.1868 -0.1728 -0.1785
  299loPI   C4B 4784  14.610  14.690   7.968  0.2146 -0.1021  0.0500
  300loPI    C1 4785  12.377  14.372  10.181  0.2267 -0.0137  0.0282
  300loPI    C2 4786  12.624  14.591   9.956  0.1478  0.0963  0.0477
  300loPI    C3 4787  12.518  14.720  10.319  0.1690 -0.0163  0.0943
  300loPI   PO4 4788  12.132  14.309   9.954  0.0025 -0.2564 -0.0407
  300loPI   GL1 4789  12.076  14.270   9.527 -0.2433 -0.0082  0.0441
  300loPI   GL2 4790  11.855  14.068   9.627  0.0857 -0.2467 -0.3319
  300loPI   C1A 4791  11.864  14.448   9.126 -0.0725  0.1399 -0.0898
  300loPI   C2A 4792  11.690  14.350   8.685 -0.2870  0.1782 -0.0169
  300loPI   C3A 4793  11.457  14.351   8.368  0.0499  0.0410  0.5415
  300loPI   C4A 4794  11.570  14.462   7.991 -0.1140  0.1534  0.0631
  300loPI   C5A 4795  11.655  14.232   7.581  0.2049  0.2495  0.4865
  300loPI   C6A 4796  11.676  13.968   7.255 -0.1655  0.0509 -0.0987
  300loPI   C1B 4797  11.950  13.971   9.184 -0.0760  0.4984  0.2083
  300loPI   C2B 4798  12.092  13.955   8.821  0.1788 -0.0381  0.0547
  300loPI   C3B 4799  11.977  14.058   8.354 -0.1298  0.3376  0.0684
  300loPI   C4B 4800  12.030  13.875   7.906 -0.1613  0.0827 -0.2139
  301loPI    C1 4801   1.104   0.645  10.540  0.0098 -0.1798 -0.1908
  301loPI    C2 4802   1.476   0.508  10.594  0.0514 -0.0654 -0.1825
  301loPI    C3 4803   1.172   0.251  10.552  0.1277 -0.1592 -0.1660
  301loPI   PO4 4804   1.229   0.816  10.315  0.5062  0.1824  0.0349
  301loPI   GL1 4805   1.165   0.908   9.933  0.2604  0.0188 -0.0893
  301loPI   GL2 4806   0.856   1.114   9.929  0.4119  0.0931 -0.1932
  301loPI   C1A 4807   1.303   1.016   9.558  0.2686 -0.0554 -0.0773
  301loPI   C2A 4808   1.415   1.073   9.170 -0.1672  0.0114 -0.1217
  301loPI   C3A 4809   1.468   1.001   8.903  0.0898 -0.2204 -0.2247
  301loPI   C4A 4810   1.471   1.200   8.540 -0.1111 -0.0529 -0.1286
  301loPI   C5A 4811   1.804   0.848   8.354  0.0708  0.2753 -0.2305
  301loPI   C6A 4812   2.001   0.548   8.063 -0.3932 -0.0237  0.2152
  301loPI   C1B 4813   0.826   0.872   9.513 -0.1809 -0.0700  0.0552
  301loPI   C2B 4814   0.850   1.031   9.110 -0.4195 -0.2664 -0.0614
  301loPI   C3B 4815   1.016   1.053   8.686  0.1549 -0.0369  0.3015
  301loPI   C4B 4816   1.052   1.217   8.275  0.0991  0.1131 -0.1574
  302loPI    C1 4817  10.279   3.554  10.645  0.0675  0.0853 -0.0151
  302loPI    C2 4818  10.533   3.477  10.945 -0.0321 -0.2294 -0.0076
  302loPI    C3 4819  10.163   3.607  11.025  0.0057 -0.1236 -0.0035
  302loPI   PO4 4820  10.360   3.328  10.484 -0.0634  0.0959  0.0944
  302loPI   GL1 4821  10.406   3.122  10.045  0.1662 -0.1477 -0.1484
  302loPI   GL2 4822  10.700   3.227   9.896 -0.0964  0.0704  0.3849
  302loPI   C1A 4823  10.012   3.093   9.786  0.2586  0.1899  0.3858
  302loPI   C2A 4824   9.940   3.077   9.352 -0.0873 -0.1887  0.1011
  302loPI   C3A 4825   9.967   3.176   8.869 -0.0964 -0.0117 -0.1215
  302loPI   C4A 4826   9.826   3.361   8.418  0.0209  0.2598 -0.1964
  302loPI   C5A 4827   9.458   3.526   8.188 -0.3411 -0.0430  0.1682
  302loPI   C6A 4828   9.055   3.634   8.028 -0.2588 -0.1662 -0.2118
  302loPI   C1B 4829  10.833   3.009   9.590 -0.0612  0.3936  0.0735
  302loPI   C2B 4830  10.865   2.810   9.160  0.1987  0.1088 -0.0497
  302loPI   C3B 4831  10.945   2.807   8.743  0.0322  0.2211 -0.0872
  302loPI   C4B 4832  10.702   2.807   8.402 -0.0120 -0.1838 -0.0282
  303loPI    C1 4833   0.281   1.465  10.601  0.0878  0.1083 -0.3449
  303loPI    C2 4834  -0.053   1.257  10.671  0.1461  0.1480  0.0751
  303loPI    C3 4835   0.125   1.456  10.969  0.4037  0.3386 -0.2006
  303loPI   PO4 4836   0.292   1.595  10.405  0.2771  0.0647  0.0184
  303loPI   GL1 4837   0.152   1.653   9.981  0.2156 -0.1832 -0.0059
  303loPI   GL2 4838   0.221   2.011  10.077 -0.0143  0.0029 -0.0117
  303loPI   C1A 4839   0.256   1.728   9.595 -0.2224 -0.3743 -0.1217
  303loPI   C2A 4840   0.165   1.765   9.213  0.0426 -0.1563  0.1349
  303loPI   C3A 4841   0.110   1.797   8.777  0.1769  0.0851  0.1947
  303loPI   C4A 4842   0.032   1.814   8.309 -0.0393 -0.0164 -0.2486
  303loPI   C5A 4843  -0.146   2.157   8.159 -0.3340 -0.1764 -0.0625
  303loPI   C6A 4844  -0.395   2.345   7.892  0.1712  0.0710 -0.1494
  303loPI   C1B 4845  -0.085   2.082   9.808 -0.1259  0.2233  0.2848
  303loPI   C2B 4846  -0.260   1.949   9.467 -0.2294 -0.1805  0.4514
  303loPI   C3B 4847  -0.248   1.991   9.054  0.0830  0.2459  0.2480
  303loPI   C4B 4848  -0.329   2.150   8.708  0.3548 -0.0633  0.2803
  304loPI    C1 4849   1.688   6.669  10.335  0.1155 -0.0954 -0.0713
  304loPI    C2 4850   1.706   6.362  10.590 -0.0694 -0.0281  0.0247
  304loPI    C3 4851   1.612   6.727  10.724 -0.3105 -0.0194 -0.1607
  304loPI   PO4 4852   1.918   6.685  10.237  0.0842  0.2939 -0.0319
  304loPI   GL1 4853   1.905   6.423   9.854 -0.1578 -0.2316  0.1859
  304loPI   GL2 4854   1.869   6.724   9.713 -0.0360 -0.0434 -0.0255
  304loPI   C1A 4855   1.717   6.268   9.539  0.3472 -0.1311 -0.0694
  304loPI   C2A 4856   1.812   6.419   9.164  0.3892  0.1217  0.0709
  304loPI   C3A 4857   1.828   6.354   8.734  0.4608  0.1193  0.1103
  304loPI   C4A 4858   1.977   6.062   8.446 -0.1731 -0.0234  0.1048
  304loPI   C5A 4859   2.134   6.077   8.107  0.1265  0.0777  0.1203
  304loPI   C6A 4860   2.046   6.281   7.749  0.0598 -0.1814 -0.1352
  304loPI   C1B 4861   1.921   6.842   9.245  0.0698  0.0985  0.0453
  304loPI   C2B 4862   2.281   7.023   9.031  0.2163  0.1990 -0.0439
  304loPI   C3B 4863   2.457   7.183   8.639 -0.0268  0.3541 -0.1089
  304loPI   C4B 4864   2.437   7.026   8.219  0.2642 -0.1135  0.0609
  305loPI    C1 4865  15.642   0.782  10.917 -0.1705  0.0224 -0.1555
  305loPI    C2 4866  15.487   0.472  11.116 -0.0289 -0.0234 -0.1160
  305loPI    C3 4867  15.793   0.678  11.272 -0.0744  0.0905 -0.1759
  305loPI   PO4 4868  15.639   0.630  10.656 -0.2606 -0.1234 -0.0688
  305loPI   GL1 4869  15.607   0.426  10.361 -0.1123  0.0811  0.1077
  305loPI   GL2 4870  15.508   0.810  10.179 -0.0035 -0.1659  0.2218
  305loPI   C1A 4871  15.610   0.211   9.806  0.0449  0.0638  0.1566
  305loPI   C2A 4872  15.876   0.105   9.410  0.3550 -0.3271  0.1927
  305loPI   C3A 4873  16.262  -0.052   8.986  0.3282  0.0583  0.0151
  305loPI   C4A 4874  16.418  -0.436   8.754  0.0332 -0.2092 -0.0579
  305loPI   C5A 4875  16.361  -0.755   8.415  0.2713 -0.1508 -0.0220
  305loPI   C6A 4876  16.583  -1.113   8.381 -0.0267 -0.2250 -0.1400
  305loPI   C1B 4877  15.606   0.806   9.805 -0.0507  0.2254  0.0828
  305loPI   C2B 4878  15.930   0.598   9.523 -0.0572  0.3055  0.3321
  305loPI   C3B 4879  15.948   0.558   9.090 -0.0167  0.3167  0.1866
  305loPI   C4B 4880  16.179   0.407   8.659 -0.1123 -0.1942 -0.2174
  306loPI    C1 4881  11.668   9.897  10.497  0.0775  0.3989 -0.0060
  306loPI    C2 4882  11.301  10.040  10.568  0.0293  0.0337  0.5462
  306loPI    C3 4883  11.346   9.671  10.421  0.1711  0.3195 -0.1708
  306loPI   PO4 4884  11.781  10.031  10.282  0.0020 -0.0770 -0.0128
  306loPI   GL1 4885  11.904  10.184   9.814  0.4217  0.0805  0.2222
  306loPI   GL2 4886  12.030   9.905   9.873 -0.0564 -0.0247  0.0881
  306loPI   C1A 4887  11.780  10.291   9.458  0.2066  0.1077 -0.2351
  306loPI   C2A 4888  11.716  10.212   9.062  0.1682 -0.1267  0.0063
  306loPI   C3A 4889  11.662  10.285   8.595  0.1354 -0.0247  0.0133
  306loPI   C4A 4890  11.644  10.182   8.112  0.0475 -0.0761  0.0618
  306loPI   C5A 4891  11.827   9.955   7.898 -0.2117  0.0959 -0.2608
  306loPI   C6A 4892  11.992   9.858   7.538  0.2261 -0.1926 -0.1705
  306loPI   C1B 4893  11.923   9.813   9.477 -0.0226  0.0960  0.0690
  306loPI   C2B 4894  11.805   9.701   9.077  0.1837  0.4217  0.0619
  306loPI   C3B 4895  11.810   9.783   8.660  0.0697  0.2793  0.2712
  306loPI   C4B 4896  11.918   9.708   8.322  0.3080  0.2566  0.2204
  307loPI    C1 4897   0.555   6.572   9.953 -0.1838  0.3602  0.1985
  307loPI    C2 4898   0.340   6.473  10.275 -0.0923 -0.1769  0.1042
  307loPI    C3 4899   0.740   6.457  10.288 -0.0780  0.0997  0.0546
  307loPI   PO4 4900   0.388   6.408   9.803 -0.1106 -0.3371  0.2271
  307loPI   GL1 4901   0.534   6.241   9.527 -0.0511 -0.0824  0.0717
  307loPI   GL2 4902   0.720   6.058   9.474  0.2331 -0.0533 -0.2384
  307loPI   C1A 4903   0.691   6.470   9.220  0.4227  0.1830 -0.0532
  307loPI   C2A 4904   0.739   6.456   8.815 -0.0185 -0.1143 -0.1251
  307loPI   C3A 4905   0.890   6.605   8.388 -0.0125  0.0218  0.2983
  307loPI   C4A 4906   0.889   6.616   7.972  0.1702 -0.2430  0.0170
  307loPI   C5A 4907   0.717   6.415   7.599 -0.2136 -0.1661  0.1660
  307loPI   C6A 4908   0.261   6.473   7.644 -0.1039 -0.1490  0.2574
  307loPI   C1B 4909   0.867   6.021   9.088  0.0352  0.0069 -0.4178
  307loPI   C2B 4910   0.935   5.939   8.632  0.2450  0.1710 -0.2575
  307loPI   C3B 4911   0.788   6.125   8.411  0.2450  0.3463  0.1916
  307loPI   C4B 4912   0.586   6.103   8.055  0.3592 -0.2272 -0.0433
  308loPI    C1 4913   1.769   7.723   9.729 -0.0698  0.0243 -0.0913
  308loPI    C2 4914   1.863   7.562  10.083  0.0196 -0.1150 -0.1773
  308loPI    C3 4915   1.479   7.620   9.985 -0.0016  0.0475 -0.0041
  308loPI   PO4 4916   1.967   7.887   9.708 -0.2548  0.0417 -0.4130
  308loPI   GL1 4917   1.821   8.127   9.398  0.1201 -0.0329  0.1687
  308loPI   GL2 4918   2.163   7.958   9.264 -0.0019 -0.1395  0.0771
  308loPI   C1A 4919   1.626   8.190   9.019 -0.0929 -0.0447 -0.1795
  308loPI   C2A 4920   1.634   8.149   8.610  0.0684  0.1893 -0.0694
  308loPI   C3A 4921   1.520   8.161   8.263  0.1292 -0.2437  0.1622
  308loPI   C4A 4922   1.421   7.961   7.855 -0.0114  0.0947 -0.1782
  308loPI   C5A 4923   1.445   7.601   7.641 -0.0157  0.0022  0.2319
  308loPI   C6A 4924   1.362   7.180   7.664  0.1264 -0.0877  0.1154
  308loPI   C1B 4925   2.073   8.039   8.893  0.1277  0.1599  0.0323
  308loPI   C2B 4926   2.120   7.962   8.549  0.0394 -0.0690  0.0894
  308loPI   C3B 4927   2.148   7.940   8.100 -0.0731  0.2140  0.1657
  308loPI   C4B 4928   1.896   7.828   7.722 -0.1963 -0.2406 -0.2224
  309loPI    C1 4929  10.688  15.522   9.942 -0.0729 -0.1560 -0.1252
  309loPI    C2 4930  10.671  15.159  10.109  0.1552 -0.1213 -0.0231
  309loPI    C3 4931  10.655  15.486  10.339 -0.2365 -0.0612 -0.1292
  309loPI   PO4 4932  10.871  15.471   9.766  0.4204  0.0459  0.1213
  309loPI   GL1 4933  11.024  15.441   9.387  0.0106 -0.2552  0.0272
  309loPI   GL2 4934  10.930  15.128   9.277  0.1016 -0.0122 -0.2347
  309loPI   C1A 4935  11.028  15.557   9.022 -0.0774 -0.1485 -0.0925
  309loPI   C2A 4936  11.154  15.660   8.552 -0.0840 -0.0087 -0.1572
  309loPI   C3A 4937  11.130  15.648   8.082 -0.2685  0.1841  0.6746
  309loPI   C4A 4938  11.279  15.935   7.879 -0.0535  0.0886 -0.4010
  309loPI   C5A 4939  11.711  16.145   7.866 -0.1888 -0.2185  0.1565
  309loPI   C6A 4940  12.012  16.116   7.546 -0.1165 -0.3318 -0.1699
  309loPI   C1B 4941  10.983  15.027   8.996 -0.1220  0.1523  0.0249
  309loPI   C2B 4942  10.983  15.141   8.613 -0.1674  0.0719 -0.2394
  309loPI   C3B 4943  11.086  15.147   8.156 -0.2177  0.0049 -0.2197
  309loPI   C4B 4944  11.148  15.253   7.689  0.0284  0.3111 -0.0979
  310loPI    C1 4945  14.780  11.879  10.095  0.1592  0.1063  0.0841
  310loPI    C2 4946  14.434  11.922  10.292  0.0119 -0.0759 -0.1291
  310loPI    C3 4947  14.776  11.876  10.495 -0.1103 -0.0642  0.0828
  310loPI   PO4 4948  14.748  12.110   9.948  0.0661 -0.4206  0.2432
  310loPI   GL1 4949  14.725  12.113   9.619  0.0243  0.1045  0.2135
  310loPI   GL2 4950  14.417  11.875   9.567 -0.2169  0.0244  0.1879
  310loPI   C1A 4951  14.710  12.145   9.181 -0.1969 -0.1149  0.0735
  310loPI   C2A 4952  14.483  12.405   8.937 -0.2875  0.4504 -0.0606
  310loPI   C3A 4953  14.208  12.404   8.641 -0.1765 -0.0895  0.0412
  310loPI   C4A 4954  13.758  12.503   8.451  0.1940  0.0359 -0.4141
  310loPI   C5A 4955  13.539  12.373   8.027 -0.3472 -0.0600  0.0415
  310loPI   C6A 4956  13.546  12.316   7.643 -0.0258 -0.2658  0.1666
  310loPI   C1B 4957  14.373  11.797   9.210 -0.3378 -0.0851  0.0699
  310loPI   C2B 4958  14.421  11.899   8.775 -0.1497 -0.2098  0.0890
  310loPI   C3B 4959  14.283  11.997   8.356  0.0413 -0.2449 -0.0515
  310loPI   C4B 4960  14.298  12.232   7.922 -0.2121 -0.3195  0.0394
  311loPI    C1 4961  16.120   5.125   9.972 -0.1184 -0.0787  0.1260
  311loPI    C2 4962  15.800   4.959  10.145 -0.3293 -0.2462 -0.4034
  311loPI    C3 4963  15.754   5.264   9.891 -0.0097  0.1118 -0.0460
  311loPI   PO4 4964  16.272   4.887   9.923  0.0493 -0.1230  0.0004
  311loPI   GL1 4965  16.559   4.948   9.692 -0.0245  0.2063  0.1262
  311loPI   GL2 4966  16.819   4.833   9.619  0.0502  0.0115  0.1165
  311loPI   C1A 4967  16.315   4.903   9.224  0.0141 -0.1686  0.0530
  311loPI   C2A 4968  16.452   4.896   8.750  0.1354 -0.1155 -0.1691
  311loPI   C3A 4969  16.373   4.880   8.345 -0.3650  0.0865  0.0206
  311loPI   C4A 4970  16.081   4.726   7.982 -0.0029 -0.2309 -0.0093
  311loPI   C5A 4971  15.945   4.262   7.977  0.2866 -0.0812  0.2957
  311loPI   C6A 4972  15.510   4.062   8.117 -0.2242 -0.2153 -0.0440
  311loPI   C1B 4973  16.926   4.942   9.281 -0.1167 -0.1176 -0.1272
  311loPI   C2B 4974  16.968   4.827   8.861 -0.0930 -0.0600 -0.0275
  311loPI   C3B 4975  16.851   4.677   8.499  0.0066 -0.3328 -0.3092
  311loPI   C4B 4976  16.799   4.705   8.122 -0.1667  0.2265 -0.1415
  312loPI    C1 4977   5.047   6.404  10.111 -0.2625 -0.0444 -0.1936
  312loPI    C2 4978   4.737   6.656  10.134 -0.3203 -0.1450  0.2229
  312loPI    C3 4979   4.747   6.330  10.366 -0.0475 -0.3074 -0.0106
  312loPI   PO4 4980   5.089   6.407   9.915 -0.1944 -0.0461 -0.1248
  312loPI   GL1 4981   5.412   6.343   9.680 -0.0348 -0.2412 -0.0969
  312loPI   GL2 4982   5.574   6.088   9.739 -0.1956  0.1948  0.2089
  312loPI   C1A 4983   5.262   6.283   9.344  0.1586  0.3537 -0.3886
  312loPI   C2A 4984   5.289   6.235   8.878 -0.1450  0.2715 -0.2638
  312loPI   C3A 4985   5.320   6.300   8.486  0.1386  0.0350  0.1691
  312loPI   C4A 4986   5.016   6.354   8.146  0.1803  0.2079 -0.0392
  312loPI   C5A 4987   5.003   6.549   7.726  0.1017 -0.2092  0.1181
  312loPI   C6A 4988   5.020   6.408   7.294 -0.0123  0.1181 -0.5466
  312loPI   C1B 4989   5.647   5.863   9.327 -0.2645 -0.2348  0.3036
  312loPI   C2B 4990   5.661   5.834   8.979  0.0285 -0.0102 -0.2957
  312loPI   C3B 4991   5.760   5.995   8.461  0.0502 -0.0838  0.0523
  312loPI   C4B 4992   5.709   6.127   8.092  0.0858  0.0912  0.0423
  313loPI    C1 4993  11.880  11.666  10.216 -0.3053  0.0372  0.0584
  313loPI    C2 4994  11.734  11.327  10.371  0.0027 -0.0484  0.1673
  313loPI    C3 4995  11.905  11.599  10.610  0.1452 -0.0124  0.0256
  313loPI   PO4 4996  12.078  11.695  10.083  0.1029 -0.1092 -0.4230
  313loPI   GL1 4997  12.254  11.566   9.729  0.0157  0.1554  0.0733
  313loPI   GL2 4998  12.088  11.813   9.605  0.0001  0.0149 -0.1363
  313loPI   C1A 4999  12.443  11.531   9.282  0.3737  0.2253 -0.2218
  313loPI   C2A 5000  12.416  11.524   8.884 -0.1079  0.0800  0.2235
  313loPI   C3A 5001  12.297  11.599   8.422  0.0086  0.2101 -0.0748
  313loPI   C4A 5002  12.437  11.684   8.165 -0.0300  0.1019  0.3586
  313loPI   C5A 5003  12.606  11.593   7.733  0.1094  0.0819  0.1773
  313loPI   C6A 5004  12.667  11.251   7.408 -0.0912  0.0056 -0.0510
  313loPI   C1B 5005  12.019  11.724   9.155  0.0127  0.0136  0.2368
  313loPI   C2B 5006  11.918  11.765   8.809  0.0596 -0.1518  0.1866
  313loPI   C3B 5007  11.727  11.764   8.381 -0.1174 -0.0250 -0.1173
  313loPI   C4B 5008  11.379  11.969   8.115 -0.4241 -0.0366 -0.1524
  314loPI    C1 5009   5.844   3.344  10.578 -0.0248  0.0296 -0.1315
  314loPI    C2 5010   5.852   3.141  10.923  0.0773  0.1413 -0.0672
  314loPI    C3 5011   6.010   3.508  10.903  0.0681  0.1370 -0.2323
  314loPI   PO4 5012   5.676   3.153  10.476  0.0983  0.1324 -0.2631
  314loPI   GL1 5013   5.409   3.035  10.145  0.1285  0.0921  0.2909
  314loPI   GL2 5014   5.582   3.176   9.957 -0.1938 -0.2139 -0.1550
  314loPI   C1A 5015   5.255   2.810   9.896  0.0163  0.2280 -0.0961
  314loPI   C2A 5016   5.161   2.666   9.466  0.1714  0.0634  0.0304
  314loPI   C3A 5017   5.181   2.714   9.061  0.0624  0.1075 -0.1110
  314loPI   C4A 5018   5.309   2.417   8.687 -0.1023 -0.0643  0.2032
  314loPI   C5A 5019   5.244   2.093   8.296  0.1154  0.2579 -0.2886
  314loPI   C6A 5020   5.086   2.217   7.932  0.1219  0.2566 -0.1612
  314loPI   C1B 5021   5.456   3.140   9.594  0.2017  0.1227 -0.1632
  314loPI   C2B 5022   5.115   3.110   9.473 -0.1814  0.0410 -0.0627
  314loPI   C3B 5023   4.785   3.036   9.666  0.0390 -0.1472  0.1363
  314loPI   C4B 5024   4.542   2.829   9.996 -0.1373 -0.4418  0.1109
  315loPI    C1 5025   4.709   4.081  10.576  0.2094 -0.0243  0.2472
  315loPI    C2 5026   4.318   4.162  10.594  0.2383  0.1779  0.0089
  315loPI    C3 5027   4.564   4.305  10.875  0.1550  0.1266  0.1089
  315loPI   PO4 5028   4.808   4.092  10.342 -0.0542  0.0053 -0.2510
  315loPI   GL1 5029   4.614   4.310  10.035  0.1108  0.0160 -0.2901
  315loPI   GL2 5030   4.796   4.544  10.085  0.0500  0.1070 -0.0339
  315loPI   C1A 5031   4.757   4.427   9.561 -0.0863  0.1640  0.1538
  315loPI   C2A 5032   4.716   4.426   9.150  0.0776 -0.1914 -0.3196
  315loPI   C3A 5033   4.620   4.206   8.835 -0.2225 -0.0788 -0.2478
  315loPI   C4A 5034   4.543   4.083   8.403  0.0184  0.0990 -0.2260
  315loPI   C5A 5035   4.782   3.836   8.247  0.2149  0.0306  0.1580
  315loPI   C6A 5036   5.236   3.813   8.110  0.3416 -0.0230  0.0738
  315loPI   C1B 5037   4.742   4.900   9.791 -0.1275 -0.1152  0.2617
  315loPI   C2B 5038   4.553   4.902   9.469 -0.1152 -0.1793 -0.2364
  315loPI   C3B 5039   4.607   4.895   8.940 -0.1481  0.1221 -0.0354
  315loPI   C4B 5040   4.588   5.094   8.544  0.0160  0.0571  0.1806
  316loPI    C1 5041  10.742   4.633  10.142 -0.0323  0.3609  0.0575
  316loPI    C2 5042  11.044   4.655  10.403  0.0470  0.0610 -0.0049
  316loPI    C3 5043  11.019   4.919  10.103  0.2987  0.0328 -0.0530
  316loPI   PO4 5044  10.734   4.415  10.078  0.3790 -0.0982 -0.0431
  316loPI   GL1 5045  10.826   4.371   9.659  0.1471  0.1229 -0.0643
  316loPI   GL2 5046  10.797   4.692   9.634 -0.0031  0.0469 -0.1912
  316loPI   C1A 5047  10.943   4.259   9.175  0.0078 -0.2265 -0.0331
  316loPI   C2A 5048  11.178   4.136   8.883  0.1776  0.1356 -0.0506
  316loPI   C3A 5049  11.364   4.382   8.516  0.0045 -0.3474  0.1465
  316loPI   C4A 5050  11.588   4.499   8.172 -0.0598 -0.0165  0.2186
  316loPI   C5A 5051  11.960   4.276   8.090  0.1399 -0.0890 -0.0792
  316loPI   C6A 5052  12.392   4.379   8.195 -0.3453 -0.1779 -0.0552
  316loPI   C1B 5053  10.886   4.818   9.197 -0.3367 -0.0240 -0.0038
  316loPI   C2B 5054  11.065   4.630   8.844  0.0844  0.4128  0.0534
  316loPI   C3B 5055  11.105   4.757   8.505 -0.0803 -0.2216  0.0238
  316loPI   C4B 5056  11.004   4.505   8.123  0.1808  0.2647  0.3336
  317loPI    C1 5057   8.177   7.557  10.409  0.0467 -0.0228 -0.0293
  317loPI    C2 5058   8.549   7.421  10.466  0.0923  0.0529 -0.1423
  317loPI    C3 5059   8.449   7.787  10.591  0.0794  0.0647 -0.1866
  317loPI   PO4 5060   8.154   7.487  10.173  0.0443 -0.1717  0.3130
  317loPI   GL1 5061   8.257   7.303   9.762  0.0988  0.1595  0.3534
  317loPI   GL2 5062   8.495   7.449   9.704  0.0180  0.2004 -0.1621
  317loPI   C1A 5063   8.271   7.155   9.335 -0.0411 -0.3003 -0.1083
  317loPI   C2A 5064   8.468   7.250   8.999  0.0287  0.0286 -0.0075
  317loPI   C3A 5065   8.538   7.436   8.574  0.1917 -0.3583 -0.1521
  317loPI   C4A 5066   8.421   7.742   8.479  0.0801 -0.3187  0.0717
  317loPI   C5A 5067   8.165   8.116   8.465 -0.2343 -0.0704  0.0635
  317loPI   C6A 5068   7.762   8.030   8.413  0.0210 -0.1441 -0.1847
  317loPI   C1B 5069   8.441   7.634   9.342 -0.1208  0.0799  0.0475
  317loPI   C2B 5070   8.722   7.789   9.127 -0.3388 -0.0108 -0.0264
  317loPI   C3B 5071   9.009   7.755   8.743 -0.1512  0.5513  0.3259
  317loPI   C4B 5072   8.898   8.038   8.444  0.1452 -0.2387 -0.0830
  318loPI    C1 5073   7.994  14.573   9.846  0.0301 -0.1334 -0.2204
  318loPI    C2 5074   8.316  14.378   9.983  0.0195 -0.0725 -0.1084
  318loPI    C3 5075   7.949  14.257  10.087  0.0174  0.1356  0.1372
  318loPI   PO4 5076   8.009  14.893   9.838 -0.2789  0.0232 -0.1818
  318loPI   GL1 5077   7.842  15.232   9.606  0.0822  0.0459  0.0792
  318loPI   GL2 5078   7.916  15.553   9.756  0.0008 -0.0461 -0.2527
  318loPI   C1A 5079   8.034  15.449   9.259  0.0205 -0.2163 -0.0105
  318loPI   C2A 5080   7.918  15.590   8.812 -0.2563 -0.3102  0.0751
  318loPI   C3A 5081   7.986  15.724   8.351 -0.2419 -0.0780 -0.2471
  318loPI   C4A 5082   8.193  15.997   8.140 -0.0680  0.1668 -0.1359
  318loPI   C5A 5083   8.049  16.291   7.807  0.0263 -0.0732 -0.0467
  318loPI   C6A 5084   7.842  16.405   7.397  0.3901 -0.1398  0.0501
  318loPI   C1B 5085   7.699  15.909   9.408  0.1706  0.0215 -0.1635
  318loPI   C2B 5086   7.823  16.083   9.038  0.1539 -0.0772 -0.1167
  318loPI   C3B 5087   7.749  16.167   8.538 -0.0851  0.1597 -0.1420
  318loPI   C4B 5088   7.728  16.254   8.132 -0.1936 -0.0125 -0.1153
  319loPI    C1 5089   5.989  10.526  10.414 -0.1043 -0.1426 -0.1390
  319loPI    C2 5090   6.357  10.512  10.571 -0.1481  0.2186  0.0063
  319loPI    C3 5091   6.037  10.515  10.811 -0.2384  0.1572 -0.1120
  319loPI   PO4 5092   5.998  10.696  10.223 -0.0937  0.3335 -0.0202
  319loPI   GL1 5093   6.067  10.612   9.879 -0.0640  0.2398  0.0229
  319loPI   GL2 5094   6.087  10.439   9.736 -0.1250 -0.3379  0.4260
  319loPI   C1A 5095   6.105  10.974   9.522  0.2188 -0.3266  0.0807
  319loPI   C2A 5096   5.958  10.980   9.117 -0.1490  0.3250 -0.2315
  319loPI   C3A 5097   6.082  10.909   8.698 -0.0402 -0.1315  0.1168
  319loPI   C4A 5098   5.945  10.739   8.230 -0.0366  0.0700 -0.0039
  319loPI   C5A 5099   5.768  10.927   7.839  0.0068  0.1784  0.3010
  319loPI   C6A 5100   5.637  10.756   7.503  0.0395 -0.0607  0.1553
  319loPI   C1B 5101   6.028  10.468   9.297 -0.0270  0.1857  0.2465
  319loPI   C2B 5102   6.024  10.407   8.834  0.1489 -0.2095  0.0482
  319loPI   C3B 5103   5.732  10.290   8.516 -0.0588 -0.0545  0.2878
  319loPI   C4B 5104   5.825  10.287   8.028  0.2375 -0.0230 -0.0583
  320loPI    C1 5105  17.197  12.236  10.182  0.0934 -0.0874  0.0369
  320loPI    C2 5106  16.982  11.928  10.044  0.0312  0.0420 -0.1604
  320loPI    C3 5107  17.191  11.891  10.383 -0.2044 -0.1250 -0.0305
  320loPI   PO4 5108  17.317  12.349   9.949  0.2001  0.2763  0.2245
  320loPI   GL1 5109  17.568  12.180   9.645  0.2254  0.3360 -0.0248
  320loPI   GL2 5110  17.336  11.913   9.578  0.3649 -0.0122 -0.4305
  320loPI   C1A 5111  17.647  12.285   9.311 -0.0203 -0.1677 -0.0846
  320loPI   C2A 5112  17.539  12.326   8.931  0.4825  0.0415  0.0977
  320loPI   C3A 5113  17.441  12.339   8.515  0.0896  0.0159  0.1700
  320loPI   C4A 5114  17.707  12.359   8.136  0.6711 -0.0691  0.2365
  320loPI   C5A 5115  18.038  12.557   8.046  0.0231 -0.2070 -0.1490
  320loPI   C6A 5116  18.295  12.695   7.887 -0.2827  0.0088  0.4347
  320loPI   C1B 5117  17.439  11.866   9.147 -0.0319  0.0761 -0.0541
  320loPI   C2B 5118  17.469  11.894   8.687  0.3220  0.1711 -0.1319
  320loPI   C3B 5119  17.553  11.826   8.227 -0.0273 -0.1393  0.2699
  320loPI   C4B 5120  17.569  11.641   7.849 -0.1422  0.0464  0.2981
  321loPI    C1 5121   3.351  10.873  10.047 -0.0004  0.2737 -0.1125
  321loPI    C2 5122   3.178  10.692  10.359  0.1253 -0.1010 -0.2544
  321loPI    C3 5123   3.510  10.909  10.412 -0.0513  0.1319 -0.0758
  321loPI   PO4 5124   3.473  10.652   9.865  0.0768  0.0714 -0.0829
  321loPI   GL1 5125   3.674  10.627   9.507 -0.0276 -0.1337 -0.2619
  321loPI   GL2 5126   3.616  10.369   9.454 -0.2517 -0.0476 -0.1388
  321loPI   C1A 5127   3.526  10.852   9.223 -0.2171 -0.1966 -0.0060
  321loPI   C2A 5128   3.575  10.994   8.845 -0.1953  0.1167 -0.0993
  321loPI   C3A 5129   3.499  10.966   8.394  0.0135  0.2557 -0.4109
  321loPI   C4A 5130   3.382  11.006   8.008 -0.1478 -0.0765 -0.0983
  321loPI   C5A 5131   3.451  11.098   7.682 -0.0268 -0.2226 -0.1679
  321loPI   C6A 5132   3.943  11.245   7.522 -0.2648 -0.2484 -0.2312
  321loPI   C1B 5133   3.603  10.377   8.987  0.2677 -0.0322  0.0163
  321loPI   C2B 5134   3.557  10.462   8.569  0.1004 -0.0117  0.2748
  321loPI   C3B 5135   3.738  10.621   8.104  0.4188  0.2359 -0.0762
  321loPI   C4B 5136   3.774  10.650   7.650 -0.1492  0.0367  0.1815
  322loPI    C1 5137  17.612   0.832  10.654  0.0301 -0.1255  0.0247
  322loPI    C2 5138  17.709   0.824  11.042 -0.3479  0.1816  0.1324
  322loPI    C3 5139  17.505   0.520  10.880 -0.0110 -0.0433  0.1193
  322loPI   PO4 5140  17.750   1.156  10.596 -0.3505  0.1858  0.1926
  322loPI   GL1 5141  17.759   1.363  10.186  0.0970 -0.1072  0.3135
  322loPI   GL2 5142  17.492   1.285  10.067 -0.0138  0.0284 -0.1853
  322loPI   C1A 5143  18.151   1.268  10.022 -0.1242 -0.0903 -0.1975
  322loPI   C2A 5144  18.196   1.434   9.418  0.2456  0.3548 -0.3053
  322loPI   C3A 5145  18.291   1.329   8.971  0.0385 -0.0137  0.2702
  322loPI   C4A 5146  18.227   1.419   8.548  0.0628  0.0115 -0.1807
  322loPI   C5A 5147  17.935   1.735   8.293  0.1978  0.3187 -0.0509
  322loPI   C6A 5148  17.694   2.148   8.359  0.1515  0.1991  0.0344
  322loPI   C1B 5149  17.743   1.279   9.673 -0.3380 -0.2218  0.0028
  322loPI   C2B 5150  17.778   1.292   9.159  0.1049 -0.3720 -0.1721
  322loPI   C3B 5151  17.661   1.272   8.808 -0.2560  0.0109 -0.0951
  322loPI   C4B 5152  17.510   1.430   8.321  0.1169  0.0213 -0.1917
  323loPI    C1 5153   5.444   0.278  10.828  0.1000  0.2402  0.2276
  323loPI    C2 5154   5.077   0.122  10.862  0.1190  0.2373  0.4333
  323loPI    C3 5155   5.179   0.441  11.080  0.2150  0.2836  0.3213
  323loPI   PO4 5156   5.444   0.203  10.527 -0.1171  0.0521  0.1424
  323loPI   GL1 5157   5.246   0.478  10.215  0.0613 -0.5031  0.0159
  323loPI   GL2 5158   5.380   0.330  10.040  0.3055  0.2490 -0.2921
  323loPI   C1A 5159   5.469   0.782   9.922 -0.0621  0.2170 -0.2479
  323loPI   C2A 5160   5.593   0.940   9.473  0.4047  0.1803  0.4306
  323loPI   C3A 5161   5.713   0.807   9.041  0.3029 -0.1084  0.3355
  323loPI   C4A 5162   5.609   0.796   8.688 -0.0610 -0.1331 -0.4025
  323loPI   C5A 5163   5.726   0.461   8.360  0.2952 -0.0095  0.1107
  323loPI   C6A 5164   5.833   0.386   7.928  0.0103 -0.3449  0.0510
  323loPI   C1B 5165   5.327   0.415   9.597  0.0474 -0.4014  0.4566
  323loPI   C2B 5166   5.256   0.502   9.182 -0.0359  0.1615 -0.0487
  323loPI   C3B 5167   5.322   0.421   8.766 -0.1923 -0.2001  0.4345
  323loPI   C4B 5168   5.226   0.557   8.414 -0.0120 -0.0038  0.0556
  324loPI    C1 5169  12.864   7.629  10.458  0.1735 -0.2544  0.4829
  324loPI    C2 5170  12.528   7.488  10.623 -0.2285  0.0155 -0.0722
  324loPI    C3 5171  12.718   7.275  10.343 -0.1329  0.0213 -0.0121
  324loPI   PO4 5172  12.773   7.918  10.364 -0.1471 -0.1886 -0.2151
  324loPI   GL1 5173  12.670   8.009  10.018 -0.0304 -0.0882 -0.0406
  324loPI   GL2 5174  12.805   8.272   9.799 -0.2988 -0.2523  0.1178
  324loPI   C1A 5175  12.661   7.898   9.559  0.1850 -0.2898  0.2299
  324loPI   C2A 5176  12.726   7.977   9.109 -0.2868 -0.1286 -0.0430
  324loPI   C3A 5177  12.787   8.065   8.778 -0.1381  0.1229 -0.0197
  324loPI   C4A 5178  12.540   7.986   8.400  0.4143 -0.0653  0.0123
  324loPI   C5A 5179  12.556   7.996   7.942 -0.2170  0.0726  0.0006
  324loPI   C6A 5180  12.917   8.058   7.819 -0.0352  0.1219 -0.4868
  324loPI   C1B 5181  12.997   8.265   9.448 -0.1517  0.0944 -0.2052
  324loPI   C2B 5182  13.105   8.466   9.035  0.2518 -0.0196 -0.0061
  324loPI   C3B 5183  13.155   8.392   8.548 -0.1595 -0.0244  0.0200
  324loPI   C4B 5184  12.893   8.399   8.336 -0.0298  0.0302 -0.1589
  325loPI    C1 5185   1.404   3.741  10.757  0.0414  0.1545 -0.1484
  325loPI    C2 5186   1.497   4.128  10.799  0.1468  0.1218 -0.0777
  325loPI    C3 5187   1.506   3.884  11.116  0.0151  0.0753 -0.1091
  325loPI   PO4 5188   1.609   3.647  10.462 -0.0572 -0.0177 -0.1708
  325loPI   GL1 5189   1.642   3.856  10.018 -0.1089 -0.3970 -0.0976
  325loPI   GL2 5190   1.308   3.784   9.972  0.2219  0.0163  0.3822
  325loPI   C1A 5191   1.570   3.739   9.541 -0.3308  0.0695  0.3875
  325loPI   C2A 5192   1.618   3.623   9.155  0.3760 -0.3706  0.1440
  325loPI   C3A 5193   1.711   3.689   8.728 -0.1305  0.0980 -0.2725
  325loPI   C4A 5194   1.522   3.723   8.262 -0.3673 -0.0081 -0.0428
  325loPI   C5A 5195   1.438   4.088   8.031 -0.0383 -0.0752  0.2300
  325loPI   C6A 5196   1.827   4.416   7.897 -0.0111  0.2106  0.2622
  325loPI   C1B 5197   1.435   4.175   9.759 -0.0244  0.0553  0.1998
  325loPI   C2B 5198   1.380   4.248   9.337  0.0907 -0.1025 -0.0865
  325loPI   C3B 5199   1.406   4.049   8.981  0.0527 -0.0704 -0.0729
  325loPI   C4B 5200   1.386   4.061   8.577  0.0887  0.0195  0.0596
  326loPI    C1 5201  12.270   4.470  10.113 -0.1600  0.1242 -0.0945
  326loPI    C2 5202  12.242   4.087  10.224 -0.0066  0.1495  0.0351
  326loPI    C3 5203  12.010   4.363  10.397  0.1551  0.1723  0.2183
  326loPI   PO4 5204  12.508   4.520  10.184  0.3069  0.1526  0.0118
  326loPI   GL1 5205  12.717   4.512   9.894  0.0106  0.0454 -0.3221
  326loPI   GL2 5206  12.574   4.083   9.820 -0.0188 -0.1561  0.1269
  326loPI   C1A 5207  12.760   4.473   9.532 -0.2444  0.0972 -0.0273
  326loPI   C2A 5208  13.019   4.266   9.221 -0.1613  0.0385 -0.2567
  326loPI   C3A 5209  12.800   4.164   8.844  0.0082 -0.2754 -0.1171
  326loPI   C4A 5210  12.866   4.353   8.369  0.3020  0.0105 -0.1970
  326loPI   C5A 5211  12.805   4.742   8.190 -0.0595 -0.1992 -0.0747
  326loPI   C6A 5212  12.786   5.027   7.974 -0.0714 -0.1690  0.2784
  326loPI   C1B 5213  12.309   4.253   9.487 -0.0303  0.1854 -0.1296
  326loPI   C2B 5214  12.387   4.293   9.074  0.2214  0.0956 -0.2908
  326loPI   C3B 5215  12.459   4.544   8.803  0.3004  0.0537 -0.2073
  326loPI   C4B 5216  12.472   4.785   8.520  0.1887  0.1062  0.3003
  327loPI    C1 5217   5.041  15.980  10.392 -0.0285 -0.0947  0.0342
  327loPI    C2 5218   5.256  15.881  10.715 -0.0302 -0.0591  0.0463
  327loPI    C3 5219   4.857  15.843  10.721 -0.0458  0.1038  0.1085
  327loPI   PO4 5220   5.191  15.925  10.203 -0.4910 -0.2009  0.2131
  327loPI   GL1 5221   5.283  15.981   9.774  0.2535  0.2088  0.0843
  327loPI   GL2 5222   5.193  16.331   9.855 -0.0437 -0.1982 -0.0127
  327loPI   C1A 5223   5.102  16.102   9.343 -0.1440  0.0814  0.0130
  327loPI   C2A 5224   4.944  15.941   8.955  0.1212 -0.0899  0.1425
  327loPI   C3A 5225   4.949  15.863   8.504  0.2272  0.2693 -0.4065
  327loPI   C4A 5226   4.662  16.128   8.248 -0.2014 -0.2517 -0.0064
  327loPI   C5A 5227   4.350  16.401   8.456 -0.0020  0.0674 -0.3314
  327loPI   C6A 5228   4.059  16.358   8.833  0.1005 -0.1968  0.1036
  327loPI   C1B 5229   4.741  16.328   9.618  0.0701 -0.1278 -0.2020
  327loPI   C2B 5230   4.583  16.222   9.216 -0.1101 -0.2084 -0.2142
  327loPI   C3B 5231   4.455  16.041   8.830  0.0373  0.1106 -0.0036
  327loPI   C4B 5232   4.454  15.799   8.535 -0.1953 -0.0846 -0.0032
  328loPI    C1 5233  11.630   6.611  10.359 -0.1697 -0.0947 -0.0552
  328loPI    C2 5234  11.463   6.344  10.606 -0.2140 -0.1087 -0.1000
  328loPI    C3 5235  11.860   6.398  10.609 -0.2330  0.0302  0.1114
  328loPI   PO4 5236  11.558   6.518  10.082 -0.1845  0.0064  0.0822
  328loPI   GL1 5237  11.589   6.740   9.745 -0.0953 -0.0138 -0.0466
  328loPI   GL2 5238  11.618   7.099   9.759  0.0694 -0.0129 -0.0314
  328loPI   C1A 5239  11.663   6.706   9.355 -0.0569 -0.1676  0.4028
  328loPI   C2A 5240  11.884   6.808   9.039  0.2605 -0.1598  0.2775
  328loPI   C3A 5241  11.929   6.689   8.674 -0.0255 -0.1845  0.0018
  328loPI   C4A 5242  11.778   6.524   8.343 -0.2894  0.1077 -0.0344
  328loPI   C5A 5243  11.825   6.357   7.906 -0.4943 -0.2456 -0.1029
  328loPI   C6A 5244  11.652   6.302   7.548  0.1659 -0.3913 -0.0886
  328loPI   C1B 5245  11.566   7.210   9.329  0.0822  0.0157 -0.1335
  328loPI   C2B 5246  11.554   7.459   9.096 -0.0372  0.2686 -0.1955
  328loPI   C3B 5247  11.591   7.618   8.595  0.2501 -0.1738  0.1061
  328loPI   C4B 5248  11.808   7.509   8.210 -0.1957 -0.1794  0.2935
  329loPI    C1 5249  10.577  10.861  10.546  0.0079  0.0178 -0.0776
  329loPI    C2 5250  10.760  11.216  10.570 -0.1306  0.0919 -0.1145
  329loPI    C3 5251  10.710  10.995  10.899 -0.0364  0.1026 -0.0929
  329loPI   PO4 5252  10.461  10.917  10.270 -0.0492  0.1979  0.0776
  329loPI   GL1 5253  10.316  11.142   9.892 -0.2423 -0.1357  0.1529
  329loPI   GL2 5254  10.133  11.384   9.822 -0.2579  0.2095 -0.1585
  329loPI   C1A 5255  10.509  11.142   9.488 -0.1000  0.3233 -0.0376
  329loPI   C2A 5256  10.498  11.159   9.051 -0.1250  0.1487  0.1972
  329loPI   C3A 5257  10.415  11.122   8.708 -0.1951 -0.2007  0.0928
  329loPI   C4A 5258  10.539  11.100   8.377 -0.1796  0.2037 -0.1205
  329loPI   C5A 5259  10.553  11.222   7.976 -0.1799 -0.1059 -0.2023
  329loPI   C6A 5260  10.579  11.586   7.675  0.0286  0.0640  0.3763
  329loPI   C1B 5261  10.235  11.531   9.403 -0.0412  0.2265  0.5249
  329loPI   C2B 5262  10.382  11.663   8.971 -0.1139  0.0770  0.3990
  329loPI   C3B 5263  10.461  11.857   8.618 -0.2169 -0.4714  0.1246
  329loPI   C4B 5264  10.608  11.897   8.144 -0.0818  0.0532 -0.0035
  330loPI    C1 5265   6.206   8.421  10.411  0.2501 -0.2525  0.3392
  330loPI    C2 5266   5.867   8.621  10.484  0.2173 -0.0621 -0.2722
  330loPI    C3 5267   5.940   8.276  10.673 -0.1590  0.0575  0.1090
  330loPI   PO4 5268   6.300   8.478  10.060  0.0253  0.0276 -0.1458
  330loPI   GL1 5269   6.272   8.729   9.691  0.1202  0.1806  0.1241
  330loPI   GL2 5270   6.496   8.557   9.572 -0.2839 -0.0008  0.1560
  330loPI   C1A 5271   6.111   8.913   9.297 -0.3495  0.1059  0.0903
  330loPI   C2A 5272   6.226   8.844   8.894 -0.4190  0.1278  0.0476
  330loPI   C3A 5273   6.453   8.841   8.549  0.0429 -0.3224 -0.2382
  330loPI   C4A 5274   6.686   8.584   8.129 -0.2344  0.1938  0.1255
  330loPI   C5A 5275   7.025   8.695   7.979  0.0651  0.0582  0.3777
  330loPI   C6A 5276   7.230   8.880   7.665  0.2018  0.1325  0.0830
  330loPI   C1B 5277   6.636   8.532   9.203 -0.1651 -0.2577  0.3053
  330loPI   C2B 5278   6.515   8.437   8.844  0.4216 -0.0700 -0.1203
  330loPI   C3B 5279   6.567   8.255   8.530  0.1277 -0.2335  0.2207
  330loPI   C4B 5280   6.421   8.002   8.103 -0.0740 -0.0843  0.3572
  331loPI    C1 5281  10.103  13.383   9.852 -0.0482  0.2207 -0.0076
  331loPI    C2 5282   9.839  13.185  10.077  0.1567  0.1468  0.1714
  331loPI    C3 5283  10.022  13.510  10.222  0.0870  0.2602  0.0091
  331loPI   PO4 5284  10.302  13.249   9.686 -0.5561 -0.0048 -0.2354
  331loPI   GL1 5285  10.456  12.997   9.405 -0.1443  0.2249 -0.1353
  331loPI   GL2 5286  10.283  12.764   9.471 -0.1427  0.2363  0.0173
  331loPI   C1A 5287  10.508  13.049   9.046 -0.2508 -0.0586  0.1078
  331loPI   C2A 5288  10.632  13.088   8.665  0.0759  0.1069  0.0580
  331loPI   C3A 5289  10.737  13.227   8.198 -0.2093  0.1072 -0.4097
  331loPI   C4A 5290  10.754  13.396   7.791  0.2067 -0.0101 -0.1406
  331loPI   C5A 5291  10.978  13.536   7.457  0.4390 -0.1064  0.0148
  331loPI   C6A 5292  11.296  13.434   7.060  0.0528 -0.3533  0.1349
  331loPI   C1B 5293  10.371  12.596   9.088  0.1472 -0.1043  0.4140
  331loPI   C2B 5294  10.441  12.248   8.897  0.2784 -0.1522 -0.1438
  331loPI   C3B 5295  10.478  12.364   8.486 -0.3369  0.2670  0.0976
  331loPI   C4B 5296  10.715  12.756   8.313  0.1678  0.3656 -0.0951
  332loPI    C1 5297   8.853   6.938  10.534 -0.0418  0.0014 -0.1149
  332loPI    C2 5298   8.883   6.620  10.774  0.1296 -0.0210 -0.1649
  332loPI    C3 5299   9.005   6.979  10.902 -0.2988  0.0767 -0.0149
  332loPI   PO4 5300   8.962   6.778  10.128  0.1010 -0.1143 -0.0127
  332loPI   GL1 5301   9.240   6.731   9.881  0.0791 -0.0188  0.2786
  332loPI   GL2 5302   9.459   6.683  10.030 -0.1173  0.1628 -0.0243
  332loPI   C1A 5303   9.331   6.828   9.447  0.0960  0.2726  0.0681
  332loPI   C2A 5304   9.556   7.194   9.278 -0.0335  0.2583  0.0114
  332loPI   C3A 5305   9.779   7.285   8.778  0.1889 -0.2344 -0.0188
  332loPI   C4A 5306   9.985   7.463   8.373 -0.1807 -0.0256 -0.2634
  332loPI   C5A 5307   9.901   7.804   8.182  0.1457 -0.0389  0.3504
  332loPI   C6A 5308   9.512   7.929   7.900  0.2858 -0.1291 -0.2491
  332loPI   C1B 5309   9.577   7.070   9.754 -0.1621 -0.1051 -0.2868
  332loPI   C2B 5310   9.223   7.274   9.640 -0.2746 -0.0505  0.0449
  332loPI   C3B 5311   9.150   7.581   9.401 -0.1937  0.0892  0.2081
  332loPI   C4B 5312   9.407   7.620   8.966 -0.2383  0.3092 -0.2045
  333loPI    C1 5313  12.257  18.250  10.532  0.0787  0.0929 -0.0060
  333loPI    C2 5314  12.413  18.018  10.819  0.1935  0.0022 -0.1402
  333loPI    C3 5315  12.159  18.312  10.915  0.1050 -0.1308  0.0385
  333loPI   PO4 5316  12.456  18.402  10.380  0.1534 -0.0053 -0.2579
  333loPI   GL1 5317  12.461  18.394   9.984 -0.1016  0.1987 -0.3089
  333loPI   GL2 5318  12.645  18.633   9.935 -0.0251 -0.3112 -0.0589
  333loPI   C1A 5319  12.203  18.302   9.634  0.2280  0.1726  0.1868
  333loPI   C2A 5320  11.956  18.381   9.302 -0.1942 -0.1671  0.0058
  333loPI   C3A 5321  12.167  18.472   8.870  0.0359 -0.0063 -0.1148
  333loPI   C4A 5322  12.150  18.452   8.450 -0.3099 -0.0994 -0.0024
  333loPI   C5A 5323  11.923  18.433   8.069 -0.1226  0.0057 -0.0010
  333loPI   C6A 5324  11.509  18.303   7.969 -0.2407  0.1194 -0.2489
  333loPI   C1B 5325  12.874  18.715   9.578 -0.0657  0.2060  0.0464
  333loPI   C2B 5326  12.964  18.875   9.190  0.1885 -0.0644 -0.1722
  333loPI   C3B 5327  13.080  19.098   8.842  0.3199 -0.2763  0.1443
  333loPI   C4B 5328  12.918  19.360   8.478  0.1451  0.0588 -0.3323
  334loPI    C1 5329   7.517   2.139  10.338 -0.0301 -0.0131  0.2477
  334loPI    C2 5330   7.781   2.361  10.539 -0.0442  0.0094  0.2414
  334loPI    C3 5331   7.782   1.963  10.580  0.1361 -0.0090  0.0711
  334loPI   PO4 5332   7.591   2.167  10.040  0.4247 -0.0378 -0.0344
  334loPI   GL1 5333   7.519   1.982   9.661  0.4475 -0.0937  0.3567
  334loPI   GL2 5334   7.729   1.667   9.663  0.1019 -0.1387 -0.1189
  334loPI   C1A 5335   7.533   2.101   9.308 -0.3761  0.1667  0.1036
  334loPI   C2A 5336   7.477   2.171   8.820  0.0197  0.0379 -0.2236
  334loPI   C3A 5337   7.431   2.364   8.455  0.2879  0.2129  0.2552
  334loPI   C4A 5338   7.291   2.083   8.116 -0.2872  0.1747 -0.1110
  334loPI   C5A 5339   7.206   1.698   8.087 -0.0573  0.0209  0.0812
  334loPI   C6A 5340   7.247   1.269   7.963 -0.3366  0.3128 -0.2017
  334loPI   C1B 5341   7.966   1.583   9.389 -0.3480  0.2808  0.0967
  334loPI   C2B 5342   8.066   1.563   8.987  0.0418 -0.0580 -0.2324
  334loPI   C3B 5343   8.238   1.362   8.675  0.0925 -0.0638 -0.0809
  334loPI   C4B 5344   8.289   1.418   8.289  0.0206  0.2315  0.2081
  335loPI    C1 5345   8.234   6.192  10.519  0.0519 -0.0145 -0.0085
  335loPI    C2 5346   8.184   6.041  10.886 -0.2258  0.1699  0.0322
  335loPI    C3 5347   8.475   6.307  10.817 -0.0362 -0.0253  0.0673
  335loPI   PO4 5348   7.992   6.153  10.357 -0.0803 -0.0681  0.0481
  335loPI   GL1 5349   7.882   6.066   9.965  0.0935  0.0214 -0.0679
  335loPI   GL2 5350   8.154   5.824   9.901 -0.1312  0.1101  0.0836
  335loPI   C1A 5351   7.845   6.021   9.548 -0.1394 -0.1334  0.1725
  335loPI   C2A 5352   7.909   5.996   9.098  0.1961 -0.4064 -0.1507
  335loPI   C3A 5353   7.881   5.992   8.755  0.0503  0.2044 -0.1122
  335loPI   C4A 5354   8.001   6.115   8.497  0.1938  0.2552 -0.1255
  335loPI   C5A 5355   8.491   6.172   8.244  0.2514  0.3008 -0.1144
  335loPI   C6A 5356   8.958   6.247   8.109 -0.3394  0.0714  0.0081
  335loPI   C1B 5357   8.267   5.686   9.484  0.2100  0.3162  0.2657
  335loPI   C2B 5358   8.264   5.676   9.029 -0.0226 -0.0328 -0.0746
  335loPI   C3B 5359   8.408   5.712   8.533  0.1430  0.0641 -0.2056
  335loPI   C4B 5360   8.727   5.649   8.139  0.1294 -0.1054  0.2462
  336loPI    C1 5361   2.478  14.897  10.508 -0.0356  0.0393  0.0528
  336loPI    C2 5362   2.143  15.044  10.667 -0.1004 -0.1230  0.0690
  336loPI    C3 5363   2.499  15.154  10.813 -0.1405  0.1569 -0.0383
  336loPI   PO4 5364   2.427  14.974  10.270  0.1081  0.6138 -0.1707
  336loPI   GL1 5365   2.424  15.193   9.771 -0.2740 -0.1603  0.1718
  336loPI   GL2 5366   2.405  14.888   9.641  0.0262  0.3079 -0.0237
  336loPI   C1A 5367   2.600  15.226   9.307 -0.0621  0.1503  0.0739
  336loPI   C2A 5368   2.628  15.365   8.870 -0.2035 -0.0339  0.0636
  336loPI   C3A 5369   2.428  15.625   8.549  0.2796  0.3291  0.0779
  336loPI   C4A 5370   2.107  15.592   8.309 -0.3276  0.1228 -0.1787
  336loPI   C5A 5371   1.782  15.819   8.170  0.0117  0.1571 -0.2234
  336loPI   C6A 5372   1.607  16.011   7.786  0.0552  0.5052 -0.2255
  336loPI   C1B 5373   2.444  14.790   9.172  0.0453 -0.2550 -0.0386
  336loPI   C2B 5374   2.478  14.790   8.805 -0.1692  0.1470  0.0334
  336loPI   C3B 5375   2.745  14.616   8.538  0.1613  0.2705 -0.0241
  336loPI   C4B 5376   2.703  14.634   8.114  0.0064  0.1629 -0.0798
  337loPI    C1 5377   5.644   2.262  10.297  0.1654  0.0515 -0.0922
  337loPI    C2 5378   5.962   2.308  10.536 -0.0247 -0.1434  0.2053
  337loPI    C3 5379   5.618   2.169  10.685 -0.1590 -0.2350 -0.1780
  337loPI   PO4 5380   5.767   2.031  10.144  0.0932  0.0905 -0.0912
  337loPI   GL1 5381   5.560   2.057   9.836 -0.1244 -0.6842  0.2905
  337loPI   GL2 5382   5.632   1.838   9.510  0.1033  0.5053  0.1492
  337loPI   C1A 5383   5.522   2.307   9.513 -0.1912 -0.0241  0.1391
  337loPI   C2A 5384   5.670   2.255   9.145  0.0185  0.3789 -0.0276
  337loPI   C3A 5385   5.593   1.999   8.769  0.1613  0.0643 -0.0110
  337loPI   C4A 5386   5.205   1.779   8.680 -0.3982 -0.2054  0.0612
  337loPI   C5A 5387   4.757   1.729   8.459 -0.0672  0.0820 -0.1625
  337loPI   C6A 5388   4.383   1.683   8.387  0.0557  0.1885  0.1717
  337loPI   C1B 5389   5.317   1.852   9.254 -0.2190 -0.2095  0.0450
  337loPI   C2B 5390   5.113   2.145   9.028 -0.1036  0.1732 -0.3562
  337loPI   C3B 5391   4.836   2.269   8.593  0.0720 -0.0427 -0.0043
  337loPI   C4B 5392   4.588   2.072   8.141  0.2285 -0.0536 -0.1349
  338loPI    C1 5393   0.464  10.077  10.128  0.1311  0.1402 -0.1129
  338loPI    C2 5394   0.307   9.894  10.447  0.3794 -0.1157 -0.1340
  338loPI    C3 5395   0.448  10.267  10.480  0.1046 -0.0186 -0.0275
  338loPI   PO4 5396   0.287   9.957   9.964  0.1625  0.0570  0.1498
  338loPI   GL1 5397   0.045   9.778   9.710 -0.3940 -0.2191 -0.0553
  338loPI   GL2 5398   0.226   9.458   9.602 -0.2404  0.1133  0.1046
  338loPI   C1A 5399   0.092   9.844   9.248  0.1335 -0.0719 -0.5004
  338loPI   C2A 5400   0.147   9.776   8.872 -0.3160  0.1606  0.3120
  338loPI   C3A 5401   0.375   9.639   8.562  0.0749  0.2053  0.2376
  338loPI   C4A 5402   0.395   9.527   8.130 -0.1789  0.4020  0.3208
  338loPI   C5A 5403   0.444   9.649   7.760  0.1832 -0.0392  0.3148
  338loPI   C6A 5404   0.545   9.404   7.302  0.1296  0.0467  0.0843
  338loPI   C1B 5405   0.436   9.448   9.278 -0.0577 -0.0525 -0.2950
  338loPI   C2B 5406   0.256   9.317   8.933 -0.3011 -0.0151  0.3322
  338loPI   C3B 5407  -0.012   9.351   8.531  0.3089  0.1409 -0.0768
  338loPI   C4B 5408  -0.108   9.397   8.090 -0.0552  0.0368  0.0585
  339POPI    C1 5409   7.163   0.746  10.464 -0.1178  0.0253 -0.1852
  339POPI    C2 5410   7.417   0.495  10.644 -0.1745  0.0253 -0.1047
  339POPI    C3 5411   7.397   0.877  10.761 -0.0462  0.0827 -0.2664
  339POPI   PO4 5412   7.007   0.535  10.365 -0.0217  0.3376 -0.0339
  339POPI   GL1 5413   6.810   0.501   9.971 -0.2442  0.0093  0.1568
  339POPI   GL2 5414   6.727   0.240   9.826  0.1993 -0.0094 -0.2227
  339POPI   C1A 5415   7.030   0.589   9.574  0.1857 -0.0152 -0.2651
  339POPI   D2A 5416   6.851   0.724   9.162  0.0223 -0.2846 -0.0533
  339POPI   C3A 5417   6.680   0.776   8.806 -0.0806  0.0267  0.1481
  339POPI   C4A 5418   6.622   1.012   8.548  0.0051  0.0614  0.1530
  339POPI   C1B 5419   6.796   0.207   9.400  0.2922  0.4683  0.0836
  339POPI   C2B 5420   6.719   0.163   9.032  0.0868 -0.0886  0.1706
  339POPI   C3B 5421   6.613   0.261   8.598 -0.2460 -0.2794 -0.0165
  339POPI   C4B 5422   6.814   0.554   8.384 -0.0016  0.1418  0.2106
  340POPI    C1 5423  13.021  12.952  10.353 -0.0288  0.0887 -0.2617
  340POPI    C2 5424  12.755  12.669  10.449 -0.0352  0.1223 -0.1788
  340POPI    C3 5425  12.773  13.007  10.663  0.2477  0.0120 -0.0222
  340POPI   PO4 5426  13.187  12.802  10.175 -0.3212 -0.0981 -0.0569
  340POPI   GL1 5427  13.272  12.624   9.790 -0.2292  0.1596 -0.1020
  340POPI   GL2 5428  13.546  12.931   9.813  0.1913  0.0580 -0.0439
  340POPI   C1A 5429  13.298  12.601   9.364 -0.1899 -0.2113  0.2564
  340POPI   D2A 5430  13.446  12.701   8.993 -0.0933 -0.2063  0.5574
  340POPI   C3A 5431  13.220  12.671   8.651  0.0837 -0.0888 -0.4795
  340POPI   C4A 5432  12.985  12.828   8.234  0.1969 -0.1287  0.1472
  340POPI   C1B 5433  13.558  13.053   9.370 -0.1782  0.0882  0.0072
  340POPI   C2B 5434  13.769  13.255   9.033 -0.3066  0.0403  0.1144
  340POPI   C3B 5435  13.831  13.458   8.608 -0.1958 -0.0185 -0.0277
  340POPI   C4B 5436  13.760  13.507   8.192 -0.0254  0.0055  0.0699
  341POPI    C1 5437   1.986  18.355  10.215 -0.0526 -0.1711  0.0345
  341POPI    C2 5438   1.651  18.399  10.429 -0.0576  0.1280 -0.0307
  341POPI    C3 5439   1.985  18.591  10.538  0.1380 -0.2872  0.1220
  341POPI   PO4 5440   1.910  18.268  10.026 -0.1145 -0.1491 -0.0963
  341POPI   GL1 5441   1.531  18.266   9.815 -0.2573  0.1812 -0.0406
  341POPI   GL2 5442   1.237  18.394   9.831 -0.1522 -0.1334 -0.0366
  341POPI   C1A 5443   1.655  18.342   9.415  0.2133  0.0304 -0.0123
  341POPI   D2A 5444   1.602  18.418   9.095  0.1222 -0.0660  0.0955
  341POPI   C3A 5445   1.508  18.234   8.683 -0.0518 -0.0601  0.1022
  341POPI   C4A 5446   1.535  18.094   8.271  0.4208  0.0021  0.0532
  341POPI   C1B 5447   1.186  18.430   9.412  0.0167  0.1280  0.0679
  341POPI   C2B 5448   1.070  18.393   9.071 -0.1304  0.0071 -0.0552
  341POPI   C3B 5449   1.084  18.511   8.666 -0.5033 -0.0210 -0.0263
  341POPI   C4B 5450   1.037  18.545   8.179  0.1188 -0.1753 -0.3605
  342POPI    C1 5451   2.644   0.223  10.342 -0.0455 -0.1115 -0.1771
  342POPI    C2 5452   2.397   0.485  10.517  0.2913  0.4076 -0.4529
  342POPI    C3 5453   2.746   0.394  10.689  0.0633 -0.0747 -0.2268
  342POPI   PO4 5454   2.447   0.274  10.084 -0.2480  0.0371  0.1613
  342POPI   GL1 5455   2.256   0.098   9.766  0.0655 -0.0240  0.2734
  342POPI   GL2 5456   2.048   0.306   9.645 -0.0730  0.0767  0.1669
  342POPI   C1A 5457   2.434   0.007   9.389 -0.1358  0.3815  0.2899
  342POPI   D2A 5458   2.480  -0.296   9.042 -0.0942 -0.0670 -0.1107
  342POPI   C3A 5459   2.676  -0.135   8.668  0.0097 -0.0233 -0.3509
  342POPI   C4A 5460   2.617  -0.231   8.184 -0.1047  0.0882 -0.0070
  342POPI   C1B 5461   2.038   0.319   9.214  0.2767  0.0664  0.0654
  342POPI   C2B 5462   2.308   0.249   8.843  0.2150 -0.1064  0.1557
  342POPI   C3B 5463   2.336   0.295   8.390  0.0160 -0.3109 -0.1999
  342POPI   C4B 5464   2.617   0.239   7.999 -0.0415 -0.1222 -0.2043
  343POPI    C1 5465   0.124   0.562  10.805 -0.0186 -0.1323 -0.1988
  343POPI    C2 5466   0.207   0.191  10.929  0.0263  0.0105  0.2118
  343POPI    C3 5467   0.408   0.502  11.080 -0.1711  0.2233  0.0434
  343POPI   PO4 5468   0.190   0.565  10.496 -0.0375  0.2173  0.0045
  343POPI   GL1 5469   0.124   0.455  10.068  0.0077 -0.4123  0.2024
  343POPI   GL2 5470  -0.020   0.758  10.045  0.1309  0.1514  0.2276
  343POPI   C1A 5471  -0.089   0.402   9.701 -0.1317  0.1280 -0.1148
  343POPI   D2A 5472  -0.434   0.461   9.334 -0.1853  0.0358 -0.1387
  343POPI   C3A 5473  -0.416   0.366   8.856  0.0212 -0.0738 -0.1182
  343POPI   C4A 5474  -0.707   0.509   8.567  0.2098 -0.0013  0.0678
  343POPI   C1B 5475  -0.196   0.916   9.677  0.1242 -0.1674 -0.3675
  343POPI   C2B 5476  -0.280   0.913   9.238 -0.2559  0.0722 -0.0558
  343POPI   C3B 5477  -0.320   0.875   8.833  0.0235 -0.0215  0.2598
  343POPI   C4B 5478  -0.240   0.656   8.351 -0.4100  0.4469  0.1573
  344POPI    C1 5479  15.738  18.039  10.804  0.3734 -0.0769  0.0592
  344POPI    C2 5480  15.895  18.175  11.146  0.0529  0.0130  0.1747
  344POPI    C3 5481  15.506  18.087  11.127  0.0951 -0.1184 -0.1315
  344POPI   PO4 5482  15.891  18.167  10.672  0.2095  0.1506  0.1312
  344POPI   GL1 5483  15.924  18.401  10.370 -0.4478 -0.0857  0.0492
  344POPI   GL2 5484  15.898  18.202  10.041  0.0537  0.3141 -0.2544
  344POPI   C1A 5485  16.012  18.681   9.995  0.1301 -0.1928  0.0850
  344POPI   D2A 5486  16.073  19.168   9.971 -0.3617  0.0462 -0.1933
  344POPI   C3A 5487  15.921  19.500   9.586  0.0638 -0.3515 -0.2220
  344POPI   C4A 5488  15.949  19.475   9.148 -0.1572  0.1511  0.1742
  344POPI   C1B 5489  16.096  18.187   9.708  0.0854  0.2293 -0.1971
  344POPI   C2B 5490  16.472  18.228   9.449 -0.1736  0.1633  0.1181
  344POPI   C3B 5491  16.837  18.372   9.303 -0.3220 -0.2899 -0.1442
  344POPI   C4B 5492  16.956  18.780   9.276  0.2391 -0.0659 -0.0304
  345POPI    C1 5493   9.580  11.573  10.418  0.0961 -0.1486  0.2194
  345POPI    C2 5494   9.211  11.455  10.517  0.0625 -0.0108  0.2614
  345POPI    C3 5495   9.312  11.840  10.547  0.0909  0.0163 -0.1222
  345POPI   PO4 5496   9.632  11.533  10.204  0.0800 -0.0865 -0.0825
  345POPI   GL1 5497   9.637  11.350   9.826 -0.0432  0.0235  0.0232
  345POPI   GL2 5498   9.760  10.977   9.790 -0.3207 -0.2787 -0.0467
  345POPI   C1A 5499   9.694  11.544   9.347  0.5723  0.2739  0.4571
  345POPI   D2A 5500   9.773  11.660   8.974 -0.1304 -0.1525 -0.3095
  345POPI   C3A 5501  10.004  12.004   8.698 -0.3697 -0.0157 -0.1700
  345POPI   C4A 5502  10.093  12.165   8.294 -0.0018  0.0668 -0.0352
  345POPI   C1B 5503   9.993  11.091   9.413  0.2338 -0.1689  0.0923
  345POPI   C2B 5504   9.917  11.163   8.983  0.2531  0.0694  0.0776
  345POPI   C3B 5505   9.994  11.409   8.563  0.0216  0.1822  0.1166
  345POPI   C4B 5506  10.286  11.565   8.243 -0.3444  0.0280  0.0177
  346POPI    C1 5507  12.950  15.886  10.498 -0.3023 -0.2764 -0.2187
  346POPI    C2 5508  13.189  15.681  10.745  0.2241  0.2316 -0.2851
  346POPI    C3 5509  13.003  16.011  10.874 -0.1936  0.0192 -0.3289
  346POPI   PO4 5510  13.090  15.955  10.257  0.2628  0.1127  0.1148
  346POPI   GL1 5511  13.122  16.340   9.945  0.1924  0.0007  0.0900
  346POPI   GL2 5512  13.167  16.787   9.937 -0.0113  0.1080  0.1873
  346POPI   C1A 5513  13.223  16.215   9.570 -0.2673 -0.1945  0.0823
  346POPI   D2A 5514  13.355  16.094   9.090  0.0001 -0.2358  0.0750
  346POPI   C3A 5515  13.392  16.404   8.853  0.2549 -0.0478 -0.0017
  346POPI   C4A 5516  13.535  16.537   8.453  0.0645  0.0723 -0.0619
  346POPI   C1B 5517  13.232  16.732   9.532 -0.2254  0.1026 -0.1382
  346POPI   C2B 5518  13.340  16.839   9.134 -0.1859 -0.3064  0.2233
  346POPI   C3B 5519  13.311  16.990   8.642 -0.1929  0.0107 -0.5303
  346POPI   C4B 5520  13.337  16.934   8.200  0.1578 -0.1626 -0.1690
  347POPI    C1 5521  12.126  17.620  10.590  0.0502  0.0290  0.3168
  347POPI    C2 5522  11.956  17.265  10.514  0.0495  0.0916  0.0126
  347POPI    C3 5523  12.006  17.386  10.892 -0.0407 -0.1877  0.1167
  347POPI   PO4 5524  12.044  17.736  10.327  0.1645  0.0206 -0.3241
  347POPI   GL1 5525  12.084  17.757   9.863 -0.1939  0.0281  0.2830
  347POPI   GL2 5526  12.420  17.810   9.854 -0.5691 -0.0727  0.0770
  347POPI   C1A 5527  11.947  17.825   9.469  0.1577 -0.0814 -0.2690
  347POPI   D2A 5528  11.787  17.596   9.159  0.0592  0.1938  0.0778
  347POPI   C3A 5529  11.716  17.575   8.644 -0.4589  0.1726 -0.0176
  347POPI   C4A 5530  11.547  17.525   8.311 -0.3081 -0.2274 -0.1353
  347POPI   C1B 5531  12.474  17.938   9.487  0.0834  0.2084 -0.1216
  347POPI   C2B 5532  12.378  18.072   9.128  0.0237  0.1220  0.0092
  347POPI   C3B 5533  12.327  18.022   8.684  0.1043  0.3144  0.0309
  347POPI   C4B 5534  12.030  17.987   8.321  0.0297  0.4403  0.3696
  348POPI    C1 5535  17.756   0.386  10.408 -0.3086 -0.1392 -0.3703
  348POPI    C2 5536  17.993   0.398  10.087 -0.0869  0.0980 -0.2016
  348POPI    C3 5537  18.143   0.295  10.443 -0.2466  0.2053 -0.1019
  348POPI   PO4 5538  17.592   0.261  10.330  0.0107  0.1132  0.0074
  348POPI   GL1 5539  17.427   0.085   9.976  0.1926  0.2070  0.1186
  348POPI   GL2 5540  17.701   0.172   9.747  0.0939 -0.1793 -0.1484
  348POPI   C1A 5541  17.090   0.328   9.786 -0.0604 -0.0259 -0.4341
  348POPI   D2A 5542  16.915   0.693   9.732  0.2695  0.0194  0.0069
  348POPI   C3A 5543  16.889   0.870   9.431 -0.1578 -0.1277  0.1668
  348POPI   C4A 5544  16.934   1.030   8.993  0.2021 -0.0971  0.2372
  348POPI   C1B 5545  17.570   0.057   9.372 -0.1557  0.1142  0.1143
  348POPI   C2B 5546  17.422   0.254   9.085  0.0025 -0.0905  0.2910
  348POPI   C3B 5547  17.160   0.240   8.670 -0.1510 -0.1283  0.1900
  348POPI   C4B 5548  16.986   0.135   8.362  0.1410  0.1223  0.1415
  349POPI    C1 5549  14.442   6.222  10.338 -0.1471 -0.0940 -0.1976
  349POPI    C2 5550  14.533   5.833  10.325  0.2180 -0.0215  0.0247
  349POPI    C3 5551  14.577   6.037  10.666  0.0892  0.2307 -0.1067
  349POPI   PO4 5552  14.580   6.257  10.042 -0.0576 -0.0908  0.0480
  349POPI   GL1 5553  14.505   6.283   9.690 -0.3073  0.0203  0.2578
  349POPI   GL2 5554  14.521   6.619   9.769 -0.0710 -0.1763  0.1383
  349POPI   C1A 5555  14.466   6.328   9.159  0.0801 -0.0069 -0.0395
  349POPI   D2A 5556  14.490   6.076   8.798  0.0618 -0.0307  0.1391
  349POPI   C3A 5557  14.773   6.266   8.492  0.1033  0.0580 -0.0796
  349POPI   C4A 5558  15.081   6.199   8.240 -0.0605 -0.0033  0.1486
  349POPI   C1B 5559  14.305   6.741   9.395 -0.4081  0.1628 -0.0048
  349POPI   C2B 5560  14.048   7.008   9.241  0.0966 -0.4107  0.1752
  349POPI   C3B 5561  14.031   7.202   8.958 -0.0332 -0.1687 -0.5813
  349POPI   C4B 5562  13.941   7.376   8.517  0.1322  0.2502  0.0755
  350POPI    C1 5563   0.614  17.313  10.954  0.1672  0.0078  0.0820
  350POPI    C2 5564   0.764  17.536  11.250  0.1553 -0.0948  0.1657
  350POPI    C3 5565   0.651  17.158  11.321 -0.3298  0.0413  0.1533
  350POPI   PO4 5566   0.756  17.341  10.744 -0.1486  0.1550  0.3273
  350POPI   GL1 5567   0.772  17.666  10.356 -0.2208  0.0175  0.0519
  350POPI   GL2 5568   0.684  17.375  10.136 -0.0215  0.1115  0.1308
  350POPI   C1A 5569   0.525  17.832   9.861  0.2246  0.0045  0.2920
  350POPI   D2A 5570   0.354  17.986   9.496  0.3882 -0.1020 -0.0414
  350POPI   C3A 5571   0.319  17.959   9.044 -0.1672 -0.0484  0.2106
  350POPI   C4A 5572   0.221  17.898   8.661 -0.1397 -0.0631  0.0000
  350POPI   C1B 5573   0.780  17.411   9.659  0.0457  0.0668  0.2929
  350POPI   C2B 5574   0.920  17.260   9.253 -0.0614  0.2295 -0.1271
  350POPI   C3B 5575   0.914  17.406   8.826 -0.0188 -0.2208 -0.1404
  350POPI   C4B 5576   0.614  17.526   8.576 -0.1420 -0.0327 -0.2469
  351POPI    C1 5577  14.998   5.887  10.063  0.1662 -0.0800  0.0864
  351POPI    C2 5578  15.151   5.749  10.406  0.0524  0.1524  0.2338
  351POPI    C3 5579  14.979   6.110  10.395 -0.2591  0.0020  0.0134
  351POPI   PO4 5580  15.164   5.808   9.887  0.1989  0.0907 -0.1132
  351POPI   GL1 5581  15.111   5.901   9.521  0.2771 -0.2714 -0.1023
  351POPI   GL2 5582  14.934   6.123   9.481  0.2216 -0.2512 -0.1525
  351POPI   C1A 5583  15.117   5.665   9.180  0.1845 -0.2921  0.0075
  351POPI   D2A 5584  15.021   5.345   8.856 -0.0334  0.1425  0.2735
  351POPI   C3A 5585  14.942   5.265   8.399  0.0713 -0.0960 -0.0182
  351POPI   C4A 5586  14.885   5.190   8.080  0.2252  0.2579  0.0297
  351POPI   C1B 5587  14.909   6.111   9.066 -0.0342 -0.0374 -0.2167
  351POPI   C2B 5588  14.964   5.825   8.732 -0.1005  0.2750 -0.1596
  351POPI   C3B 5589  15.214   5.781   8.523  0.1799  0.2007  0.4659
  351POPI   C4B 5590  15.461   5.982   8.093 -0.1691 -0.1867 -0.3457
  352POPI    C1 5591  14.584  17.309  10.666 -0.1362  0.0109 -0.1634
  352POPI    C2 5592  14.611  17.591  10.949  0.0944  0.1532 -0.3227
  352POPI    C3 5593  14.282  17.365  10.922  0.0861  0.1089  0.0832
  352POPI   PO4 5594  14.594  17.363  10.432 -0.1370 -0.0744  0.0283
  352POPI   GL1 5595  14.720  17.516   9.974  0.1027 -0.1074 -0.0187
  352POPI   GL2 5596  14.842  17.815   9.882 -0.0034  0.1771  0.2272
  352POPI   C1A 5597  14.332  17.351   9.674  0.0551  0.2870  0.0316
  352POPI   D2A 5598  14.164  17.394   9.226 -0.1847  0.1004  0.1844
  352POPI   C3A 5599  14.340  17.482   8.901 -0.0642  0.2292  0.0533
  352POPI   C4A 5600  14.271  17.755   8.571 -0.2480 -0.1891  0.0268
  352POPI   C1B 5601  14.982  17.938   9.461  0.3052  0.2108 -0.2058
  352POPI   C2B 5602  15.196  17.922   9.026 -0.2063  0.1932  0.0534
  352POPI   C3B 5603  15.399  17.647   8.776 -0.2232 -0.1032 -0.1400
  352POPI   C4B 5604  15.184  17.528   8.400  0.5600 -0.1805  0.1593
  353POPI    C1 5605   8.760   5.899  10.279 -0.0624  0.1346  0.0403
  353POPI    C2 5606   8.757   5.512  10.381  0.0091  0.1104 -0.0473
  353POPI    C3 5607   8.578   5.782  10.616 -0.1872  0.0034 -0.0715
  353POPI   PO4 5608   9.027   5.912  10.193  0.3186 -0.1793 -0.5609
  353POPI   GL1 5609   9.215   6.232   9.897  0.0269 -0.0049 -0.0240
  353POPI   GL2 5610   8.871   6.338   9.843  0.1899  0.1726 -0.1924
  353POPI   C1A 5611   9.267   6.367   9.536  0.1669  0.5118 -0.6106
  353POPI   D2A 5612   9.378   6.452   9.102  0.1521  0.0309  0.0634
  353POPI   C3A 5613   9.279   6.289   8.775  0.3282  0.1635  0.0766
  353POPI   C4A 5614   9.359   6.098   8.388  0.4223 -0.1322  0.0150
  353POPI   C1B 5615   8.793   6.482   9.422 -0.2112  0.1042  0.0146
  353POPI   C2B 5616   8.891   6.602   8.964  0.2562  0.0560 -0.1007
  353POPI   C3B 5617   8.904   6.574   8.505 -0.2134  0.1552  0.0236
  353POPI   C4B 5618   9.087   6.699   8.091  0.4991 -0.0264 -0.1117
  354POPI    C1 5619  13.121   5.330  10.451 -0.1917 -0.3871  0.2190
  354POPI    C2 5620  13.346   5.266  10.775  0.3139 -0.2880 -0.1020
  354POPI    C3 5621  13.196   5.630  10.705  0.0650 -0.3490  0.1015
  354POPI   PO4 5622  13.293   5.208  10.166  0.0071 -0.2336  0.2938
  354POPI   GL1 5623  13.426   5.321   9.733  0.2971 -0.2137  0.1070
  354POPI   GL2 5624  13.300   5.672   9.780 -0.1266 -0.0258 -0.0946
  354POPI   C1A 5625  13.443   5.523   9.298 -0.2463 -0.2283  0.2611
  354POPI   D2A 5626  13.594   5.747   9.015  0.0933 -0.0310  0.0586
  354POPI   C3A 5627  13.586   6.159   8.850  0.2162  0.1472  0.0934
  354POPI   C4A 5628  13.563   6.474   8.527 -0.3366 -0.1375 -0.1677
  354POPI   C1B 5629  13.022   5.369   9.463 -0.0572 -0.2546  0.1929
  354POPI   C2B 5630  12.711   5.301   9.071 -0.4320 -0.2301 -0.0318
  354POPI   C3B 5631  12.347   5.045   8.977 -0.4014 -0.0428 -0.0125
  354POPI   C4B 5632  12.035   5.010   8.622 -0.2575  0.2185 -0.3946
  355POPI    C1 5633  14.550   7.239  10.217  0.0481 -0.0623 -0.2311
  355POPI    C2 5634  14.722   7.075  10.539 -0.0695 -0.0251 -0.1486
  355POPI    C3 5635  14.700   6.868  10.197 -0.1568 -0.1561 -0.0643
  355POPI   PO4 5636  14.725   7.410  10.083 -0.2780 -0.2417  0.0553
  355POPI   GL1 5637  14.739   7.119   9.708 -0.0002  0.0109 -0.1095
  355POPI   GL2 5638  14.412   7.225   9.703 -0.1294 -0.0446  0.0760
  355POPI   C1A 5639  14.707   7.103   9.263  0.1115  0.1675 -0.1825
  355POPI   D2A 5640  14.459   6.942   8.983  0.1762  0.2066  0.1318
  355POPI   C3A 5641  14.623   7.213   8.630 -0.1479  0.1500  0.4997
  355POPI   C4A 5642  14.748   7.426   8.239  0.1553  0.2875  0.2754
  355POPI   C1B 5643  14.289   7.448   9.306  0.1194 -0.0195 -0.0510
  355POPI   C2B 5644  14.356   7.609   8.860  0.1083  0.2050 -0.2546
  355POPI   C3B 5645  14.365   7.644   8.518  0.0500 -0.1537  0.2157
  355POPI   C4B 5646  14.277   7.792   8.084  0.5297 -0.1898 -0.0505
  356POPI    C1 5647   9.099   4.326  10.811 -0.0954  0.1263  0.1796
  356POPI    C2 5648   9.011   4.063  10.523  0.1514  0.2827 -0.0430
  356POPI    C3 5649   8.805   4.060  10.865  0.0133 -0.0617 -0.1244
  356POPI   PO4 5650   9.424   4.326  10.829  0.1695 -0.2875  0.4353
  356POPI   GL1 5651   9.478   4.064  10.319  0.1493 -0.1552  0.0601
  356POPI   GL2 5652   9.720   4.302  10.400  0.2682  0.2276 -0.3835
  356POPI   C1A 5653   9.669   3.787   9.944  0.1736  0.1423 -0.0800
  356POPI   D2A 5654   9.735   3.519   9.652  0.2215  0.0330 -0.0141
  356POPI   C3A 5655   9.791   3.515   9.166  0.0276  0.0737  0.1049
  356POPI   C4A 5656   9.587   3.551   8.779 -0.2499  0.1838 -0.3701
  356POPI   C1B 5657   9.694   4.380   9.984 -0.4792  0.1435 -0.0089
  356POPI   C2B 5658   9.628   4.523   9.627  0.0868 -0.1561  0.3192
  356POPI   C3B 5659   9.694   4.430   9.181  0.0442 -0.2032  0.0792
  356POPI   C4B 5660   9.570   4.543   8.775 -0.2029 -0.0532 -0.1935
  357POPI    C1 5661  14.488   3.181  10.343 -0.1083 -0.1372  0.1907
  357POPI    C2 5662  14.782   2.909  10.353 -0.1503 -0.1984 -0.1231
  357POPI    C3 5663  14.815   3.231  10.119 -0.0592  0.1221  0.3172
  357POPI   PO4 5664  14.276   2.987  10.261  0.0515 -0.2892  0.0638
  357POPI   GL1 5665  14.140   2.970   9.859  0.1520 -0.3765  0.2227
  357POPI   GL2 5666  14.261   3.244   9.834 -0.2074  0.2821  0.0671
  357POPI   C1A 5667  14.023   2.966   9.459 -0.0790 -0.0978  0.1542
  357POPI   D2A 5668  13.905   2.658   9.135  0.1792  0.2402 -0.1611
  357POPI   C3A 5669  13.732   2.561   8.820  0.1999  0.0383  0.0892
  357POPI   C4A 5670  13.980   2.504   8.456 -0.0777  0.3542  0.1777
  357POPI   C1B 5671  14.457   3.296   9.412 -0.0400  0.1333 -0.1820
  357POPI   C2B 5672  14.503   3.231   8.951  0.2506  0.0519 -0.0599
  357POPI   C3B 5673  14.168   2.952   8.737  0.2828  0.0702  0.0644
  357POPI   C4B 5674  14.149   2.952   8.225 -0.2440 -0.0586  0.0510
  358POPI    C1 5675  10.598   4.774  10.636  0.0387 -0.0832 -0.0270
  358POPI    C2 5676  10.605   5.060  10.915  0.0624 -0.1006 -0.0099
  358POPI    C3 5677  10.909   4.802  10.886 -0.0464 -0.2427  0.0986
  358POPI   PO4 5678  10.435   4.984  10.390 -0.0021 -0.0633  0.2145
  358POPI   GL1 5679  10.550   5.201  10.029  0.3378  0.2863 -0.0368
  358POPI   GL2 5680  10.388   4.993   9.866  0.3019  0.0035  0.0642
  358POPI   C1A 5681  10.895   5.153   9.709  0.1194 -0.0759  0.0899
  358POPI   D2A 5682  10.852   5.296   9.260  0.1714 -0.0656 -0.0866
  358POPI   C3A 5683  10.863   5.612   8.954  0.2383 -0.2203  0.2016
  358POPI   C4A 5684  10.806   5.771   8.446  0.0676  0.0990 -0.3097
  358POPI   C1B 5685  10.434   4.979   9.484  0.0421  0.1771 -0.1864
  358POPI   C2B 5686  10.419   4.972   9.115  0.1559 -0.2652 -0.2204
  358POPI   C3B 5687  10.329   4.999   8.640 -0.0877  0.0070  0.2357
  358POPI   C4B 5688  10.260   5.131   8.281 -0.2217  0.2295  0.3350
  359POPI    C1 5689  12.954   9.933  10.574 -0.2932  0.0836 -0.1315
  359POPI    C2 5690  12.892  10.236  10.827  0.0850 -0.0131  0.0860
  359POPI    C3 5691  12.876   9.859  10.959  0.2753 -0.0648 -0.0348
  359POPI   PO4 5692  12.881   9.960  10.361 -0.0083  0.0185 -0.1425
  359POPI   GL1 5693  12.716   9.673  10.096 -0.2110 -0.0605  0.0557
  359POPI   GL2 5694  12.546   9.786   9.981  0.0037 -0.1323 -0.0260
  359POPI   C1A 5695  12.894   9.528   9.737  0.2375  0.2112 -0.2698
  359POPI   D2A 5696  12.952   9.413   9.312  0.2574 -0.1803  0.0308
  359POPI   C3A 5697  12.999   9.651   8.959 -0.2551  0.0403 -0.0593
  359POPI   C4A 5698  12.848   9.816   8.626 -0.2363  0.0035 -0.1502
  359POPI   C1B 5699  12.500   9.755   9.566  0.1501  0.0466  0.0263
  359POPI   C2B 5700  12.356   9.816   9.080  0.0054  0.1010 -0.0797
  359POPI   C3B 5701  12.324   9.704   8.712 -0.2891  0.4725  0.0235
  359POPI   C4B 5702  12.396   9.879   8.282 -0.0308  0.2426  0.2375
  360POPI    C1 5703  10.642   8.642  10.533 -0.0816  0.0310  0.0085
  360POPI    C2 5704  10.889   8.889  10.726  0.0484  0.0206 -0.1426
  360POPI    C3 5705  10.873   8.502  10.828 -0.0377  0.0575 -0.0132
  360POPI   PO4 5706  10.664   8.698  10.219  0.0833 -0.0233 -0.0284
  360POPI   GL1 5707  10.440   8.998   9.903  0.0329  0.4287 -0.1195
  360POPI   GL2 5708  10.614   8.746   9.642 -0.1612  0.1498  0.1594
  360POPI   C1A 5709  10.218   9.041   9.482 -0.0322  0.1142 -0.0863
  360POPI   D2A 5710  10.163   9.244   9.041 -0.2652  0.1825  0.0421
  360POPI   C3A 5711  10.322   9.440   8.667  0.3159 -0.1058 -0.0015
  360POPI   C4A 5712  10.569   9.589   8.241  0.0206  0.0470 -0.1260
  360POPI   C1B 5713  10.703   8.533   9.274 -0.1379  0.1441 -0.4237
  360POPI   C2B 5714  10.719   8.481   8.835  0.0588  0.0000  0.0313
  360POPI   C3B 5715  10.769   8.634   8.459 -0.1189  0.2011  0.2072
  360POPI   C4B 5716  11.005   8.777   8.061 -0.0206 -0.2650 -0.1988
  361POPI    C1 5717   2.371   7.508  10.034 -0.2464  0.0140  0.3267
  361POPI    C2 5718   2.261   7.879  10.132 -0.0316  0.1642  0.0167
  361POPI    C3 5719   2.642   7.765  10.175 -0.1406 -0.0990  0.3314
  361POPI   PO4 5720   2.257   7.515   9.738  0.2393  0.4939  0.0705
  361POPI   GL1 5721   2.361   7.524   9.394 -0.1241  0.2620 -0.2635
  361POPI   GL2 5722   2.639   7.763   9.275 -0.2108 -0.0615  0.2737
  361POPI   C1A 5723   2.220   7.492   8.976  0.2869  0.1498 -0.0803
  361POPI   D2A 5724   1.959   7.323   8.621  0.1787  0.1907 -0.0026
  361POPI   C3A 5725   2.127   7.497   8.345 -0.1283  0.1308 -0.1576
  361POPI   C4A 5726   1.969   7.382   7.954  0.0404 -0.0813 -0.2765
  361POPI   C1B 5727   2.581   7.868   8.825  0.0873  0.0438 -0.0816
  361POPI   C2B 5728   2.597   7.805   8.484  0.1996  0.1650  0.2732
  361POPI   C3B 5729   2.533   7.631   8.026  0.2095  0.0415  0.1857
  361POPI   C4B 5730   2.412   7.353   7.743 -0.2203  0.1249  0.1972
  362POPI    C1 5731   2.268  15.856  10.382  0.1215 -0.1084 -0.0039
  362POPI    C2 5732   2.052  15.588  10.585 -0.0476  0.1114  0.1101
  362POPI    C3 5733   2.452  15.566  10.587 -0.0461  0.1107  0.4697
  362POPI   PO4 5734   2.103  15.847  10.164 -0.2426 -0.0483  0.0169
  362POPI   GL1 5735   1.815  15.937   9.717  0.1075 -0.2154 -0.4138
  362POPI   GL2 5736   1.660  16.303   9.772 -0.0861  0.2061 -0.0268
  362POPI   C1A 5737   1.811  16.191   9.287 -0.2308  0.0742  0.1520
  362POPI   D2A 5738   1.900  16.571   9.016  0.0648  0.1261 -0.0581
  362POPI   C3A 5739   2.089  16.466   8.644  0.0231  0.0211  0.0287
  362POPI   C4A 5740   2.171  16.109   8.368 -0.1214  0.0821 -0.1333
  362POPI   C1B 5741   1.506  16.590   9.393 -0.1815 -0.0318  0.1489
  362POPI   C2B 5742   1.400  16.849   9.112  0.1757 -0.2749 -0.2207
  362POPI   C3B 5743   1.315  17.076   8.706  0.1228 -0.2087  0.2210
  362POPI   C4B 5744   1.504  17.162   8.368 -0.0781 -0.0527 -0.0320
  363POPI    C1 5745  17.017   8.999  10.426  0.1598 -0.2789 -0.1702
  363POPI    C2 5746  16.880   8.649  10.562 -0.0715 -0.1115  0.0380
  363POPI    C3 5747  16.882   8.969  10.802  0.0411  0.0553 -0.1823
  363POPI   PO4 5748  17.030   8.893  10.172 -0.2867 -0.0276  0.2992
  363POPI   GL1 5749  16.827   8.714   9.809  0.1454  0.0507  0.3270
  363POPI   GL2 5750  16.744   9.043   9.662 -0.1208 -0.4812 -0.2043
  363POPI   C1A 5751  16.717   8.609   9.323  0.0384  0.0813 -0.0941
  363POPI   D2A 5752  16.736   8.511   8.889  0.2023 -0.0884 -0.1590
  363POPI   C3A 5753  17.098   8.232   8.783 -0.3851 -0.1705  0.0356
  363POPI   C4A 5754  17.403   8.192   8.347 -0.2589  0.1209 -0.1502
  363POPI   C1B 5755  16.612   9.214   9.207 -0.0366  0.0338 -0.2122
  363POPI   C2B 5756  16.623   8.985   8.820 -0.0444  0.1160 -0.0030
  363POPI   C3B 5757  16.673   8.835   8.423 -0.1471 -0.2916 -0.2269
  363POPI   C4B 5758  16.517   8.842   8.021 -0.0658 -0.0535  0.1407
  364POPI    C1 5759  13.529  14.595  10.288  0.2823 -0.0693 -0.0119
  364POPI    C2 5760  13.664  14.564  10.664  0.1203 -0.2279  0.0347
  364POPI    C3 5761  13.281  14.656  10.596  0.2018  0.0253 -0.0951
  364POPI   PO4 5762  13.599  14.440  10.118  0.0501  0.0004 -0.2004
  364POPI   GL1 5763  13.478  14.433   9.753  0.0155 -0.1793 -0.1967
  364POPI   GL2 5764  13.086  14.403   9.880 -0.1213 -0.0765 -0.1649
  364POPI   C1A 5765  13.602  14.593   9.369 -0.5359  0.0613  0.0798
  364POPI   D2A 5766  13.533  14.689   8.949 -0.2277 -0.0165  0.2343
  364POPI   C3A 5767  13.359  14.360   8.643  0.0108 -0.1408 -0.0515
  364POPI   C4A 5768  13.175  14.157   8.202  0.0661 -0.0457  0.0574
  364POPI   C1B 5769  13.055  14.435   9.453 -0.1120 -0.3911  0.0588
  364POPI   C2B 5770  13.056  14.487   9.048 -0.1833  0.3344  0.0880
  364POPI   C3B 5771  12.916  14.594   8.685  0.0076  0.3595  0.0486
  364POPI   C4B 5772  13.099  14.641   8.251  0.1107  0.0039  0.1918
  365POPI    C1 5773   3.001   8.087   9.582  0.0747  0.1846  0.2829
  365POPI    C2 5774   3.285   7.837   9.454 -0.0120  0.2014  0.0542
  365POPI    C3 5775   2.986   7.700   9.681 -0.0632  0.0940 -0.0765
  365POPI   PO4 5776   2.947   8.206   9.399 -0.2492 -0.3803  0.0766
  365POPI   GL1 5777   2.916   8.650   9.325  0.1591  0.3231  0.0028
  365POPI   GL2 5778   2.628   8.811   9.196  0.0635  0.0352 -0.0999
  365POPI   C1A 5779   3.050   8.598   8.921 -0.0200  0.2311  0.2036
  365POPI   D2A 5780   3.025   8.779   8.488 -0.1480 -0.1326 -0.0129
  365POPI   C3A 5781   2.979   8.739   8.031  0.1095 -0.1834  0.0950
  365POPI   C4A 5782   2.652   8.760   7.843  0.1506 -0.3375 -0.1993
  365POPI   C1B 5783   2.504   8.880   8.671 -0.0590  0.0791 -0.0367
  365POPI   C2B 5784   2.386   8.842   8.281  0.2022  0.1093  0.1757
  365POPI   C3B 5785   2.231   8.954   7.938 -0.1429 -0.2209  0.0495
  365POPI   C4B 5786   2.044   9.162   7.580 -0.0863  0.0631 -0.1226
  366POPI    C1 5787  15.939  17.442  10.460 -0.0438  0.1559 -0.1262
  366POPI    C2 5788  15.720  17.155  10.632  0.0488  0.1677  0.0138
  366POPI    C3 5789  15.623  17.539  10.685 -0.0542  0.1645 -0.1444
  366POPI   PO4 5790  16.220  17.397  10.429  0.2813 -0.3602  0.1562
  366POPI   GL1 5791  16.526  17.537  10.079 -0.2607 -0.0006 -0.2777
  366POPI   GL2 5792  16.830  17.626   9.931 -0.2741  0.4693 -0.4815
  366POPI   C1A 5793  16.294  17.675   9.701 -0.2122  0.0323 -0.4824
  366POPI   D2A 5794  16.327  17.718   9.250  0.0227  0.0767 -0.0149
  366POPI   C3A 5795  16.062  17.607   8.911  0.0119 -0.0571  0.1646
  366POPI   C4A 5796  16.005  17.272   8.640  0.0183  0.1940  0.1074
  366POPI   C1B 5797  17.129  17.538   9.664  0.1036 -0.0817  0.3736
  366POPI   C2B 5798  17.350  17.543   9.259  0.2757  0.3110 -0.0823
  366POPI   C3B 5799  17.222  17.687   8.881 -0.1192 -0.0868 -0.0737
  366POPI   C4B 5800  16.809  17.660   8.628  0.1223 -0.0256 -0.1141
  367POPI    C1 5801   9.804  17.232  10.473 -0.1155  0.0457 -0.0711
  367POPI    C2 5802   9.649  17.583  10.588 -0.1034  0.0569 -0.0883
  367POPI    C3 5803   9.617  17.262  10.825 -0.1981  0.0462 -0.1148
  367POPI   PO4 5804   9.817  17.297  10.100  0.0837  0.2634  0.2480
  367POPI   GL1 5805   9.695  17.545   9.675  0.0909  0.1870 -0.0986
  367POPI   GL2 5806   9.802  17.738   9.820  0.0910  0.1911  0.1492
  367POPI   C1A 5807   9.230  17.647   9.497  0.1361 -0.0376  0.0860
  367POPI   D2A 5808   9.115  17.720   9.102 -0.0038  0.2330  0.2021
  367POPI   C3A 5809   9.159  17.628   8.653  0.3000 -0.1990 -0.0167
  367POPI   C4A 5810   9.257  17.465   8.193 -0.0037  0.2531  0.0584
  367POPI   C1B 5811  10.023  17.650   9.322 -0.0342  0.0598 -0.0415
  367POPI   C2B 5812  10.124  17.510   8.911  0.0697  0.0577  0.1843
  367POPI   C3B 5813  10.005  17.336   8.561  0.1810 -0.0205  0.2370
  367POPI   C4B 5814  10.063  17.209   8.231 -0.1407  0.1702  0.0019
  368POPI    C1 5815  14.517  15.192  10.304 -0.0882 -0.0454 -0.0619
  368POPI    C2 5816  14.666  15.514  10.489  0.1103 -0.1321 -0.0685
  368POPI    C3 5817  14.720  15.151  10.647 -0.1527 -0.1588 -0.0370
  368POPI   PO4 5818  14.248  15.262  10.196 -0.0106 -0.1739  0.3728
  368POPI   GL1 5819  14.252  15.692  10.119  0.0656  0.1566  0.2224
  368POPI   GL2 5820  14.526  15.703  10.000  0.0195  0.1419  0.4233
  368POPI   C1A 5821  14.012  15.866   9.707 -0.0020  0.1603 -0.2540
  368POPI   D2A 5822  13.712  15.899   9.367  0.2627 -0.1577 -0.3365
  368POPI   C3A 5823  13.806  15.791   8.986 -0.0108  0.1268  0.1560
  368POPI   C4A 5824  14.001  15.691   8.546 -0.0159 -0.0041  0.1833
  368POPI   C1B 5825  14.452  15.768   9.576 -0.1935 -0.3347 -0.2465
  368POPI   C2B 5826  14.224  15.854   9.189 -0.1393 -0.1976  0.0057
  368POPI   C3B 5827  14.325  15.975   8.804 -0.0381 -0.2940 -0.2273
  368POPI   C4B 5828  14.270  16.063   8.368  0.1178  0.2634 -0.1676
  369POPI    C1 5829   2.924  14.717  10.570 -0.0779  0.0962  0.0760
  369POPI    C2 5830   3.261  14.638  10.771  0.0021  0.0788 -0.0639
  369POPI    C3 5831   2.907  14.601  10.953  0.0856  0.3293  0.1568
  369POPI   PO4 5832   2.853  14.571  10.350 -0.1095  0.0161 -0.0862
  369POPI   GL1 5833   3.005  14.463   9.894  0.1078  0.1113 -0.1885
  369POPI   GL2 5834   2.729  14.524   9.531  0.1337 -0.2582 -0.1434
  369POPI   C1A 5835   3.114  14.260   9.482 -0.0460  0.0197 -0.1958
  369POPI   D2A 5836   3.230  14.223   9.002  0.0493 -0.1731 -0.0280
  369POPI   C3A 5837   3.232  14.575   8.693 -0.2510  0.0331 -0.3733
  369POPI   C4A 5838   3.227  14.826   8.426  0.1618  0.1785 -0.1670
  369POPI   C1B 5839   2.924  14.640   9.112 -0.1963  0.2433 -0.2457
  369POPI   C2B 5840   2.944  15.030   8.807  0.0236 -0.0161  0.1466
  369POPI   C3B 5841   2.833  15.149   8.329  0.0235  0.2006  0.0056
  369POPI   C4B 5842   3.018  15.036   7.982  0.3584  0.1434 -0.1933
  370POPI    C1 5843   1.878   9.086   9.964  0.0323 -0.0835 -0.6725
  370POPI    C2 5844   2.195   8.878  10.091  0.0473  0.3113 -0.0174
  370POPI    C3 5845   1.834   8.706  10.083  0.1158  0.1535  0.1855
  370POPI   PO4 5846   1.890   9.269   9.678  0.0161  0.1940 -0.0877
  370POPI   GL1 5847   1.768   9.544   9.531  0.1669  0.1834 -0.1486
  370POPI   GL2 5848   1.484   9.566   9.411 -0.1897  0.1818 -0.2965
  370POPI   C1A 5849   1.936   9.660   9.094 -0.1706 -0.1998  0.0282
  370POPI   D2A 5850   1.824   9.593   8.710  0.0287 -0.3160  0.4058
  370POPI   C3A 5851   1.862   9.565   8.325  0.0342 -0.0162  0.0942
  370POPI   C4A 5852   1.745   9.334   8.005  0.0526 -0.1490 -0.0798
  370POPI   C1B 5853   1.561   9.990   9.314 -0.0319  0.0225 -0.0249
  370POPI   C2B 5854   1.669  10.041   8.906  0.1983  0.0327  0.0146
  370POPI   C3B 5855   1.697  10.041   8.429 -0.1116 -0.3196  0.1603
  370POPI   C4B 5856   1.899   9.973   8.051  0.2659  0.1573 -0.0813
  371POPI    C1 5857   3.025  15.152  10.918 -0.2364 -0.0948  0.0134
  371POPI    C2 5858   3.264  14.937  11.157 -0.0380  0.1142  0.0065
  371POPI    C3 5859   2.876  14.976  11.245 -0.0865 -0.2782 -0.0150
  371POPI   PO4 5860   3.296  15.169  10.694  0.1092 -0.1755  0.1396
  371POPI   GL1 5861   3.360  15.339  10.182 -0.2439 -0.1989  0.1359
  371POPI   GL2 5862   3.129  15.440  10.035 -0.0761 -0.1607 -0.4137
  371POPI   C1A 5863   3.537  15.463   9.806 -0.2379 -0.1510 -0.0956
  371POPI   D2A 5864   3.703  15.461   9.460  0.2157  0.0253  0.0584
  371POPI   C3A 5865   3.815  15.713   9.195  0.0445  0.0425  0.0876
  371POPI   C4A 5866   4.070  15.946   9.222 -0.0886  0.0855  0.3759
  371POPI   C1B 5867   2.848  15.564   9.670 -0.0550 -0.2162 -0.0852
  371POPI   C2B 5868   2.931  15.604   9.208  0.0031  0.0893 -0.1004
  371POPI   C3B 5869   3.089  15.473   8.708  0.0196 -0.3580 -0.1366
  371POPI   C4B 5870   3.273  15.356   8.305 -0.2592 -0.0254 -0.3724
  372POPI    C1 5871   4.304   8.327   9.842  0.1849  0.0530  0.2419
  372POPI    C2 5872   4.512   8.666   9.805 -0.0720  0.1992  0.1025
  372POPI    C3 5873   4.253   8.623  10.106 -0.0018  0.1053  0.1499
  372POPI   PO4 5874   4.466   8.167   9.767 -0.1740 -0.0070 -0.1355
  372POPI   GL1 5875   4.521   7.983   9.378  0.0804  0.0052 -0.2673
  372POPI   GL2 5876   4.280   7.794   9.314  0.1513 -0.1358  0.1737
  372POPI   C1A 5877   4.656   8.181   9.022 -0.2615 -0.0793  0.1067
  372POPI   D2A 5878   4.529   8.277   8.664 -0.1342  0.0985 -0.2056
  372POPI   C3A 5879   4.307   7.966   8.488 -0.0133 -0.1221  0.3699
  372POPI   C4A 5880   4.013   7.967   8.171  0.0819 -0.0411 -0.2109
  372POPI   C1B 5881   4.184   8.037   8.972 -0.3394  0.1758 -0.3327
  372POPI   C2B 5882   3.949   8.270   8.673  0.0091  0.0591 -0.1850
  372POPI   C3B 5883   3.866   8.448   8.289 -0.7636 -0.2514  0.2188
  372POPI   C4B 5884   3.870   8.706   8.009 -0.1797  0.2988 -0.0675
  373POPI    C1 5885  15.961  13.312  10.264 -0.0186 -0.0261 -0.2367
  373POPI    C2 5886  15.743  12.978  10.230 -0.1313  0.0246 -0.0278
  373POPI    C3 5887  15.763  13.169  10.581  0.0115  0.1841 -0.1214
  373POPI   PO4 5888  15.911  13.442  10.031 -0.0994  0.3942  0.2658
  373POPI   GL1 5889  15.801  13.172   9.774  0.2710 -0.0621  0.0063
  373POPI   GL2 5890  16.107  13.246   9.606 -0.1075 -0.0889  0.0680
  373POPI   C1A 5891  15.596  12.862   9.535  0.3232  0.3797 -0.1317
  373POPI   D2A 5892  15.487  12.486   9.418  0.0142  0.1804  0.2074
  373POPI   C3A 5893  15.513  12.531   9.068  0.0317 -0.1615  0.2167
  373POPI   C4A 5894  15.411  12.716   8.706  0.0675  0.1573 -0.0567
  373POPI   C1B 5895  15.884  13.200   9.268  0.0354  0.0543  0.1645
  373POPI   C2B 5896  15.734  13.104   8.872 -0.1929 -0.1347 -0.1224
  373POPI   C3B 5897  15.729  13.191   8.488 -0.0050 -0.5547  0.3467
  373POPI   C4B 5898  15.730  13.021   7.992 -0.2399  0.2182 -0.2029
  374POPI    C1 5899  15.225  17.816  10.365 -0.3587  0.1603 -0.1368
  374POPI    C2 5900  15.217  18.023  10.707 -0.1685  0.1323 -0.1142
  374POPI    C3 5901  14.973  17.711  10.657  0.0203 -0.0570  0.1212
  374POPI   PO4 5902  15.628  17.813  10.266  0.2530  0.2885  0.2861
  374POPI   GL1 5903  15.833  17.717   9.938  0.0521 -0.1880 -0.0882
  374POPI   GL2 5904  15.437  17.620   9.775 -0.0221 -0.1679  0.2341
  374POPI   C1A 5905  15.851  17.463   9.588 -0.1568 -0.0352 -0.3706
  374POPI   D2A 5906  16.094  17.193   9.231 -0.1426 -0.0136 -0.0995
  374POPI   C3A 5907  16.274  16.896   8.873  0.1721 -0.0104 -0.1009
  374POPI   C4A 5908  16.404  16.555   8.695  0.2534 -0.3317  0.0547
  374POPI   C1B 5909  15.457  17.610   9.337  0.1636  0.2075  0.0537
  374POPI   C2B 5910  15.106  17.436   9.109  0.1641  0.0510 -0.1859
  374POPI   C3B 5911  14.862  17.578   8.859 -0.0162 -0.0394 -0.2057
  374POPI   C4B 5912  14.876  17.933   8.592  0.2353 -0.0480 -0.0879
  375POPI    C1 5913   2.582  12.555  10.263 -0.1601 -0.0991  0.0243
  375POPI    C2 5914   2.700  12.918  10.143  0.0113 -0.1033  0.1752
  375POPI    C3 5915   2.900  12.728  10.433 -0.1336 -0.2793  0.1622
  375POPI   PO4 5916   2.556  12.347  10.052  0.1117 -0.1512 -0.1890
  375POPI   GL1 5917   2.449  12.321   9.647  0.1732 -0.0632  0.0277
  375POPI   GL2 5918   2.117  12.359   9.566 -0.1350  0.4235 -0.0575
  375POPI   C1A 5919   2.597  12.473   9.317  0.1357  0.2386  0.0480
  375POPI   D2A 5920   2.452  12.476   8.873 -0.1217 -0.1348  0.0180
  375POPI   C3A 5921   2.684  12.628   8.469 -0.0637 -0.0758 -0.4871
  375POPI   C4A 5922   3.132  12.750   8.341  0.0027  0.1127 -0.0367
  375POPI   C1B 5923   2.094  12.601   9.277 -0.1935 -0.0133 -0.2431
  375POPI   C2B 5924   2.012  12.655   8.856 -0.3267  0.1165  0.0738
  375POPI   C3B 5925   1.842  12.518   8.440 -0.2030  0.1035  0.1378
  375POPI   C4B 5926   1.838  12.512   8.012 -0.0614  0.0526 -0.2100
  376POPI    C1 5927   2.477  16.606  10.385  0.2134 -0.0713  0.0494
  376POPI    C2 5928   2.407  16.965  10.547  0.0712 -0.0804  0.0098
  376POPI    C3 5929   2.775  16.807  10.562  0.1561  0.1079 -0.0554
  376POPI   PO4 5930   2.509  16.578  10.199 -0.1844  0.0097 -0.0668
  376POPI   GL1 5931   2.348  16.777   9.697  0.4003 -0.1626  0.0050
  376POPI   GL2 5932   2.286  16.791   9.355 -0.0915 -0.0915  0.1173
  376POPI   C1A 5933   2.281  16.308   9.475 -0.0989 -0.0397 -0.1617
  376POPI   D2A 5934   2.305  16.253   9.032 -0.2396 -0.1929  0.0856
  376POPI   C3A 5935   2.045  15.867   8.849 -0.1287  0.2931 -0.0648
  376POPI   C4A 5936   1.768  15.570   8.707 -0.1429 -0.3215 -0.0247
  376POPI   C1B 5937   2.326  16.837   8.923 -0.0956  0.1054 -0.1039
  376POPI   C2B 5938   2.287  16.898   8.520 -0.2102 -0.4040  0.1127
  376POPI   C3B 5939   2.465  16.987   8.103  0.0773  0.0695 -0.2154
  376POPI   C4B 5940   2.294  17.316   7.871 -0.1270 -0.1516 -0.1410
  377POPI    C1 5941   5.413   3.955  10.738  0.1694  0.0578 -0.0776
  377POPI    C2 5942   5.488   3.577  10.844 -0.0721  0.0073 -0.0826
  377POPI    C3 5943   5.387   3.846  11.122  0.0492  0.0569 -0.0859
  377POPI   PO4 5944   5.269   3.924  10.491  0.0297 -0.2979  0.0302
  377POPI   GL1 5945   5.191   3.817  10.038 -0.1039  0.4359  0.0062
  377POPI   GL2 5946   4.972   4.081   9.853  0.0075 -0.2043 -0.1244
  377POPI   C1A 5947   5.252   3.620   9.633  0.0602  0.1421  0.1834
  377POPI   D2A 5948   5.176   3.518   9.162  0.3508  0.0921  0.0222
  377POPI   C3A 5949   5.200   3.174   8.998  0.0534  0.3016  0.1063
  377POPI   C4A 5950   5.068   2.876   8.590 -0.0218  0.0981  0.1112
  377POPI   C1B 5951   5.029   4.056   9.385  0.0862 -0.2764 -0.2574
  377POPI   C2B 5952   5.034   4.055   9.031  0.0727 -0.0432  0.3325
  377POPI   C3B 5953   5.170   4.122   8.565  0.0479  0.0944  0.4818
  377POPI   C4B 5954   5.115   4.320   8.186 -0.3391 -0.0101 -0.3546
  378POPI    C1 5955   5.626   0.760  10.659 -0.1087 -0.2860  0.1864
  378POPI    C2 5956   5.745   0.658  10.291  0.0551  0.0362  0.1465
  378POPI    C3 5957   5.916   0.489  10.610 -0.1546 -0.3159  0.0775
  378POPI   PO4 5958   5.314   0.770  10.658 -0.1391 -0.0372 -0.5183
  378POPI   GL1 5959   5.117   0.931  10.282 -0.1226 -0.0203 -0.0381
  378POPI   GL2 5960   4.917   1.113  10.499  0.1052 -0.2165 -0.0286
  378POPI   C1A 5961   5.178   1.221   9.826  0.1265  0.1435  0.1409
  378POPI   D2A 5962   5.151   1.400   9.404 -0.1563  0.1745 -0.2010
  378POPI   C3A 5963   5.282   1.086   9.114 -0.0406  0.2458  0.1741
  378POPI   C4A 5964   5.061   0.888   8.774  0.0235  0.0455 -0.0053
  378POPI   C1B 5965   4.753   1.122  10.006  0.0783 -0.0563 -0.0650
  378POPI   C2B 5966   4.414   1.117   9.755  0.0159  0.1866  0.1366
  378POPI   C3B 5967   4.121   1.518   9.586 -0.1325 -0.1449 -0.2990
  378POPI   C4B 5968   4.008   1.867   9.355 -0.0890 -0.0078  0.2103
  379POPI    C1 5969  17.878  17.562  10.537  0.1886  0.0432 -0.2265
  379POPI    C2 5970  17.782  17.931  10.657  0.1707  0.0362 -0.2191
  379POPI    C3 5971  18.104  17.749  10.809  0.0856 -0.0160 -0.0994
  379POPI   PO4 5972  17.808  17.678  10.200 -0.0936  0.3320 -0.1426
  379POPI   GL1 5973  17.706  17.694   9.815  0.1959  0.1498 -0.1016
  379POPI   GL2 5974  17.785  18.031   9.810  0.1864  0.0316 -0.3848
  379POPI   C1A 5975  17.518  17.249   9.676  0.1764 -0.1245  0.2549
  379POPI   D2A 5976  17.139  17.068   9.414  0.2855 -0.2164 -0.1950
  379POPI   C3A 5977  17.210  17.159   9.012  0.1699  0.0021  0.4998
  379POPI   C4A 5978  17.119  17.217   8.687  0.1237 -0.2309  0.2077
  379POPI   C1B 5979  17.721  17.950   9.388  0.0757  0.0656 -0.2533
  379POPI   C2B 5980  17.698  17.853   8.962  0.3702 -0.1466  0.0488
  379POPI   C3B 5981  17.731  17.728   8.585  0.2896  0.0090 -0.2872
  379POPI   C4B 5982  17.733  18.016   8.333  0.1067 -0.0002 -0.2770
  380POPI    C1 5983   8.498   3.996  10.476  0.0648  0.0381  0.1469
  380POPI    C2 5984   8.352   3.837  10.813 -0.1853  0.0267  0.0361
  380POPI    C3 5985   8.342   4.233  10.758 -0.2068  0.0230  0.0132
  380POPI   PO4 5986   8.461   3.874  10.294 -0.1675 -0.0899 -0.3067
  380POPI   GL1 5987   8.441   3.741   9.846  0.1446 -0.0270 -0.0657
  380POPI   GL2 5988   8.402   3.963   9.659  0.1460  0.0606  0.0314
  380POPI   C1A 5989   8.657   3.386   9.449 -0.0382 -0.2928  0.2384
  380POPI   D2A 5990   8.555   3.365   9.026  0.0644 -0.4954  0.0550
  380POPI   C3A 5991   8.642   3.315   8.630  0.2849 -0.2025 -0.0835
  380POPI   C4A 5992   8.314   3.215   8.224  0.1402 -0.1728  0.0848
  380POPI   C1B 5993   8.438   3.919   9.221 -0.2011 -0.0811 -0.0399
  380POPI   C2B 5994   8.521   3.848   8.834 -0.0592 -0.0480 -0.3763
  380POPI   C3B 5995   8.278   3.666   8.500  0.0494  0.0590  0.1912
  380POPI   C4B 5996   8.148   3.700   8.068 -0.2729  0.1885  0.0094
  381POPI    C1 5997  15.913  10.801  10.688  0.0468 -0.1154  0.2116
  381POPI    C2 5998  15.965  11.179  10.808 -0.1376 -0.0258  0.0173
  381POPI    C3 5999  16.239  10.901  10.898  0.0840  0.1882  0.0167
  381POPI   PO4 6000  15.864  10.823  10.426 -0.1808  0.1236 -0.1208
  381POPI   GL1 6001  15.848  10.967  10.020 -0.1145 -0.1128 -0.1322
  381POPI   GL2 6002  15.622  10.665   9.988  0.0677 -0.0459 -0.3401
  381POPI   C1A 6003  15.724  11.093   9.686  0.2025 -0.1230  0.4935
  381POPI   D2A 6004  15.825  11.055   9.349  0.4215  0.0601  0.0216
  381POPI   C3A 6005  15.616  11.115   8.997 -0.0257 -0.0945  0.0615
  381POPI   C4A 6006  15.432  11.011   8.588 -0.0810  0.4131  0.2578
  381POPI   C1B 6007  15.495  10.676   9.487  0.3601 -0.0153  0.1427
  381POPI   C2B 6008  15.526  10.632   8.981 -0.1563  0.0123  0.1150
  381POPI   C3B 6009  15.806  10.637   8.591 -0.0379 -0.0185 -0.2057
  381POPI   C4B 6010  15.723  10.595   8.299  0.1181 -0.0661 -0.1682
  382POPI    C1 6011   7.511   3.150  10.170  0.1625  0.2015  0.1973
  382POPI    C2 6012   7.153   2.978  10.129  0.2563 -0.0239  0.3081
  382POPI    C3 6013   7.241   3.177  10.464  0.2486 -0.0021  0.2970
  382POPI   PO4 6014   7.562   3.299   9.934 -0.1083  0.1527 -0.1043
  382POPI   GL1 6015   7.610   3.732   9.807  0.0099  0.1813 -0.0614
  382POPI   GL2 6016   7.344   3.941   9.896  0.2080  0.1633  0.0005
  382POPI   C1A 6017   7.556   3.903   9.338 -0.3890  0.1061  0.0877
  382POPI   D2A 6018   7.499   3.795   8.961 -0.1173  0.1244  0.1556
  382POPI   C3A 6019   7.713   4.094   8.720  0.3136 -0.1202  0.0382
  382POPI   C4A 6020   7.793   4.111   8.283  0.1961  0.0175  0.0162
  382POPI   C1B 6021   7.101   4.005   9.554  0.3727  0.0756  0.0258
  382POPI   C2B 6022   7.087   4.097   9.090 -0.1876  0.1487  0.4031
  382POPI   C3B 6023   7.102   4.135   8.783  0.2165  0.2117 -0.2177
  382POPI   C4B 6024   7.292   3.912   8.482  0.3240 -0.3886 -0.0918
  383POPI    C1 6025  13.513  10.517  10.614  0.0056  0.0866  0.1675
  383POPI    C2 6026  13.770  10.281  10.419 -0.2701 -0.1353  0.0652
  383POPI    C3 6027  13.786  10.307  10.818  0.0417  0.0150  0.0463
  383POPI   PO4 6028  13.197  10.484  10.463  0.1204  0.0285 -0.0075
  383POPI   GL1 6029  13.105  10.301  10.018  0.1423  0.1153  0.1876
  383POPI   GL2 6030  13.479  10.283   9.956 -0.0608  0.3129 -0.1331
  383POPI   C1A 6031  12.865  10.135   9.751 -0.4166  0.1266 -0.3052
  383POPI   D2A 6032  12.924   9.936   9.408 -0.2019 -0.0107  0.4016
  383POPI   C3A 6033  12.788  10.188   9.000 -0.0080  0.1837 -0.0219
  383POPI   C4A 6034  12.666  10.286   8.529  0.4251  0.0406  0.1478
  383POPI   C1B 6035  13.324  10.338   9.519 -0.0692 -0.0186  0.2175
  383POPI   C2B 6036  13.192  10.343   9.136  0.0451 -0.0979 -0.2462
  383POPI   C3B 6037  13.265  10.155   8.795  0.3276  0.3784  0.1263
  383POPI   C4B 6038  13.642  10.135   8.526 -0.2473 -0.2169 -0.1715
  384POPI    C1 6039   1.858  14.811  10.264  0.0735 -0.0671  0.1667
  384POPI    C2 6040   1.601  15.050  10.072  0.0791 -0.0737  0.1509
  384POPI    C3 6041   1.729  15.148  10.438  0.2282  0.0448  0.0683
  384POPI   PO4 6042   2.025  14.820   9.999 -0.1202 -0.1346  0.0953
  384POPI   GL1 6043   1.913  14.809   9.575  0.0572 -0.0839 -0.1972
  384POPI   GL2 6044   1.587  14.820   9.596  0.0656 -0.0920 -0.1985
  384POPI   C1A 6045   1.928  14.767   9.196 -0.0804 -0.0793 -0.0040
  384POPI   D2A 6046   1.945  14.797   8.772 -0.0170 -0.0997 -0.1249
  384POPI   C3A 6047   2.102  14.709   8.402 -0.0463  0.3176 -0.1154
  384POPI   C4A 6048   2.054  14.671   7.959  0.2381  0.4310 -0.1592
  384POPI   C1B 6049   1.473  15.071   9.250  0.0114 -0.1837 -0.0419
  384POPI   C2B 6050   1.478  15.062   8.793 -0.2521  0.2186 -0.2780
  384POPI   C3B 6051   1.654  15.006   8.404  0.2482 -0.0961 -0.1207
  384POPI   C4B 6052   1.965  15.127   8.098  0.1978 -0.2188 -0.1483
  385POPI    C1 6053   8.790   1.192  10.512  0.0619 -0.1521 -0.1855
  385POPI    C2 6054   8.729   0.940  10.817  0.1315 -0.0566 -0.0922
  385POPI    C3 6055   8.672   1.333  10.867  0.1562 -0.0392 -0.1987
  385POPI   PO4 6056   8.668   0.969  10.327 -0.2574 -0.2037  0.0864
  385POPI   GL1 6057   8.898   0.723  10.076 -0.0760  0.0494 -0.3016
  385POPI   GL2 6058   8.644   0.627   9.932  0.0108 -0.1161  0.0739
  385POPI   C1A 6059   9.163   0.752   9.789 -0.1620  0.0366  0.2086
  385POPI   D2A 6060   9.133   0.694   9.351  0.0418 -0.0524 -0.1165
  385POPI   C3A 6061   9.229   0.431   9.011  0.0017 -0.1123 -0.3984
  385POPI   C4A 6062   8.935   0.140   8.634  0.0228 -0.4731 -0.0801
  385POPI   C1B 6063   8.663   0.729   9.501 -0.0519 -0.3196 -0.2482
  385POPI   C2B 6064   8.734   0.722   9.041 -0.0771 -0.0113 -0.0153
  385POPI   C3B 6065   8.553   0.505   8.727 -0.2322  0.0090  0.0971
  385POPI   C4B 6066   8.087   0.492   8.553  0.1751 -0.0717  0.0902
  386POPI    C1 6067   3.972   7.649   9.647  0.1132  0.1550 -0.0187
  386POPI    C2 6068   4.037   7.527  10.022 -0.1406 -0.0346 -0.0337
  386POPI    C3 6069   4.207   7.333   9.717 -0.2060 -0.0919 -0.0341
  386POPI   PO4 6070   4.013   7.916   9.694  0.0071 -0.1687 -0.0678
  386POPI   GL1 6071   3.893   8.157   9.331 -0.1586  0.1274  0.0310
  386POPI   GL2 6072   4.139   8.288   9.360  0.1643 -0.0509 -0.2647
  386POPI   C1A 6073   3.568   8.119   9.086  0.1382 -0.0220  0.0386
  386POPI   D2A 6074   3.096   7.980   8.935 -0.1350  0.1252 -0.3218
  386POPI   C3A 6075   3.084   7.900   8.483 -0.0321 -0.0313 -0.0749
  386POPI   C4A 6076   3.019   7.879   8.080  0.0285  0.0182 -0.0797
  386POPI   C1B 6077   4.185   8.614   8.993  0.1911 -0.1411 -0.1839
  386POPI   C2B 6078   4.228   8.676   8.538  0.1308 -0.3618 -0.3439
  386POPI   C3B 6079   4.343   8.424   8.204 -0.0126 -0.2055  0.0116
  386POPI   C4B 6080   4.064   8.278   7.811 -0.0403 -0.2478 -0.0457
  387POPI    C1 6081   9.130   2.669  10.362 -0.0291 -0.1294 -0.1565
  387POPI    C2 6082   8.886   2.667  10.679 -0.1793 -0.0754 -0.2701
  387POPI    C3 6083   9.274   2.580  10.724 -0.1638  0.1003 -0.0439
  387POPI   PO4 6084   8.980   2.560  10.118 -0.0830  0.2738  0.1411
  387POPI   GL1 6085   8.678   2.541   9.802 -0.2289  0.1196  0.2226
  387POPI   GL2 6086   8.291   2.534   9.663 -0.2624 -0.0782 -0.2099
  387POPI   C1A 6087   8.907   2.217   9.549 -0.3966 -0.1782 -0.0922
  387POPI   D2A 6088   9.014   2.236   9.181  0.3133  0.6219  0.1582
  387POPI   C3A 6089   8.908   2.317   8.750  0.1225 -0.1583 -0.0245
  387POPI   C4A 6090   8.793   2.355   8.343 -0.1097  0.0303 -0.2819
  387POPI   C1B 6091   8.511   2.482   9.313  0.0800  0.1029 -0.2625
  387POPI   C2B 6092   8.534   2.328   9.018 -0.0906 -0.2750 -0.0356
  387POPI   C3B 6093   8.395   2.367   8.644 -0.2329 -0.1994  0.1730
  387POPI   C4B 6094   8.309   2.186   8.329 -0.0190  0.0747  0.2202
  388POPI    C1 6095  12.202   2.315  10.595 -0.1587 -0.0260 -0.0308
  388POPI    C2 6096  11.900   2.205  10.833 -0.2370  0.0940 -0.0740
  388POPI    C3 6097  12.159   1.931  10.700 -0.2373  0.0143  0.0870
  388POPI   PO4 6098  12.148   2.510  10.404  0.1327 -0.0899 -0.3193
  388POPI   GL1 6099  12.027   2.721   9.981 -0.0367 -0.0076 -0.0603
  388POPI   GL2 6100  12.252   2.315   9.941  0.1665 -0.2645  0.0137
  388POPI   C1A 6101  12.119   2.773   9.588 -0.0174  0.1587  0.1056
  388POPI   D2A 6102  12.068   2.630   9.277  0.0494 -0.2104 -0.0818
  388POPI   C3A 6103  12.075   2.592   8.835  0.0861  0.0777 -0.2368
  388POPI   C4A 6104  12.442   2.519   8.505  0.2677 -0.1286  0.1878
  388POPI   C1B 6105  12.244   2.188   9.428 -0.0299 -0.2374  0.2755
  388POPI   C2B 6106  12.363   2.269   9.002 -0.1902  0.1082  0.0997
  388POPI   C3B 6107  12.152   2.143   8.619  0.1591 -0.0365  0.1346
  388POPI   C4B 6108  11.945   2.548   8.334 -0.2262  0.3199  0.1866
  389POPI    C1 6109   2.566  13.778  10.080 -0.1362  0.1016  0.2798
  389POPI    C2 6110   2.879  14.015  10.156  0.1680 -0.2496  0.1546
  389POPI    C3 6111   2.758  13.750  10.430  0.0582 -0.2017  0.1532
  389POPI   PO4 6112   2.297  13.902  10.033 -0.2573  0.2879 -0.0682
  389POPI   GL1 6113   2.302  14.112   9.715  0.0368  0.0713 -0.1039
  389POPI   GL2 6114   2.075  13.909   9.607 -0.0894  0.0898 -0.3236
  389POPI   C1A 6115   2.259  14.430   9.402 -0.2046 -0.1202 -0.1118
  389POPI   D2A 6116   2.196  14.364   9.060 -0.1473  0.2126  0.1566
  389POPI   C3A 6117   2.282  14.340   8.738  0.2200 -0.0423  0.1267
  389POPI   C4A 6118   2.404  14.327   8.297  0.2061 -0.1769 -0.2616
  389POPI   C1B 6119   2.122  13.922   9.230 -0.1298 -0.0529  0.1574
  389POPI   C2B 6120   2.219  13.889   8.847  0.0936  0.1140 -0.0072
  389POPI   C3B 6121   2.144  13.667   8.521 -0.2517  0.2166 -0.1988
  389POPI   C4B 6122   2.047  13.305   8.227  0.3484 -0.2446  0.0088
  390POPI    C1 6123   4.787   9.799  10.183 -0.1314  0.0673  0.1164
  390POPI    C2 6124   4.656   9.567  10.481 -0.0815 -0.0452  0.0512
  390POPI    C3 6125   5.035   9.696  10.479 -0.0520 -0.1319 -0.0175
  390POPI   PO4 6126   4.605   9.625   9.949  0.1639 -0.2689  0.2173
  390POPI   GL1 6127   4.482   9.662   9.546 -0.1245 -0.0114 -0.0492
  390POPI   GL2 6128   4.449   9.925   9.543  0.0349  0.2217  0.4909
  390POPI   C1A 6129   4.670   9.535   9.151  0.3253  0.2553 -0.0325
  390POPI   D2A 6130   4.595   9.505   8.698  0.0368  0.1782  0.1249
  390POPI   C3A 6131   4.502   9.557   8.162 -0.2856 -0.0352 -0.1842
  390POPI   C4A 6132   4.637   9.278   7.790  0.3829  0.2530 -0.2531
  390POPI   C1B 6133   4.396   9.879   9.010  0.0284  0.0699 -0.2790
  390POPI   C2B 6134   4.357   9.980   8.588  0.1966  0.0046 -0.0073
  390POPI   C3B 6135   4.275  10.124   8.250  0.3262  0.2056  0.0194
  390POPI   C4B 6136   4.366  10.074   7.904  0.0277 -0.4426  0.2103
  391POPI    C1 6137   9.215   2.070  10.584 -0.0719  0.3748 -0.0515
  391POPI    C2 6138   9.579   2.114  10.746 -0.0187  0.0869 -0.0883
  391POPI    C3 6139   9.254   2.114  10.979  0.0439 -0.1419  0.0017
  391POPI   PO4 6140   9.239   2.187  10.337 -0.1809 -0.2155  0.1912
  391POPI   GL1 6141   9.286   2.055   9.923 -0.3090 -0.4044 -0.1468
  391POPI   GL2 6142   9.321   1.716   9.990  0.2133 -0.0695  0.1114
  391POPI   C1A 6143   9.467   2.138   9.516 -0.0185  0.1871  0.0407
  391POPI   D2A 6144   9.463   2.107   9.145  0.0504 -0.2163 -0.0095
  391POPI   C3A 6145   9.708   2.158   8.729  0.0729  0.0161  0.0134
  391POPI   C4A 6146   9.638   2.126   8.298  0.3047 -0.3612 -0.0627
  391POPI   C1B 6147   9.179   1.578   9.622  0.2329  0.3510 -0.2502
  391POPI   C2B 6148   9.141   1.686   9.236 -0.2960  0.2284  0.0554
  391POPI   C3B 6149   9.085   1.818   8.927  0.0310 -0.1152 -0.0362
  391POPI   C4B 6150   9.163   2.002   8.469 -0.0688  0.2394 -0.0324
  392POPI    C1 6151  16.392  13.561  10.504 -0.1158  0.2037  0.0597
  392POPI    C2 6152  16.066  13.597  10.732 -0.1309 -0.2642  0.1227
  392POPI    C3 6153  16.429  13.636  10.895 -0.1478  0.1749  0.0684
  392POPI   PO4 6154  16.366  13.650  10.331 -0.3568  0.0554 -0.2480
  392POPI   GL1 6155  16.562  13.669   9.924  0.1441 -0.0529 -0.2526
  392POPI   GL2 6156  16.280  13.670   9.867  0.0141 -0.0207  0.0106
  392POPI   C1A 6157  16.670  13.530   9.431 -0.0243 -0.2971  0.3094
  392POPI   D2A 6158  16.654  13.379   9.037  0.0231 -0.3015  0.0388
  392POPI   C3A 6159  16.618  13.391   8.569  0.0897  0.0860 -0.0581
  392POPI   C4A 6160  16.586  13.468   8.189 -0.0665 -0.0366 -0.3915
  392POPI   C1B 6161  16.154  13.608   9.323 -0.0289 -0.0979  0.0168
  392POPI   C2B 6162  16.071  13.550   8.869  0.1694 -0.1082 -0.0354
  392POPI   C3B 6163  16.144  13.617   8.433 -0.1265  0.1400  0.3103
  392POPI   C4B 6164  16.003  13.397   8.104  0.0382  0.0441  0.3505
  393POPI    C1 6165  13.900  13.468  10.557 -0.1888  0.0849 -0.3043
  393POPI    C2 6166  13.698  13.274  10.843 -0.1219  0.0295 -0.2945
  393POPI    C3 6167  14.051  13.134  10.717  0.0350  0.2672 -0.1275
  393POPI   PO4 6168  13.819  13.541  10.354 -0.0118  0.2333  0.2443
  393POPI   GL1 6169  13.657  13.778   9.919  0.1865 -0.1361 -0.0990
  393POPI   GL2 6170  13.696  13.532   9.861 -0.0644  0.0855 -0.1471
  393POPI   C1A 6171  13.779  13.930   9.552  0.0152  0.1953 -0.1430
  393POPI   D2A 6172  13.904  13.791   9.179  0.0450  0.4225 -0.3285
  393POPI   C3A 6173  14.022  13.853   8.825  0.0966 -0.1261  0.0163
  393POPI   C4A 6174  14.127  13.932   8.451 -0.0933  0.0166  0.1294
  393POPI   C1B 6175  13.880  13.400   9.505 -0.1744  0.0623 -0.0182
  393POPI   C2B 6176  14.274  13.288   9.290 -0.1903  0.1075  0.1267
  393POPI   C3B 6177  14.244  13.302   8.870 -0.1896  0.1600 -0.2109
  393POPI   C4B 6178  14.316  13.331   8.454 -0.1413 -0.1926 -0.4619
  394POPI    C1 6179  10.626   6.443  10.484  0.0515  0.1959 -0.4162
  394POPI    C2 6180  10.339   6.721  10.492 -0.1105  0.0270 -0.1885
  394POPI    C3 6181  10.675   6.775  10.701 -0.2336 -0.0432  0.0297
  394POPI   PO4 6182  10.735   6.348  10.175  0.0412  0.1388 -0.3973
  394POPI   GL1 6183  10.881   6.480   9.764 -0.1138 -0.1348  0.3627
  394POPI   GL2 6184  11.160   6.490   9.815 -0.0616 -0.1644  0.0431
  394POPI   C1A 6185  10.941   6.516   9.266  0.2984  0.2326 -0.0713
  394POPI   D2A 6186  10.849   6.598   8.819  0.0505 -0.1824  0.2457
  394POPI   C3A 6187  11.058   6.935   8.646  0.1089  0.1365  0.2797
  394POPI   C4A 6188  11.520   7.130   8.756  0.0175 -0.2328 -0.2225
  394POPI   C1B 6189  11.232   6.213   9.469 -0.0074 -0.2727  0.0101
  394POPI   C2B 6190  11.174   6.009   9.134  0.0936 -0.0700  0.1050
  394POPI   C3B 6191  11.151   6.070   8.647 -0.1657  0.0362 -0.4792
  394POPI   C4B 6192  10.858   6.247   8.265 -0.0192 -0.4605  0.4924
  395POPI    C1 6193   0.597   2.517  10.383 -0.0280  0.2341 -0.0445
  395POPI    C2 6194   0.799   2.476  10.726  0.2307 -0.0455 -0.2252
  395POPI    C3 6195   0.403   2.529  10.733  0.2353 -0.0308  0.1160
  395POPI   PO4 6196   0.815   2.679  10.237  0.0956 -0.0674 -0.3956
  395POPI   GL1 6197   0.927   2.855   9.865  0.3008 -0.4439  0.0066
  395POPI   GL2 6198   0.625   2.854   9.757 -0.2962 -0.0078 -0.1780
  395POPI   C1A 6199   0.983   3.083   9.539 -0.2246  0.2819 -0.0714
  395POPI   D2A 6200   0.923   3.152   9.144  0.0669  0.1390  0.1600
  395POPI   C3A 6201   0.810   3.059   8.737 -0.3154 -0.1215  0.1496
  395POPI   C4A 6202   0.991   2.958   8.399 -0.0293 -0.0836 -0.2770
  395POPI   C1B 6203   0.526   3.039   9.376 -0.2179  0.2757 -0.1245
  395POPI   C2B 6204   0.384   2.891   8.909  0.0131  0.0961 -0.0108
  395POPI   C3B 6205   0.378   2.763   8.451  0.0059 -0.0008  0.0837
  395POPI   C4B 6206   0.222   2.589   8.096 -0.0832 -0.0390 -0.2315
  396POPI    C1 6207   2.959  18.000  10.161  0.0717 -0.1801 -0.0243
  396POPI    C2 6208   2.918  18.253  10.468 -0.2081 -0.3121  0.0503
  396POPI    C3 6209   3.123  17.913  10.515  0.1302 -0.1251 -0.0376
  396POPI   PO4 6210   3.005  18.219   9.986 -0.1345  0.1081  0.1009
  396POPI   GL1 6211   2.746  18.436   9.743  0.3033 -0.2200  0.1724
  396POPI   GL2 6212   2.895  18.802   9.883  0.0818  0.1033  0.1189
  396POPI   C1A 6213   2.908  18.512   9.358 -0.0877  0.0901 -0.0556
  396POPI   D2A 6214   2.747  18.612   9.015 -0.3540  0.0971  0.0292
  396POPI   C3A 6215   3.072  18.553   8.814 -0.0911  0.1350  0.1516
  396POPI   C4A 6216   3.403  18.453   8.638 -0.1353 -0.0982  0.2208
  396POPI   C1B 6217   2.927  19.002   9.552  0.2655  0.2881  0.1913
  396POPI   C2B 6218   2.926  19.035   9.124  0.1898  0.2961 -0.2135
  396POPI   C3B 6219   2.789  19.037   8.719 -0.1469  0.0034 -0.1104
  396POPI   C4B 6220   2.805  18.809   8.413  0.0569  0.1112  0.1451
  397POPI    C1 6221   8.035  12.867   9.564 -0.2631  0.0664 -0.0843
  397POPI    C2 6222   8.167  13.114   9.850 -0.0454 -0.0473 -0.0852
  397POPI    C3 6223   8.010  12.760   9.949 -0.1474 -0.0052 -0.0963
  397POPI   PO4 6224   8.023  12.997   9.382 -0.0164 -0.2293 -0.0166
  397POPI   GL1 6225   7.834  13.251   9.054  0.1540 -0.1682 -0.3778
  397POPI   GL2 6226   8.090  13.167   8.942 -0.2071 -0.0690  0.1116
  397POPI   C1A 6227   7.838  13.605   8.705 -0.2891  0.3658  0.3350
  397POPI   D2A 6228   7.980  13.722   8.321  0.3542  0.0838  0.0657
  397POPI   C3A 6229   8.154  13.370   8.014 -0.2183  0.0401  0.2141
  397POPI   C4A 6230   8.200  13.171   7.730 -0.3544 -0.0944  0.0386
  397POPI   C1B 6231   7.965  13.215   8.487  0.3029 -0.1859 -0.1387
  397POPI   C2B 6232   8.330  13.035   8.329  0.0114 -0.1081  0.0259
  397POPI   C3B 6233   8.454  12.900   8.076 -0.3127  0.0125 -0.0448
  397POPI   C4B 6234   8.462  12.732   7.690  0.1058 -0.0496 -0.1117
  398POPI    C1 6235   0.256   5.137  10.685  0.1618  0.0452 -0.0287
  398POPI    C2 6236  -0.053   4.884  10.671 -0.0002  0.2372  0.0408
  398POPI    C3 6237   0.279   4.783  10.869 -0.0302  0.0438 -0.0055
  398POPI   PO4 6238   0.355   5.247  10.344 -0.1089  0.1036  0.0485
  398POPI   GL1 6239   0.553   5.215  10.017  0.0637  0.2374 -0.3074
  398POPI   GL2 6240   0.585   4.914   9.968  0.0155  0.0709  0.0546
  398POPI   C1A 6241   0.404   5.326   9.637 -0.0935  0.3216 -0.0214
  398POPI   D2A 6242   0.358   5.276   9.227  0.3599  0.0482 -0.2470
  398POPI   C3A 6243   0.243   5.278   8.819 -0.0025 -0.3836 -0.2716
  398POPI   C4A 6244   0.160   5.300   8.462 -0.0751  0.1558  0.1513
  398POPI   C1B 6245   0.636   4.818   9.583 -0.1052 -0.0698  0.0565
  398POPI   C2B 6246   0.533   4.754   9.214  0.1131  0.1531  0.0859
  398POPI   C3B 6247   0.591   4.971   8.828  0.1356  0.0144 -0.1565
  398POPI   C4B 6248   0.537   4.929   8.448  0.1202 -0.0236  0.2551
  399POPI    C1 6249   6.065   3.498  10.130 -0.0428 -0.0618  0.1655
  399POPI    C2 6250   6.313   3.581  10.432  0.0193 -0.0115  0.1011
  399POPI    C3 6251   6.278   3.837  10.126 -0.0405 -0.0639  0.0640
  399POPI   PO4 6252   6.131   3.222  10.118  0.0788  0.2583  0.2091
  399POPI   GL1 6253   6.144   3.046   9.838  0.0880 -0.0548 -0.0060
  399POPI   GL2 6254   6.307   2.741   9.741  0.2956 -0.1836 -0.1274
  399POPI   C1A 6255   6.015   3.221   9.417 -0.1225  0.0210  0.1213
  399POPI   D2A 6256   6.061   3.251   8.956  0.2343  0.4044 -0.2109
  399POPI   C3A 6257   6.056   2.941   8.631 -0.2382  0.2333 -0.0540
  399POPI   C4A 6258   6.089   2.928   8.188  0.0983 -0.3632 -0.2475
  399POPI   C1B 6259   6.332   2.840   9.353 -0.3177 -0.1999  0.3192
  399POPI   C2B 6260   6.415   2.924   8.979 -0.1086 -0.1378  0.0424
  399POPI   C3B 6261   6.522   2.848   8.550 -0.0330 -0.1208  0.0614
  399POPI   C4B 6262   6.563   2.843   8.081  0.0369  0.3292  0.0207
  400POPI    C1 6263   1.323  14.069  10.295 -0.1383 -0.0999 -0.0838
  400POPI    C2 6264   0.970  14.001  10.472 -0.0453 -0.0034  0.1434
  400POPI    C3 6265   1.017  14.319  10.234 -0.2403 -0.2642 -0.2545
  400POPI   PO4 6266   1.437  13.844  10.277  0.0366  0.2677 -0.2773
  400POPI   GL1 6267   1.489  13.610   9.919  0.0266  0.1075 -0.1910
  400POPI   GL2 6268   1.343  13.359   9.857  0.0080  0.0562  0.0038
  400POPI   C1A 6269   1.573  13.853   9.486 -0.0397  0.0129  0.1288
  400POPI   D2A 6270   1.696  13.752   9.042  0.2730  0.1066  0.0622
  400POPI   C3A 6271   1.797  14.088   8.766 -0.2145 -0.0635 -0.0616
  400POPI   C4A 6272   1.935  14.117   8.385 -0.0798 -0.1153  0.0807
  400POPI   C1B 6273   1.373  13.404   9.405  0.1508 -0.1820  0.2950
  400POPI   C2B 6274   1.151  13.346   8.998  0.0457  0.0148  0.1556
  400POPI   C3B 6275   1.225  13.291   8.607  0.3766  0.2806  0.1873
  400POPI   C4B 6276   1.303  13.164   8.211 -0.2636  0.0410 -0.1087
  401POPI    C1 6277  17.946   5.649  10.386  0.0371 -0.1380 -0.2439
  401POPI    C2 6278  18.311   5.487  10.374  0.0270 -0.1722 -0.1019
  401POPI    C3 6279  18.000   5.272  10.506  0.0276 -0.0149  0.1631
  401POPI   PO4 6280  18.018   5.778  10.054 -0.1305 -0.0305  0.2365
  401POPI   GL1 6281  18.128   5.694   9.608 -0.0196  0.0925  0.1438
  401POPI   GL2 6282  18.279   5.471   9.437 -0.1586 -0.2579  0.0611
  401POPI   C1A 6283  18.062   5.993   9.256 -0.1399 -0.1281 -0.1429
  401POPI   D2A 6284  18.266   6.040   8.959  0.1856  0.0256  0.1871
  401POPI   C3A 6285  18.254   6.208   8.554 -0.0528 -0.3188 -0.1089
  401POPI   C4A 6286  18.386   6.334   8.081  0.0301  0.3333 -0.3450
  401POPI   C1B 6287  18.158   5.497   9.036 -0.1299 -0.1026  0.3473
  401POPI   C2B 6288  18.148   5.647   8.626 -0.0662 -0.0745  0.2163
  401POPI   C3B 6289  18.343   5.721   8.293 -0.4723 -0.0979  0.0934
  401POPI   C4B 6290  18.573   5.854   7.897  0.0616  0.0256 -0.2203
  402POPI    C1 6291  15.215   2.859  10.630  0.0020  0.1760 -0.1606
  402POPI    C2 6292  15.247   3.213  10.449  0.0890  0.2114 -0.0764
  402POPI    C3 6293  15.528   3.095  10.708 -0.0443  0.1701  0.0506
  402POPI   PO4 6294  15.277   2.688  10.467  0.0321  0.0475 -0.1581
  402POPI   GL1 6295  15.167   2.836  10.024 -0.2718 -0.3420  0.1659
  402POPI   GL2 6296  15.463   2.968   9.948 -0.4440 -0.0215  0.0557
  402POPI   C1A 6297  15.088   2.919   9.607  0.0490  0.0410 -0.2887
  402POPI   D2A 6298  15.176   2.937   9.256  0.0722  0.1337 -0.2715
  402POPI   C3A 6299  15.256   2.877   8.839 -0.0378 -0.1139  0.1804
  402POPI   C4A 6300  15.346   2.916   8.467 -0.0612 -0.0490  0.2996
  402POPI   C1B 6301  15.567   3.135   9.581  0.1488 -0.1631  0.1824
  402POPI   C2B 6302  15.665   3.093   9.085 -0.0303  0.0651 -0.0559
  402POPI   C3B 6303  15.748   2.950   8.703 -0.1248 -0.1460  0.0550
  402POPI   C4B 6304  15.935   2.892   8.232 -0.1965  0.2884 -0.1320
  403POPI    C1 6305  10.181  12.728  10.136 -0.2597 -0.1594  0.0288
  403POPI    C2 6306  10.443  12.425  10.145  0.1021  0.1469  0.0586
  403POPI    C3 6307  10.159  12.453  10.426  0.1508 -0.0883  0.1334
  403POPI   PO4 6308  10.098  12.709   9.901  0.1950 -0.0438 -0.2343
  403POPI   GL1 6309   9.835  12.512   9.655 -0.2983 -0.2041 -0.0118
  403POPI   GL2 6310   9.714  12.272   9.652  0.0320  0.0276  0.1834
  403POPI   C1A 6311   9.844  12.518   9.205  0.1106 -0.3019  0.2599
  403POPI   D2A 6312   9.711  12.371   8.702 -0.1825  0.0628 -0.0596
  403POPI   C3A 6313   9.693  12.452   8.307 -0.1637 -0.2002  0.3071
  403POPI   C4A 6314   9.429  12.514   7.905  0.1800  0.1935 -0.1681
  403POPI   C1B 6315   9.561  12.126   9.239 -0.2033  0.0690 -0.1141
  403POPI   C2B 6316   9.432  12.007   8.918 -0.3746  0.0438  0.1728
  403POPI   C3B 6317   9.548  11.902   8.497  0.1052  0.0607 -0.2664
  403POPI   C4B 6318   9.473  12.042   8.144 -0.1184 -0.1308 -0.0364
  404POPI    C1 6319  17.758  12.456  10.255  0.2643 -0.0997  0.0744
  404POPI    C2 6320  17.685  12.782  10.476 -0.0422  0.0049 -0.1746
  404POPI    C3 6321  17.468  12.450  10.531  0.1462 -0.0989 -0.0486
  404POPI   PO4 6322  17.812  12.487  10.095 -0.0027  0.0288  0.1466
  404POPI   GL1 6323  17.700  12.728   9.682  0.1337 -0.2257  0.1372
  404POPI   GL2 6324  17.402  12.806   9.524 -0.0128  0.1960  0.0240
  404POPI   C1A 6325  17.980  12.713   9.402  0.1137  0.0424 -0.1653
  404POPI   D2A 6326  18.102  12.653   8.983  0.0089 -0.3333  0.0776
  404POPI   C3A 6327  17.982  12.412   8.733  0.0788 -0.4359 -0.2557
  404POPI   C4A 6328  17.926  12.041   8.482  0.0369 -0.1553  0.1680
  404POPI   C1B 6329  17.536  12.759   9.213  0.0893  0.0808 -0.1087
  404POPI   C2B 6330  17.285  12.733   8.851 -0.0547 -0.0316 -0.3455
  404POPI   C3B 6331  17.187  12.831   8.543  0.0845 -0.0074  0.3381
  404POPI   C4B 6332  17.151  12.550   8.131  0.1576  0.0580 -0.2549
  405POPI    C1 6333   0.153  17.965  10.715 -0.1035 -0.0657 -0.0635
  405POPI    C2 6334   0.292  17.599  10.636 -0.0922 -0.0829  0.0344
  405POPI    C3 6335   0.173  17.692  11.006  0.1278  0.0852  0.0650
  405POPI   PO4 6336  -0.072  17.998  10.409  0.0651 -0.2347  0.3464
  405POPI   GL1 6337  -0.107  17.773  10.037 -0.0468  0.1459  0.1854
  405POPI   GL2 6338   0.136  17.577   9.950 -0.1051  0.3172  0.0881
  405POPI   C1A 6339  -0.151  17.805   9.583 -0.0021  0.0786  0.2100
  405POPI   D2A 6340  -0.116  17.696   9.177  0.0288 -0.2449  0.0351
  405POPI   C3A 6341  -0.218  17.958   8.801  0.1570  0.0871 -0.4232
  405POPI   C4A 6342  -0.515  18.309   8.692  0.3265  0.0857 -0.0932
  405POPI   C1B 6343   0.263  17.373   9.704 -0.1533 -0.0776  0.3236
  405POPI   C2B 6344   0.291  17.450   9.293  0.1696 -0.0956  0.0597
  405POPI   C3B 6345   0.150  17.341   8.853  0.1181  0.2375 -0.1009
  405POPI   C4B 6346  -0.148  17.484   8.671  0.0344 -0.0193  0.0770
  406POPI    C1 6347  11.639  13.643  10.236  0.3339  0.1998 -0.1629
  406POPI    C2 6348  11.722  13.864  10.558  0.0839  0.0509  0.0070
  406POPI    C3 6349  11.378  13.661  10.538  0.1357 -0.0104 -0.3174
  406POPI   PO4 6350  11.592  13.713  10.029 -0.1688 -0.3471 -0.1380
  406POPI   GL1 6351  11.323  13.664   9.636 -0.4461  0.3425 -0.1928
  406POPI   GL2 6352  11.051  13.721   9.528  0.3892 -0.1032  0.1833
  406POPI   C1A 6353  11.528  13.681   9.263 -0.0134 -0.0555  0.2187
  406POPI   D2A 6354  11.656  13.809   8.841 -0.2455 -0.1589  0.1178
  406POPI   C3A 6355  11.555  13.829   8.439 -0.3743 -0.0126 -0.1299
  406POPI   C4A 6356  11.547  13.976   8.035  0.1826 -0.2250  0.1465
  406POPI   C1B 6357  11.095  13.498   9.132  0.2470  0.0538  0.0829
  406POPI   C2B 6358  11.042  13.423   8.657 -0.2831  0.0423  0.0714
  406POPI   C3B 6359  11.202  13.568   8.256  0.2753 -0.0761 -0.0658
  406POPI   C4B 6360  11.154  13.703   7.898  0.3238 -0.3648  0.0865
  407POPI    C1 6361  16.220  12.205  10.563  0.0221 -0.1992 -0.0158
  407POPI    C2 6362  16.416  11.995  10.841  0.2184 -0.1414 -0.1089
  407POPI    C3 6363  16.242  12.341  10.939  0.2115 -0.1646 -0.0385
  407POPI   PO4 6364  16.330  12.179  10.288 -0.2269 -0.0075  0.1794
  407POPI   GL1 6365  16.431  11.883   9.959  0.1348 -0.1037 -0.0241
  407POPI   GL2 6366  16.446  11.517   9.965 -0.0887  0.1322  0.0347
  407POPI   C1A 6367  16.304  12.008   9.536 -0.0733  0.1400  0.1140
  407POPI   D2A 6368  16.193  12.040   9.058  0.0996 -0.3124 -0.1320
  407POPI   C3A 6369  16.083  12.135   8.662 -0.1292 -0.2374 -0.1211
  407POPI   C4A 6370  15.916  11.989   8.233 -0.3651 -0.1935  0.1043
  407POPI   C1B 6371  16.467  11.568   9.483 -0.2820  0.2163 -0.1950
  407POPI   C2B 6372  16.615  11.371   9.004 -0.2570  0.1176  0.0475
  407POPI   C3B 6373  16.645  11.484   8.552 -0.0977  0.0798  0.3965
  407POPI   C4B 6374  16.631  11.533   8.136  0.2941  0.1348 -0.3517
  408POPI    C1 6375  13.642   8.429  10.600 -0.1945  0.1226 -0.0654
  408POPI    C2 6376  13.652   8.807  10.731 -0.1946  0.0971  0.0085
  408POPI    C3 6377  13.811   8.515  10.953  0.0285  0.0870 -0.1615
  408POPI   PO4 6378  13.384   8.415  10.383  0.0609 -0.0354  0.2132
  408POPI   GL1 6379  13.389   8.600  10.047 -0.1611 -0.1034  0.4765
  408POPI   GL2 6380  13.709   8.800  10.096 -0.0060  0.1709 -0.0150
  408POPI   C1A 6381  13.367   8.388   9.704  0.4896  0.1742  0.1930
  408POPI   D2A 6382  13.582   8.101   9.589  0.1109 -0.2362 -0.3048
  408POPI   C3A 6383  13.589   8.164   9.067  0.1646 -0.2106  0.1577
  408POPI   C4A 6384  13.617   8.184   8.599 -0.4272  0.0283 -0.0843
  408POPI   C1B 6385  13.582   8.797   9.651  0.0797  0.1210 -0.1293
  408POPI   C2B 6386  13.488   8.690   9.196 -0.2153 -0.1805 -0.0023
  408POPI   C3B 6387  13.467   8.746   8.716  0.2017 -0.0417  0.0254
  408POPI   C4B 6388  13.849   8.840   8.341  0.1232 -0.2763  0.0063
  409POPI    C1 6389   3.761  11.068   9.930  0.0746  0.1347  0.1943
  409POPI    C2 6390   4.013  11.377   9.960  0.1823  0.0696 -0.0190
  409POPI    C3 6391   3.814  11.250  10.283  0.4818  0.0720  0.1712
  409POPI   PO4 6392   3.940  10.861   9.847 -0.0046 -0.0744  0.0042
  409POPI   GL1 6393   4.473  10.881   9.697  0.2252 -0.0478  0.0044
  409POPI   GL2 6394   4.544  11.199   9.609  0.1935  0.2048 -0.0283
  409POPI   C1A 6395   4.385  10.838   9.269  0.0424 -0.0265  0.0497
  409POPI   D2A 6396   4.102  11.038   9.012 -0.1927 -0.1173  0.1779
  409POPI   C3A 6397   4.015  11.070   8.568 -0.1695 -0.1363  0.1303
  409POPI   C4A 6398   3.938  11.072   8.146 -0.0415 -0.3252 -0.1461
  409POPI   C1B 6399   4.827  11.369   9.264 -0.2193  0.2195  0.1065
  409POPI   C2B 6400   4.788  11.403   8.961  0.0262 -0.1599 -0.2320
  409POPI   C3B 6401   4.781  11.398   8.501  0.2181 -0.0817  0.2374
  409POPI   C4B 6402   4.815  11.452   8.065 -0.1090 -0.1090  0.1480
  410POPI    C1 6403  11.285   7.091  10.254 -0.0473  0.0365  0.0589
  410POPI    C2 6404  11.685   7.099  10.248 -0.0489  0.1386  0.0531
  410POPI    C3 6405  11.491   7.053  10.595 -0.0295 -0.1800  0.0255
  410POPI   PO4 6406  11.232   6.906  10.082 -0.2225 -0.2172 -0.3106
  410POPI   GL1 6407  11.119   6.942   9.644  0.1418  0.0494  0.0361
  410POPI   GL2 6408  10.970   7.242   9.614  0.0375  0.1169  0.6208
  410POPI   C1A 6409  11.147   6.894   9.146  0.1846  0.2710  0.2760
  410POPI   D2A 6410  11.368   6.633   8.881 -0.0594  0.1271 -0.1906
  410POPI   C3A 6411  11.303   6.545   8.474 -0.3700  0.2052  0.2094
  410POPI   C4A 6412  11.487   6.781   8.076  0.1171 -0.2679 -0.2096
  410POPI   C1B 6413  11.092   7.374   9.222 -0.2874 -0.1341 -0.1732
  410POPI   C2B 6414  11.131   7.420   8.791  0.1434 -0.2229 -0.0629
  410POPI   C3B 6415  10.902   7.407   8.444 -0.1876 -0.1488  0.0734
  410POPI   C4B 6416  10.645   7.286   8.107  0.0210  0.0040 -0.0806
  411POPI    C1 6417   6.320  12.450  10.385 -0.0588  0.0365  0.1311
  411POPI    C2 6418   6.706  12.552  10.402 -0.0743  0.1195 -0.0062
  411POPI    C3 6419   6.544  12.334  10.695 -0.0043  0.3640  0.2179
  411POPI   PO4 6420   6.342  12.462  10.068  0.1220 -0.0350 -0.0203
  411POPI   GL1 6421   6.012  12.535   9.745  0.2580 -0.0120 -0.1887
  411POPI   GL2 6422   5.941  12.869   9.618 -0.0621 -0.0610 -0.1633
  411POPI   C1A 6423   6.243  12.212   9.414  0.2125 -0.1295  0.0756
  411POPI   D2A 6424   6.052  11.957   9.085  0.1388  0.1330  0.1211
  411POPI   C3A 6425   6.180  11.971   8.749  0.3749 -0.2331  0.0587
  411POPI   C4A 6426   6.181  12.009   8.287  0.0638 -0.2303  0.0725
  411POPI   C1B 6427   6.043  12.755   9.230  0.0670 -0.0023  0.3421
  411POPI   C2B 6428   5.982  12.650   8.758  0.0269 -0.0238  0.0832
  411POPI   C3B 6429   6.183  12.565   8.358 -0.2033  0.1172  0.3368
  411POPI   C4B 6430   6.157  12.394   8.000  0.2250 -0.0264 -0.0502
  412POPI    C1 6431  14.027  12.619  10.238  0.1816 -0.1807 -0.0494
  412POPI    C2 6432  13.810  12.558  10.569 -0.1395 -0.3885 -0.2918
  412POPI    C3 6433  14.072  12.281  10.448  0.1973 -0.1818 -0.0545
  412POPI   PO4 6434  14.122  12.886  10.278 -0.1559  0.3158  0.2163
  412POPI   GL1 6435  14.056  13.085   9.955  0.2616  0.3122  0.2916
  412POPI   GL2 6436  14.163  13.366   9.891 -0.1569 -0.1666 -0.0385
  412POPI   C1A 6437  14.123  12.889   9.547  0.0498  0.0051  0.3126
  412POPI   D2A 6438  13.964  12.810   9.132 -0.0500 -0.0939 -0.1239
  412POPI   C3A 6439  13.830  12.971   8.661 -0.1413 -0.2455 -0.1307
  412POPI   C4A 6440  13.967  12.930   8.247 -0.0351  0.1693  0.0494
  412POPI   C1B 6441  14.155  13.706   9.834  0.0907  0.1347 -0.2401
  412POPI   C2B 6442  14.415  13.842   9.576  0.0268 -0.0282  0.2299
  412POPI   C3B 6443  14.434  13.804   9.141 -0.0280 -0.1262 -0.0924
  412POPI   C4B 6444  14.567  13.737   8.735 -0.0474  0.3092 -0.1019
  413POPI    C1 6445  13.963   5.728  10.447 -0.3525 -0.4031 -0.0086
  413POPI    C2 6446  14.237   5.700  10.738 -0.0795 -0.1293 -0.2317
  413POPI    C3 6447  13.853   5.617  10.815 -0.0806  0.3245  0.3109
  413POPI   PO4 6448  14.023   5.887  10.273  0.1624  0.1582 -0.2705
  413POPI   GL1 6449  14.074   5.944   9.908  0.0438  0.0114  0.0952
  413POPI   GL2 6450  13.817   5.824   9.825 -0.0986  0.0873  0.1395
  413POPI   C1A 6451  14.113   6.164   9.487 -0.2856  0.1053 -0.2884
  413POPI   D2A 6452  14.024   6.017   9.062  0.0057 -0.1843  0.0112
  413POPI   C3A 6453  14.071   5.859   8.652 -0.1400  0.0854  0.1655
  413POPI   C4A 6454  13.775   5.920   8.382  0.0632  0.1710 -0.1065
  413POPI   C1B 6455  13.963   5.631   9.435  0.3119  0.1985  0.1165
  413POPI   C2B 6456  13.943   5.451   9.027  0.0277 -0.1056 -0.2155
  413POPI   C3B 6457  13.647   5.381   8.659 -0.3354 -0.0470  0.0991
  413POPI   C4B 6458  13.464   5.460   8.262 -0.0874  0.0791 -0.0792
  414POPI    C1 6459  11.304   3.558  10.389 -0.1391 -0.0318 -0.1642
  414POPI    C2 6460  11.682   3.427  10.384 -0.0839  0.1263 -0.1871
  414POPI    C3 6461  11.528   3.579  10.720 -0.1974 -0.1370 -0.1177
  414POPI   PO4 6462  11.298   3.664  10.188 -0.1727  0.0568 -0.0380
  414POPI   GL1 6463  11.096   3.755   9.864  0.3267  0.0362 -0.1168
  414POPI   GL2 6464  11.211   4.010   9.760  0.3182  0.0935  0.0810
  414POPI   C1A 6465  10.903   3.547   9.515  0.0937  0.1839  0.1975
  414POPI   D2A 6466  10.769   3.260   9.206 -0.4479 -0.2413  0.1861
  414POPI   C3A 6467  10.686   3.225   8.761  0.0065  0.1017 -0.3035
  414POPI   C4A 6468  10.691   3.343   8.335 -0.2647 -0.2212 -0.0529
  414POPI   C1B 6469  11.247   3.869   9.405 -0.0733 -0.1291 -0.1092
  414POPI   C2B 6470  10.999   3.677   9.020 -0.0534  0.1241 -0.2844
  414POPI   C3B 6471  10.672   3.716   8.646 -0.0072 -0.1340 -0.0464
  414POPI   C4B 6472  10.452   3.857   8.211 -0.0519  0.2220  0.2341
  415POPI    C1 6473   4.306  16.867  10.135 -0.0122 -0.2309 -0.1715
  415POPI    C2 6474   4.552  16.741  10.424 -0.0132  0.0318 -0.0536
  415POPI    C3 6475   4.167  16.631  10.427  0.0337 -0.1355 -0.0720
  415POPI   PO4 6476   4.454  16.895   9.904 -0.0065 -0.1087  0.1765
  415POPI   GL1 6477   4.710  16.901   9.510  0.2316 -0.1814 -0.1715
  415POPI   GL2 6478   5.052  16.766   9.693 -0.2013 -0.0163  0.0524
  415POPI   C1A 6479   4.810  17.005   9.179  0.0037 -0.0071  0.1135
  415POPI   D2A 6480   4.894  16.911   8.828 -0.0557  0.2152  0.2897
  415POPI   C3A 6481   5.215  16.858   8.759 -0.0699 -0.1900 -0.0202
  415POPI   C4A 6482   5.528  16.643   8.943 -0.2007 -0.0137  0.1336
  415POPI   C1B 6483   5.166  17.087   9.519 -0.2234  0.0339 -0.2861
  415POPI   C2B 6484   5.443  17.051   9.245 -0.1263  0.0739  0.3681
  415POPI   C3B 6485   5.628  17.096   8.886 -0.0607  0.0199 -0.1786
  415POPI   C4B 6486   5.488  17.040   8.399 -0.1370 -0.0841 -0.2690
  416POPI    C1 6487  12.355   3.576  10.209  0.1087 -0.1793  0.2964
  416POPI    C2 6488  12.204   3.397  10.534  0.1974  0.0091  0.4435
  416POPI    C3 6489  12.463   3.699  10.574  0.1354  0.0976  0.1974
  416POPI   PO4 6490  12.079   3.647  10.147 -0.0879 -0.1647  0.0200
  416POPI   GL1 6491  11.646   3.741   9.809 -0.0569 -0.3864 -0.1109
  416POPI   GL2 6492  12.025   3.903   9.732  0.2228 -0.1546  0.0721
  416POPI   C1A 6493  11.679   3.579   9.357 -0.0034 -0.0205  0.0072
  416POPI   D2A 6494  11.511   3.749   8.856  0.3640  0.0630 -0.3663
  416POPI   C3A 6495  11.435   3.829   8.396  0.0971 -0.0294  0.1985
  416POPI   C4A 6496  11.063   4.015   8.308 -0.3064 -0.0843 -0.4281
  416POPI   C1B 6497  12.187   3.762   9.368 -0.1368  0.1639  0.0500
  416POPI   C2B 6498  12.008   3.485   8.887 -0.3060  0.1670  0.0981
  416POPI   C3B 6499  11.781   3.509   8.480  0.1047  0.1040 -0.1469
  416POPI   C4B 6500  12.061   3.355   8.136 -0.2429  0.0698 -0.0242
  417POPI    C1 6501  11.130  15.479  10.163  0.2904  0.2540 -0.0009
  417POPI    C2 6502  11.038  15.830  10.331 -0.2846  0.1471 -0.0706
  417POPI    C3 6503  11.096  15.507  10.560  0.3430  0.2972  0.0006
  417POPI   PO4 6504  11.301  15.568   9.992  0.3020 -0.1344 -0.1509
  417POPI   GL1 6505  11.394  15.386   9.664 -0.1574 -0.0183  0.0385
  417POPI   GL2 6506  11.495  15.068   9.593  0.2452  0.2375 -0.0147
  417POPI   C1A 6507  11.853  15.406   9.392  0.2915 -0.1757  0.2055
  417POPI   D2A 6508  11.911  15.606   9.056 -0.0021  0.1762  0.0613
  417POPI   C3A 6509  11.895  15.658   8.664  0.2687 -0.0387  0.0676
  417POPI   C4A 6510  11.748  15.767   8.304  0.0230  0.0836 -0.1808
  417POPI   C1B 6511  11.439  15.141   9.191  0.0436 -0.0474 -0.0674
  417POPI   C2B 6512  11.448  15.357   8.800  0.0625 -0.1066  0.1507
  417POPI   C3B 6513  11.549  15.302   8.397  0.1511 -0.0584  0.3159
  417POPI   C4B 6514  11.549  15.423   7.938 -0.0273  0.1900  0.1597
  418POPI    C1 6515   7.554   1.375  10.604 -0.0027 -0.2925  0.4097
  418POPI    C2 6516   7.305   1.689  10.607  0.2051 -0.1178  0.0694
  418POPI    C3 6517   7.396   1.502  10.949 -0.1817 -0.0191  0.2317
  418POPI   PO4 6518   7.450   1.243  10.390  0.0497 -0.1050  0.0160
  418POPI   GL1 6519   7.275   1.128  10.047  0.1234  0.1050 -0.3551
  418POPI   GL2 6520   7.086   0.994   9.928  0.0741 -0.3303  0.0748
  418POPI   C1A 6521   7.359   1.300   9.633  0.3850 -0.1738 -0.0530
  418POPI   D2A 6522   7.391   1.612   9.285 -0.0312 -0.1071 -0.2890
  418POPI   C3A 6523   7.582   1.704   8.969 -0.1787  0.0823  0.0010
  418POPI   C4A 6524   7.521   1.801   8.521  0.4597 -0.2590  0.3829
  418POPI   C1B 6525   6.909   1.092   9.541 -0.1230  0.3800  0.0877
  418POPI   C2B 6526   6.627   1.154   9.220 -0.2594 -0.0721 -0.2982
  418POPI   C3B 6527   6.573   1.491   8.828 -0.1065 -0.0540 -0.2711
  418POPI   C4B 6528   6.319   1.534   8.602  0.0560 -0.1998 -0.1292
  419POPI    C1 6529  14.677  16.892  10.407  0.0952 -0.1377 -0.0276
  419POPI    C2 6530  14.752  16.849  10.798 -0.0969 -0.0111  0.0247
  419POPI    C3 6531  14.387  16.770  10.654 -0.0081 -0.1262 -0.1422
  419POPI   PO4 6532  14.924  16.868  10.292 -0.2133  0.0643  0.0685
  419POPI   GL1 6533  15.111  16.888   9.831 -0.2566 -0.3971 -0.0297
  419POPI   GL2 6534  15.170  17.184   9.941  0.2105  0.0480  0.0541
  419POPI   C1A 6535  15.230  17.029   9.405  0.0896  0.0413  0.2024
  419POPI   D2A 6536  15.179  16.942   8.947  0.2818 -0.2303  0.0260
  419POPI   C3A 6537  14.990  17.069   8.544  0.1781  0.3207  0.2932
  419POPI   C4A 6538  14.691  17.381   8.363 -0.2196 -0.3893 -0.2113
  419POPI   C1B 6539  15.040  17.440   9.616  0.2022  0.0285 -0.2655
  419POPI   C2B 6540  14.698  17.565   9.393  0.3259  0.2542 -0.4515
  419POPI   C3B 6541  14.626  17.901   9.079  0.2433  0.4146  0.0854
  419POPI   C4B 6542  14.514  18.236   8.836  0.0541  0.1573  0.1669
  420POPI    C1 6543   6.899  12.502   9.947 -0.3606  0.0312  0.0835
  420POPI    C2 6544   6.636  12.310   9.715 -0.2301 -0.0487  0.0010
  420POPI    C3 6545   6.827  12.113  10.006  0.0913 -0.1104 -0.2454
  420POPI   PO4 6546   7.028  12.687   9.767  0.3759  0.1987  0.0317
  420POPI   GL1 6547   7.048  12.655   9.339 -0.2567 -0.1975 -0.0401
  420POPI   GL2 6548   7.258  12.480   9.352 -0.1735  0.7214  0.2206
  420POPI   C1A 6549   6.648  12.723   9.217  0.3179  0.0923 -0.1727
  420POPI   D2A 6550   6.324  12.428   8.979 -0.1553 -0.0962 -0.2940
  420POPI   C3A 6551   6.509  12.285   8.590 -0.2999  0.4611  0.0068
  420POPI   C4A 6552   6.644  12.318   8.192 -0.3307 -0.0741 -0.1254
  420POPI   C1B 6553   7.327  12.442   8.976  0.0481  0.0541 -0.0361
  420POPI   C2B 6554   7.408  12.525   8.543  0.0657  0.2515  0.1983
  420POPI   C3B 6555   7.649  12.622   8.111  0.1328 -0.1308  0.3480
  420POPI   C4B 6556   7.939  12.890   8.050  0.2933  0.2314  0.0209
  421POPI    C1 6557  15.946   6.960  10.155  0.3634 -0.1065  0.1667
  421POPI    C2 6558  15.893   7.341  10.265  0.0609 -0.0339 -0.2065
  421POPI    C3 6559  16.051   7.078  10.522 -0.1969  0.2268  0.2309
  421POPI   PO4 6560  15.720   6.916   9.969  0.2015  0.2245 -0.1999
  421POPI   GL1 6561  15.540   7.025   9.565  0.1402 -0.1290 -0.2745
  421POPI   GL2 6562  15.243   7.147   9.478 -0.0796 -0.0457 -0.2124
  421POPI   C1A 6563  15.553   6.867   9.185  0.1489  0.0309 -0.3371
  421POPI   D2A 6564  15.691   6.624   8.929  0.3910 -0.2131  0.3106
  421POPI   C3A 6565  15.627   6.820   8.636 -0.2271  0.0089  0.4472
  421POPI   C4A 6566  15.518   6.970   8.194 -0.2136  0.1442 -0.1432
  421POPI   C1B 6567  15.217   7.216   9.027 -0.0569 -0.0453 -0.2274
  421POPI   C2B 6568  15.207   7.077   8.622  0.1596 -0.0950  0.2912
  421POPI   C3B 6569  14.962   6.990   8.282  0.0558  0.2193  0.3371
  421POPI   C4B 6570  14.878   6.663   8.120 -0.2631 -0.0750 -0.0618
  422POPI    C1 6571   7.598  11.053  10.009 -0.0693 -0.1162 -0.0120
  422POPI    C2 6572   7.650  11.419  10.161 -0.0689 -0.1571  0.0877
  422POPI    C3 6573   7.956  11.230   9.987 -0.1229 -0.0245 -0.1557
  422POPI   PO4 6574   7.358  11.095   9.755  0.4694 -0.2197  0.0899
  422POPI   GL1 6575   7.482  11.224   9.265  0.0674  0.1729 -0.0181
  422POPI   GL2 6576   7.190  11.378   9.368  0.0166 -0.0457  0.0713
  422POPI   C1A 6577   7.376  11.516   8.941 -0.1638 -0.3482  0.0196
  422POPI   D2A 6578   7.280  11.780   8.569 -0.3012  0.0302 -0.1736
  422POPI   C3A 6579   7.511  11.656   8.231 -0.2028  0.1424  0.1542
  422POPI   C4A 6580   7.635  11.408   7.891 -0.2027  0.5316  0.2186
  422POPI   C1B 6581   6.816  11.563   9.146 -0.1881  0.0900  0.1785
  422POPI   C2B 6582   6.765  11.774   8.748 -0.3150  0.4084  0.1173
  422POPI   C3B 6583   6.761  11.849   8.290 -0.4630  0.2089  0.2602
  422POPI   C4B 6584   6.725  11.983   7.847 -0.0917 -0.0093  0.5215
  423DPPI    C1 6585   5.028  14.308  10.466 -0.0630 -0.0066  0.0115
  423DPPI    C2 6586   4.949  14.559  10.767  0.4020 -0.1092  0.2294
  423DPPI    C3 6587   4.795  14.190  10.769  0.1270  0.0022  0.1631
  423DPPI   PO4 6588   5.027  14.551  10.244  0.1390  0.1588  0.2035
  423DPPI   GL1 6589   4.803  14.695   9.869 -0.0720  0.0309  0.0572
  423DPPI   GL2 6590   4.545  14.467   9.868 -0.0034  0.2201  0.2218
  423DPPI   C1A 6591   4.879  14.692   9.487 -0.2924  0.1489 -0.0141
  423DPPI   C2A 6592   5.079  14.679   9.101 -0.2856  0.0701  0.2011
  423DPPI   C3A 6593   5.254  14.451   8.777 -0.1930  0.0164 -0.0465
  423DPPI   C4A 6594   5.396  14.508   8.405  0.1063  0.2617 -0.3961
  423DPPI   C1B 6595   4.587  14.242   9.528 -0.2343  0.4663 -0.0515
  423DPPI   C2B 6596   4.779  14.269   9.204 -0.1643 -0.2333 -0.1851
  423DPPI   C3B 6597   4.730  14.307   8.800 -0.0476  0.2914  0.2064
  423DPPI   C4B 6598   4.944  14.297   8.437 -0.1290  0.1579  0.0881
  424DPPI    C1 6599  17.601  15.878  10.528  0.2868  0.0906 -0.1394
  424DPPI    C2 6600  17.298  15.969  10.284 -0.0051 -0.3033  0.0650
  424DPPI    C3 6601  17.500  16.260  10.469 -0.1956 -0.0322 -0.1462
  424DPPI   PO4 6602  17.681  15.611  10.363  0.1402  0.1746  0.0370
  424DPPI   GL1 6603  17.738  15.538   9.978 -0.1923  0.0429  0.1907
  424DPPI   GL2 6604  17.498  15.758   9.765 -0.3665 -0.1438  0.1215
  424DPPI   C1A 6605  18.110  15.489   9.627  0.1454  0.2037  0.1285
  424DPPI   C2A 6606  18.008  15.381   9.237 -0.1628 -0.3476  0.3793
  424DPPI   C3A 6607  18.005  15.443   8.784 -0.0292 -0.1353 -0.0901
  424DPPI   C4A 6608  18.093  15.519   8.361  0.0743  0.1948 -0.2533
  424DPPI   C1B 6609  17.592  15.650   9.390  0.2573 -0.0740 -0.1508
  424DPPI   C2B 6610  17.635  15.725   9.019  0.1140 -0.0300  0.4017
  424DPPI   C3B 6611  17.695  15.770   8.586 -0.1731  0.0167 -0.2356
  424DPPI   C4B 6612  17.720  15.685   8.084 -0.3322  0.1180  0.0396
  425DPPI    C1 6613  11.242  12.207  10.101  0.1897  0.0704  0.0254
  425DPPI    C2 6614  11.029  12.515  10.240  0.2463  0.0395  0.1824
  425DPPI    C3 6615  11.199  12.258  10.495  0.2248 -0.1048  0.0530
  425DPPI   PO4 6616  11.394  12.274   9.907  0.0062 -0.1236  0.1450
  425DPPI   GL1 6617  11.570  12.216   9.493 -0.2140 -0.0721  0.0081
  425DPPI   GL2 6618  11.940  12.296   9.422 -0.1198  0.1129 -0.0219
  425DPPI   C1A 6619  11.203  12.124   9.213  0.1274  0.1445  0.1007
  425DPPI   C2A 6620  10.955  12.395   8.826  0.0951  0.0291  0.2148
  425DPPI   C3A 6621  11.168  12.483   8.443  0.0683  0.0338  0.5883
  425DPPI   C4A 6622  11.426  12.475   8.137 -0.1666 -0.1019 -0.0015
  425DPPI   C1B 6623  11.948  12.258   8.985 -0.0217 -0.0573 -0.0369
  425DPPI   C2B 6624  11.814  12.219   8.548 -0.2349 -0.1055 -0.0478
  425DPPI   C3B 6625  11.824  12.209   8.162 -0.2936 -0.0986  0.1927
  425DPPI   C4B 6626  11.848  12.479   7.775  0.0472 -0.1741  0.0429
  426DPPI    C1 6627  12.441  12.105  10.214 -0.0513  0.0960 -0.0318
  426DPPI    C2 6628  12.394  11.815  10.486  0.1134  0.1890  0.0979
  426DPPI    C3 6629  12.160  12.139  10.496 -0.2289 -0.0411 -0.1893
  426DPPI   PO4 6630  12.524  11.943  10.033  0.1333 -0.2023 -0.1245
  426DPPI   GL1 6631  12.624  11.986   9.634  0.2752  0.6021 -0.1000
  426DPPI   GL2 6632  12.813  12.116   9.696  0.1096 -0.1059 -0.1579
  426DPPI   C1A 6633  12.433  12.039   9.214  0.0388  0.1783 -0.1124
  426DPPI   C2A 6634  12.333  12.073   8.713  0.0686 -0.3623 -0.1539
  426DPPI   C3A 6635  12.255  12.114   8.281  0.0276  0.1018  0.1908
  426DPPI   C4A 6636  12.170  12.036   7.806 -0.0924 -0.1316  0.2364
  426DPPI   C1B 6637  12.859  12.369   9.285  0.1545  0.2405 -0.1983
  426DPPI   C2B 6638  12.781  12.488   8.911  0.0995  0.0826 -0.0358
  426DPPI   C3B 6639  12.680  12.379   8.453  0.1167 -0.2165  0.2095
  426DPPI   C4B 6640  12.642  12.519   8.009 -0.1888 -0.0892  0.2541
  427DPPI    C1 6641   6.418   0.517  10.696  0.0368 -0.0815 -0.1002
  427DPPI    C2 6642   6.757   0.717  10.764  0.1849 -0.2350 -0.3692
  427DPPI    C3 6643   6.545   0.573  11.071  0.2486  0.0456 -0.1892
  427DPPI   PO4 6644   6.446   0.517  10.342  0.2733 -0.0860 -0.0213
  427DPPI   GL1 6645   6.165   0.689   9.996 -0.1182 -0.0147 -0.1144
  427DPPI   GL2 6646   6.030   0.936   9.929  0.1321  0.0314 -0.3142
  427DPPI   C1A 6647   5.889   0.392   9.784  0.2742 -0.3120  0.0790
  427DPPI   C2A 6648   5.760   0.290   9.311 -0.2407  0.1833  0.1476
  427DPPI   C3A 6649   5.640   0.084   8.861  0.1416 -0.2404  0.1534
  427DPPI   C4A 6650   5.338   0.031   8.462 -0.0441 -0.1838 -0.0957
  427DPPI   C1B 6651   6.113   1.079   9.609 -0.2165  0.0663  0.0887
  427DPPI   C2B 6652   6.103   1.090   9.054 -0.0387  0.1852  0.1515
  427DPPI   C3B 6653   6.032   1.151   8.578 -0.0967 -0.0772  0.0474
  427DPPI   C4B 6654   5.721   1.155   8.302  0.1223 -0.4896  0.0686
  428DPPI    C1 6655  14.243   9.909  10.921 -0.1668 -0.0259 -0.0246
  428DPPI    C2 6656  14.415  10.268  10.954 -0.0826 -0.0779  0.1110
  428DPPI    C3 6657  14.168  10.138  11.240  0.0265 -0.2013  0.1501
  428DPPI   PO4 6658  14.078   9.888  10.715  0.0191 -0.2239 -0.3059
  428DPPI   GL1 6659  14.077   9.610  10.359 -0.3980  0.1192  0.1868
  428DPPI   GL2 6660  13.841   9.684  10.274 -0.0947  0.0225  0.0366
  428DPPI   C1A 6661  14.308   9.662  10.031  0.0889  0.2449  0.2396
  428DPPI   C2A 6662  14.223   9.891   9.678  0.0328  0.3027  0.3789
  428DPPI   C3A 6663  14.329   9.849   9.272 -0.0680  0.0998  0.0557
  428DPPI   C4A 6664  14.512   9.878   8.840  0.2233 -0.3733 -0.1206
  428DPPI   C1B 6665  13.784   9.858   9.926  0.0236 -0.3520 -0.0636
  428DPPI   C2B 6666  13.862  10.165   9.518 -0.0803  0.2782  0.1160
  428DPPI   C3B 6667  13.702  10.494   9.237 -0.1186 -0.4433 -0.2453
  428DPPI   C4B 6668  13.494  10.541   8.800  0.2672 -0.0362  0.0837
  429DPPI    C1 6669  15.835   3.386  10.217 -0.0874 -0.1334 -0.2302
  429DPPI    C2 6670  15.972   3.754  10.291  0.0833 -0.1670 -0.3710
  429DPPI    C3 6671  15.617   3.640  10.436  0.0899  0.0066 -0.2135
  429DPPI   PO4 6672  16.019   3.362  10.038 -0.1587  0.1098  0.0768
  429DPPI   GL1 6673  16.047   3.009   9.899  0.1234 -0.0329 -0.2861
  429DPPI   GL2 6674  16.082   2.651   9.888  0.1123 -0.0768 -0.1022
  429DPPI   C1A 6675  16.065   2.992   9.418 -0.1090  0.1379 -0.0956
  429DPPI   C2A 6676  16.099   2.847   9.037 -0.0346 -0.0267  0.0208
  429DPPI   C3A 6677  16.132   2.569   8.628  0.0593 -0.0077 -0.0194
  429DPPI   C4A 6678  15.993   2.291   8.365 -0.2028 -0.0041 -0.0513
  429DPPI   C1B 6679  16.147   2.493   9.439  0.0148  0.1302 -0.1237
  429DPPI   C2B 6680  16.135   2.316   9.057  0.0533 -0.0605  0.2083
  429DPPI   C3B 6681  16.308   2.138   8.720  0.2473 -0.1300 -0.3407
  429DPPI   C4B 6682  16.328   1.887   8.458 -0.1498 -0.0980 -0.0262
  430DPPI    C1 6683  18.007  13.216  10.384 -0.0107 -0.1519  0.0527
  430DPPI    C2 6684  18.327  13.220  10.144  0.0146  0.0785  0.0881
  430DPPI    C3 6685  18.374  13.211  10.541 -0.0256 -0.0898  0.0897
  430DPPI   PO4 6686  17.840  13.040  10.065 -0.1996  0.1314  0.0149
  430DPPI   GL1 6687  18.003  13.161   9.734  0.1797 -0.4758  0.0649
  430DPPI   GL2 6688  18.147  13.366   9.649  0.2540 -0.2693  0.0362
  430DPPI   C1A 6689  17.779  13.152   9.357  0.0291 -0.0528  0.0373
  430DPPI   C2A 6690  17.766  13.054   8.935  0.0269  0.0058 -0.1168
  430DPPI   C3A 6691  17.703  12.798   8.506  0.0558  0.0208  0.3428
  430DPPI   C4A 6692  17.562  12.857   8.113 -0.0179 -0.1487 -0.2395
  430DPPI   C1B 6693  18.111  13.573   9.280  0.0856  0.0922  0.0912
  430DPPI   C2B 6694  18.062  13.525   8.806 -0.0702 -0.0491  0.2317
  430DPPI   C3B 6695  17.856  13.342   8.468  0.3372 -0.1367 -0.1847
  430DPPI   C4B 6696  17.835  13.298   7.964 -0.1980  0.0395 -0.2708
  431DPPI    C1 6697  13.423   3.731  10.175 -0.1179  0.0497  0.0272
  431DPPI    C2 6698  13.782   3.872  10.280 -0.0771  0.0561 -0.1188
  431DPPI    C3 6699  13.660   3.515  10.414  0.0221  0.0127 -0.1436
  431DPPI   PO4 6700  13.373   3.745  10.021  0.2726  0.1325 -0.0396
  431DPPI   GL1 6701  13.485   3.392   9.732 -0.0841  0.2548 -0.1437
  431DPPI   GL2 6702  13.487   3.104   9.643  0.1149  0.0872 -0.0299
  431DPPI   C1A 6703  13.363   3.570   9.286 -0.1392  0.1802 -0.1898
  431DPPI   C2A 6704  13.239   3.916   8.936 -0.1317  0.0028  0.1197
  431DPPI   C3A 6705  13.264   4.129   8.598 -0.1874 -0.0713  0.0717
  431DPPI   C4A 6706  13.482   4.173   8.277  0.1844 -0.1563 -0.0563
  431DPPI   C1B 6707  13.610   3.138   9.203  0.0980  0.2479  0.2604
  431DPPI   C2B 6708  13.704   3.093   8.820 -0.1258  0.1803  0.0369
  431DPPI   C3B 6709  13.658   3.140   8.429 -0.1634  0.0006  0.2140
  431DPPI   C4B 6710  13.633   3.096   7.926  0.2472  0.2908  0.1219
  432DPPI    C1 6711   5.514  10.681  10.409 -0.1473 -0.0436 -0.0114
  432DPPI    C2 6712   5.318  10.976  10.595  0.0860  0.0997  0.0113
  432DPPI    C3 6713   5.522  10.706  10.808  0.2319  0.1780 -0.0276
  432DPPI   PO4 6714   5.503  10.785  10.152 -0.3637  0.0984 -0.2577
  432DPPI   GL1 6715   5.334  10.450   9.844 -0.2052  0.0728  0.0862
  432DPPI   GL2 6716   5.609  10.506   9.646 -0.2348 -0.1155  0.0005
  432DPPI   C1A 6717   5.172  10.447   9.416  0.0844 -0.1943  0.3043
  432DPPI   C2A 6718   5.111  10.548   8.949  0.0772 -0.0160  0.0421
  432DPPI   C3A 6719   5.215  10.485   8.555  0.0335 -0.1940 -0.3381
  432DPPI   C4A 6720   5.113  10.350   8.144  0.0310 -0.1481 -0.0278
  432DPPI   C1B 6721   5.596  10.674   9.316  0.0930 -0.3291 -0.2555
  432DPPI   C2B 6722   5.626  10.680   8.861  0.3012 -0.1317 -0.2032
  432DPPI   C3B 6723   5.614  10.895   8.558  0.3918  0.2507 -0.1474
  432DPPI   C4B 6724   5.407  10.749   8.198  0.1268  0.1637  0.4021
  433DPPI    C1 6725  18.330  16.774  10.637 -0.0381  0.2217  0.2048
  433DPPI    C2 6726  18.665  16.578  10.538 -0.0782  0.1892  0.1330
  433DPPI    C3 6727  18.411  16.420  10.804 -0.0220  0.2278  0.2099
  433DPPI   PO4 6728  18.299  16.855  10.367  0.4474  0.1781  0.0683
  433DPPI   GL1 6729  18.597  17.050  10.037  0.5241  0.2630 -0.2395
  433DPPI   GL2 6730  18.783  16.809  10.044 -0.0400 -0.2814 -0.0043
  433DPPI   C1A 6731  18.394  16.929   9.672  0.1141 -0.0865 -0.1162
  433DPPI   C2A 6732  18.410  16.846   9.231  0.0164 -0.1915 -0.1002
  433DPPI   C3A 6733  18.195  16.754   8.919 -0.0576 -0.1604  0.1624
  433DPPI   C4A 6734  18.089  16.929   8.607 -0.1398  0.0842 -0.0994
  433DPPI   C1B 6735  18.949  16.924   9.622 -0.0616  0.1167  0.0273
  433DPPI   C2B 6736  18.924  16.911   9.227  0.0137  0.0411  0.1141
  433DPPI   C3B 6737  18.804  16.785   8.798 -0.2432  0.2433  0.2962
  433DPPI   C4B 6738  18.582  16.861   8.419 -0.0071 -0.0387  0.0512
  434DPPI    C1 6739   8.950   7.769  10.481 -0.0019  0.1453 -0.0470
  434DPPI    C2 6740   9.129   7.412  10.502 -0.1150  0.0794 -0.1865
  434DPPI    C3 6741   9.244   7.707  10.745 -0.0721 -0.0743 -0.0175
  434DPPI   PO4 6742   9.042   7.859  10.215  0.2339  0.0481  0.2239
  434DPPI   GL1 6743   9.170   7.724   9.864 -0.0983  0.0856  0.0548
  434DPPI   GL2 6744   9.607   7.778   9.862  0.0756 -0.3298 -0.2225
  434DPPI   C1A 6745   8.762   7.915   9.618  0.0493 -0.1560  0.0443
  434DPPI   C2A 6746   8.629   8.222   9.394  0.2811 -0.1489 -0.0014
  434DPPI   C3A 6747   8.273   8.099   9.073 -0.0512  0.3520  0.1289
  434DPPI   C4A 6748   7.972   8.184   8.928 -0.0179 -0.0767  0.1057
  434DPPI   C1B 6749   9.693   7.754   9.387 -0.0954  0.1036  0.4398
  434DPPI   C2B 6750   9.968   7.743   8.995 -0.2060 -0.2522 -0.4371
  434DPPI   C3B 6751  10.049   7.962   8.620  0.0969  0.1041  0.0153
  434DPPI   C4B 6752   9.853   8.346   8.453  0.0605  0.2027 -0.1193
  435DPPI    C1 6753  16.843   6.108  10.263  0.1573  0.0570  0.0889
  435DPPI    C2 6754  16.876   6.112  10.662 -0.0564  0.2190  0.1069
  435DPPI    C3 6755  16.647   6.383  10.477  0.0692  0.1668 -0.1299
  435DPPI   PO4 6756  17.078   5.970  10.184  0.1900 -0.1408  0.3338
  435DPPI   GL1 6757  17.154   5.839   9.759 -0.0063  0.2015 -0.2347
  435DPPI   GL2 6758  17.142   5.620   9.701 -0.2716  0.1047 -0.2950
  435DPPI   C1A 6759  16.871   5.974   9.497 -0.1825  0.0310 -0.2312
  435DPPI   C2A 6760  16.915   6.056   9.029 -0.0534  0.1339  0.3096
  435DPPI   C3A 6761  16.849   5.926   8.586  0.0841  0.0675  0.1946
  435DPPI   C4A 6762  16.709   5.679   8.263  0.0171  0.0836  0.0337
  435DPPI   C1B 6763  17.268   5.707   9.270  0.3239  0.1018  0.0870
  435DPPI   C2B 6764  17.281   5.701   8.817  0.1873  0.0103 -0.1780
  435DPPI   C3B 6765  17.205   5.605   8.388  0.1354 -0.0655 -0.1902
  435DPPI   C4B 6766  17.083   5.614   7.947  0.0972  0.0425  0.3444
  436DPPI    C1 6767  14.431   1.455  10.474  0.2458  0.4974  0.1713
  436DPPI    C2 6768  14.663   1.491  10.150  0.1012  0.0204  0.0063
  436DPPI    C3 6769  14.806   1.317  10.481  0.0988  0.0756  0.0366
  436DPPI   PO4 6770  14.195   1.336  10.401 -0.0154 -0.1364 -0.0677
  436DPPI   GL1 6771  14.086   1.232  10.017 -0.0937  0.6083  0.0008
  436DPPI   GL2 6772  13.918   1.263   9.938 -0.0739  0.1646 -0.0483
  436DPPI   C1A 6773  14.467   1.168   9.733  0.3004 -0.0692  0.1228
  436DPPI   C2A 6774  14.489   1.254   9.297  0.0453  0.1526  0.1612
  436DPPI   C3A 6775  14.759   1.111   8.981 -0.0221  0.3037 -0.1505
  436DPPI   C4A 6776  14.617   0.820   8.591  0.1581 -0.2172  0.2784
  436DPPI   C1B 6777  14.025   1.244   9.504  0.1698  0.2772 -0.0542
  436DPPI   C2B 6778  14.076   1.412   9.080  0.2277 -0.2300 -0.1684
  436DPPI   C3B 6779  14.304   1.257   8.774  0.1033 -0.1947 -0.0650
  436DPPI   C4B 6780  14.319   1.140   8.328  0.1464 -0.1652  0.4124
  437DPPI    C1 6781  15.791   8.422  10.339  0.1234 -0.1073  0.1282
  437DPPI    C2 6782  15.769   8.782  10.167  0.2063 -0.2003 -0.0798
  437DPPI    C3 6783  16.073   8.697  10.412  0.1535 -0.1087  0.0182
  437DPPI   PO4 6784  15.761   8.273  10.163 -0.1553  0.3437  0.0237
  437DPPI   GL1 6785  15.963   8.404   9.879  0.1261  0.0598  0.0438
  437DPPI   GL2 6786  16.168   8.552   9.893  0.0130 -0.1294 -0.1559
  437DPPI   C1A 6787  15.866   8.395   9.473 -0.1724 -0.1411 -0.0018
  437DPPI   C2A 6788  15.752   8.485   9.037 -0.0014  0.3942  0.3310
  437DPPI   C3A 6789  15.658   8.308   8.704 -0.2497  0.1372  0.1214
  437DPPI   C4A 6790  15.555   7.948   8.449  0.1625 -0.1565 -0.0142
  437DPPI   C1B 6791  16.275   8.694   9.590  0.1325  0.1528  0.2794
  437DPPI   C2B 6792  16.128   8.752   9.221 -0.2584 -0.0006  0.1361
  437DPPI   C3B 6793  16.043   8.956   8.830  0.0872 -0.2204  0.0213
  437DPPI   C4B 6794  16.268   9.167   8.423  0.0413  0.1465 -0.2898
  438DPPI    C1 6795  10.036   1.815  10.326 -0.1116 -0.2081 -0.2320
  438DPPI    C2 6796   9.656   1.746  10.431 -0.0265 -0.2749  0.0397
  438DPPI    C3 6797   9.746   2.061  10.201 -0.2099 -0.0803  0.2296
  438DPPI   PO4 6798  10.123   1.607  10.160  0.2683  0.3838  0.0070
  438DPPI   GL1 6799   9.978   1.313   9.904 -0.0839 -0.1655 -0.2769
  438DPPI   GL2 6800   9.801   1.605   9.753 -0.0852  0.0501 -0.3951
  438DPPI   C1A 6801   9.895   1.216   9.468 -0.0516 -0.3300  0.3024
  438DPPI   C2A 6802   9.797   1.163   9.070  0.2024  0.3117  0.1434
  438DPPI   C3A 6803   9.665   1.122   8.665  0.2508 -0.2771  0.1385
  438DPPI   C4A 6804   9.544   1.253   8.346  0.0593 -0.0315  0.1210
  438DPPI   C1B 6805   9.642   1.672   9.390 -0.1785  0.0236  0.1407
  438DPPI   C2B 6806   9.602   1.585   8.927 -0.0143  0.0028  0.3182
  438DPPI   C3B 6807   9.575   1.712   8.528  0.0958 -0.3146  0.2600
  438DPPI   C4B 6808   9.988   1.827   8.497 -0.2613 -0.1647  0.0866
  439DPPI    C1 6809  12.236  10.249  10.453 -0.0697  0.3249  0.2195
  439DPPI    C2 6810  12.454  10.007  10.686 -0.1810  0.0655  0.0577
  439DPPI    C3 6811  12.055  10.010  10.717 -0.1854  0.1635 -0.0027
  439DPPI   PO4 6812  12.245  10.193  10.222  0.0459  0.0152 -0.1384
  439DPPI   GL1 6813  12.411  10.351   9.917 -0.1036  0.0373 -0.0721
  439DPPI   GL2 6814  12.581  10.566   9.859 -0.0129  0.0270  0.1752
  439DPPI   C1A 6815  12.275  10.229   9.477 -0.0300 -0.2857  0.3553
  439DPPI   C2A 6816  12.279  10.368   9.061 -0.0058  0.0738 -0.0911
  439DPPI   C3A 6817  12.154  10.212   8.742 -0.0079 -0.2677 -0.0555
  439DPPI   C4A 6818  12.217  10.322   8.230  0.3286 -0.0071  0.2633
  439DPPI   C1B 6819  12.743  10.550   9.492 -0.2666  0.1303 -0.2100
  439DPPI   C2B 6820  12.695  10.650   9.109 -0.0310  0.2325  0.2298
  439DPPI   C3B 6821  12.967  10.627   8.780  0.0735  0.0280 -0.1817
  439DPPI   C4B 6822  13.182  10.442   8.415  0.1780  0.1210  0.2049
  440DPPI    C1 6823   7.096   8.217  10.210  0.1137  0.0589  0.1622
  440DPPI    C2 6824   7.097   8.376  10.577 -0.1630  0.2912  0.0664
  440DPPI    C3 6825   6.759   8.370  10.363  0.0079  0.2044 -0.2057
  440DPPI   PO4 6826   7.199   8.006  10.190 -0.0210 -0.0854  0.0908
  440DPPI   GL1 6827   7.219   7.673   9.823 -0.0610 -0.1675 -0.0803
  440DPPI   GL2 6828   6.895   7.678   9.918  0.2176 -0.1007  0.3767
  440DPPI   C1A 6829   7.307   7.761   9.365  0.1018 -0.0205  0.0940
  440DPPI   C2A 6830   7.329   7.757   9.023  0.0307  0.1189 -0.1464
  440DPPI   C3A 6831   7.401   7.827   8.667 -0.0385 -0.1219  0.1363
  440DPPI   C4A 6832   7.302   7.794   8.252 -0.0743  0.1262 -0.0892
  440DPPI   C1B 6833   6.794   7.640   9.444 -0.5738  0.0212 -0.4128
  440DPPI   C2B 6834   6.912   7.501   9.123  0.1052  0.0564 -0.1183
  440DPPI   C3B 6835   7.038   7.378   8.715 -0.1723  0.1358  0.1119
  440DPPI   C4B 6836   7.215   7.307   8.346 -0.1003 -0.0880 -0.3707
  441DPPI    C1 6837  16.965  13.999  10.252  0.0116 -0.0995  0.0966
  441DPPI    C2 6838  16.785  14.253  10.503 -0.3188 -0.1570 -0.0760
  441DPPI    C3 6839  16.791  13.862  10.585  0.0057 -0.1222  0.0842
  441DPPI   PO4 6840  16.870  14.077  10.001  0.0397  0.0501  0.1634
  441DPPI   GL1 6841  16.804  13.988   9.546  0.0152  0.1780  0.0887
  441DPPI   GL2 6842  17.113  13.781   9.415  0.5021 -0.3272  0.0452
  441DPPI   C1A 6843  16.901  14.208   9.145 -0.1031 -0.0247 -0.0858
  441DPPI   C2A 6844  17.009  14.288   8.768  0.1860  0.1785  0.0126
  441DPPI   C3A 6845  17.014  14.335   8.347  0.3806  0.0330 -0.0327
  441DPPI   C4A 6846  17.106  14.284   8.042  0.0413 -0.2355  0.0790
  441DPPI   C1B 6847  16.975  13.751   8.973 -0.2741 -0.0284 -0.2872
  441DPPI   C2B 6848  16.971  13.801   8.599  0.0035 -0.2162 -0.1711
  441DPPI   C3B 6849  16.939  13.826   8.217  0.2118  0.1356  0.0663
  441DPPI   C4B 6850  16.839  13.931   7.786 -0.0988 -0.1886  0.1419
  442DPPI    C1 6851   8.734  13.337   9.528 -0.0107  0.0145  0.1411
  442DPPI    C2 6852   8.472  13.220   9.249  0.1312 -0.0554  0.0361
  442DPPI    C3 6853   8.546  12.986   9.564  0.1159 -0.0654  0.0323
  442DPPI   PO4 6854   8.921  13.454   9.412 -0.2014  0.1069 -0.0012
  442DPPI   GL1 6855   9.216  13.524   9.104 -0.1400  0.0078  0.0100
  442DPPI   GL2 6856   8.835  13.419   8.935 -0.2038  0.4899 -0.1588
  442DPPI   C1A 6857   9.088  13.797   8.760 -0.1722 -0.2481 -0.0844
  442DPPI   C2A 6858   9.074  13.828   8.352  0.2165  0.1274 -0.2309
  442DPPI   C3A 6859   9.210  14.055   8.033  0.1788  0.2567 -0.1792
  442DPPI   C4A 6860   9.222  14.339   7.740 -0.0565  0.2730 -0.1986
  442DPPI   C1B 6861   8.742  13.245   8.564 -0.4277  0.0402 -0.4806
  442DPPI   C2B 6862   8.768  13.273   8.139  0.3174 -0.1911  0.1875
  442DPPI   C3B 6863   8.965  13.528   7.888 -0.3666 -0.0018 -0.4942
  442DPPI   C4B 6864   9.358  13.658   7.765 -0.0712  0.0129  0.1153
  443DPPI    C1 6865  13.035   4.515  10.396 -0.0912 -0.2255  0.0306
  443DPPI    C2 6866  12.955   4.836  10.620 -0.0277 -0.0780 -0.1555
  443DPPI    C3 6867  12.781   4.486  10.704 -0.1614  0.0234 -0.0018
  443DPPI   PO4 6868  13.150   4.642  10.172 -0.2135  0.0557 -0.0026
  443DPPI   GL1 6869  13.048   4.932   9.787  0.1806  0.2751  0.3823
  443DPPI   GL2 6870  12.788   4.962   9.612  0.0939 -0.2593 -0.0943
  443DPPI   C1A 6871  13.191   4.791   9.374  0.0516  0.0137  0.1792
  443DPPI   C2A 6872  13.276   4.620   9.053 -0.3281 -0.1088 -0.0288
  443DPPI   C3A 6873  13.571   4.653   8.666  0.0896 -0.3177 -0.0848
  443DPPI   C4A 6874  13.681   4.656   8.242 -0.1723  0.0579  0.1048
  443DPPI   C1B 6875  12.440   5.251   9.515 -0.0193 -0.0447  0.4803
  443DPPI   C2B 6876  12.365   5.631   9.646  0.2424  0.0138 -0.0836
  443DPPI   C3B 6877  12.270   6.049   9.486 -0.2887  0.0905  0.2546
  443DPPI   C4B 6878  12.164   6.417   9.164  0.0127  0.0124  0.0118
  444DPPI    C1 6879   5.805   7.693  10.113 -0.0539  0.1407  0.1075
  444DPPI    C2 6880   5.554   7.568  10.398 -0.1177 -0.0335 -0.0234
  444DPPI    C3 6881   5.815   7.861  10.476 -0.2042 -0.0094  0.1824
  444DPPI   PO4 6882   5.590   7.634   9.879 -0.1402  0.0591  0.0754
  444DPPI   GL1 6883   5.515   7.616   9.439 -0.2148 -0.0562 -0.3191
  444DPPI   GL2 6884   5.355   7.388   9.503 -0.2107 -0.3452  0.2082
  444DPPI   C1A 6885   5.486   7.621   9.058  0.3394 -0.1860  0.0360
  444DPPI   C2A 6886   5.601   7.561   8.577  0.0421  0.0698  0.0157
  444DPPI   C3A 6887   5.950   7.744   8.283 -0.0766  0.0680  0.1045
  444DPPI   C4A 6888   5.996   7.733   7.863 -0.3201  0.3529 -0.1136
  444DPPI   C1B 6889   5.498   7.119   9.152  0.2611 -0.1841 -0.0360
  444DPPI   C2B 6890   5.632   7.040   8.754 -0.0401 -0.3166 -0.1454
  444DPPI   C3B 6891   5.573   7.129   8.355  0.2105  0.2254  0.1401
  444DPPI   C4B 6892   5.399   7.319   7.964  0.6500 -0.1891  0.0424
  445DPPI    C1 6893  10.976   7.841  10.299 -0.0410 -0.0704  0.1153
  445DPPI    C2 6894  10.834   8.187  10.441 -0.1508 -0.0711  0.0086
  445DPPI    C3 6895  11.187   8.049  10.567 -0.1346  0.0497  0.0968
  445DPPI   PO4 6896  10.910   7.879   9.989 -0.2169  0.0708 -0.3433
  445DPPI   GL1 6897  11.196   7.951   9.643 -0.0414 -0.3087  0.1503
  445DPPI   GL2 6898  11.140   8.323   9.470 -0.2075  0.1281 -0.2685
  445DPPI   C1A 6899  11.374   7.837   9.290 -0.0265 -0.4832 -0.0347
  445DPPI   C2A 6900  11.345   7.894   8.911  0.1398  0.1536 -0.3423
  445DPPI   C3A 6901  11.186   7.911   8.484  0.1204 -0.1069 -0.1383
  445DPPI   C4A 6902  11.311   7.584   8.209 -0.1560 -0.0538  0.1774
  445DPPI   C1B 6903  11.200   8.341   9.065 -0.1088 -0.2609  0.1301
  445DPPI   C2B 6904  11.171   8.418   8.670  0.0409  0.2643  0.0157
  445DPPI   C3B 6905  11.328   8.466   8.313 -0.2472 -0.1840  0.1192
  445DPPI   C4B 6906  11.548   8.733   8.009  0.1521  0.1837 -0.1435
  446DPPI    C1 6907   1.897   2.766  10.408  0.3916 -0.1869  0.0023
  446DPPI    C2 6908   2.149   2.599  10.671  0.1092  0.1126  0.4772
  446DPPI    C3 6909   1.889   2.878  10.792 -0.0730  0.2138 -0.1152
  446DPPI   PO4 6910   1.719   2.571  10.296 -0.5134  0.0592  0.0471
  446DPPI   GL1 6911   1.493   2.382   9.939 -0.2898  0.1873 -0.2742
  446DPPI   GL2 6912   1.732   2.271   9.842  0.0239  0.0363  0.0487
  446DPPI   C1A 6913   1.646   2.127   9.408  0.1044 -0.0744  0.0191
  446DPPI   C2A 6914   1.676   2.208   8.997  0.1161  0.0251  0.3111
  446DPPI   C3A 6915   1.646   2.275   8.557 -0.0329 -0.2336  0.1739
  446DPPI   C4A 6916   1.723   2.278   8.105 -0.1196 -0.0140 -0.1679
  446DPPI   C1B 6917   1.967   1.978   9.720  0.0165  0.3681  0.2826
  446DPPI   C2B 6918   2.129   1.848   9.264  0.0073  0.1454 -0.1715
  446DPPI   C3B 6919   2.179   2.050   8.859 -0.1089 -0.1703  0.2539
  446DPPI   C4B 6920   2.016   1.972   8.472 -0.1348  0.1044  0.1310
  447DPPI    C1 6921  16.929  10.455  10.482 -0.3469  0.0115 -0.2474
  447DPPI    C2 6922  16.683  10.375  10.787  0.0398  0.0247  0.0773
  447DPPI    C3 6923  17.064  10.256  10.802  0.1626  0.3609 -0.2344
  447DPPI   PO4 6924  16.780  10.448  10.246  0.4195  0.3398  0.1032
  447DPPI   GL1 6925  16.739  10.361   9.866 -0.1215  0.2350 -0.3106
  447DPPI   GL2 6926  16.920  10.641   9.751  0.0386  0.1368 -0.0422
  447DPPI   C1A 6927  16.620  10.223   9.512  0.1425  0.0023  0.0835
  447DPPI   C2A 6928  16.522  10.256   9.093 -0.0392 -0.0871  0.2707
  447DPPI   C3A 6929  16.391  10.029   8.724 -0.1073  0.0035 -0.3368
  447DPPI   C4A 6930  16.386   9.750   8.190 -0.0168 -0.2846 -0.1689
  447DPPI   C1B 6931  16.948  10.628   9.335  0.0677  0.0367  0.1610
  447DPPI   C2B 6932  16.987  10.570   8.970  0.0397  0.1605 -0.0213
  447DPPI   C3B 6933  16.816  10.363   8.628 -0.0692 -0.0532  0.3283
  447DPPI   C4B 6934  16.596  10.233   8.268 -0.0170  0.3071 -0.1529
  448DPPI    C1 6935  11.342  16.567  10.091 -0.0491 -0.1377 -0.1359
  448DPPI    C2 6936  11.287  16.249  10.329  0.1431  0.2110  0.3927
  448DPPI    C3 6937  11.351  16.610  10.489  0.3555  0.4473 -0.1966
  448DPPI   PO4 6938  11.534  16.486   9.892 -0.1057  0.2216 -0.0216
  448DPPI   GL1 6939  11.462  16.410   9.448  0.0979 -0.0354 -0.1091
  448DPPI   GL2 6940  11.421  16.137   9.492 -0.0300  0.3311 -0.2476
  448DPPI   C1A 6941  11.395  16.359   8.986 -0.1996 -0.1625 -0.2641
  448DPPI   C2A 6942  11.290  16.578   8.674  0.1226 -0.1815  0.0584
  448DPPI   C3A 6943  11.272  16.879   8.284 -0.0340 -0.1191  0.0788
  448DPPI   C4A 6944  11.184  17.195   8.045 -0.1174 -0.0715  0.1857
  448DPPI   C1B 6945  10.970  15.973   9.186 -0.0608 -0.3000  0.0037
  448DPPI   C2B 6946  11.016  16.065   8.812 -0.0683 -0.0337  0.0953
  448DPPI   C3B 6947  11.005  16.098   8.318 -0.1352 -0.1870 -0.1250
  448DPPI   C4B 6948  11.056  16.408   8.058 -0.0327  0.0271 -0.1562
  449DPPI    C1 6949  14.992  16.051  10.304  0.1159  0.1626  0.1872
  449DPPI    C2 6950  15.186  15.784  10.530  0.1347  0.0729  0.0659
  449DPPI    C3 6951  14.854  15.959  10.668  0.0124 -0.1575  0.0706
  449DPPI   PO4 6952  15.093  15.998  10.084 -0.1458 -0.4285 -0.0701
  449DPPI   GL1 6953  15.015  15.894   9.633 -0.0994 -0.0886 -0.0157
  449DPPI   GL2 6954  14.910  15.603   9.499  0.3381  0.0929  0.2565
  449DPPI   C1A 6955  14.739  15.949   9.196 -0.1070  0.1988 -0.0238
  449DPPI   C2A 6956  14.770  15.659   8.916 -0.0269 -0.1967  0.3410
  449DPPI   C3A 6957  14.562  15.564   8.543 -0.0779  0.1052  0.1061
  449DPPI   C4A 6958  14.338  15.532   8.149  0.1679  0.1402  0.2582
  449DPPI   C1B 6959  15.162  15.567   9.176 -0.0237  0.0735  0.2052
  449DPPI   C2B 6960  15.253  15.551   8.749 -0.1591 -0.2081 -0.0053
  449DPPI   C3B 6961  15.306  15.675   8.380 -0.3246 -0.2420  0.0186
  449DPPI   C4B 6962  15.414  15.779   8.038  0.3714  0.0411 -0.3201
  450DPPI    C1 6963  10.876   7.323  10.314 -0.4759  0.1613 -0.4940
  450DPPI    C2 6964  10.512   7.233  10.453 -0.1078 -0.1072  0.3631
  450DPPI    C3 6965  10.706   7.553  10.594  0.0955 -0.1148  0.1070
  450DPPI   PO4 6966  10.888   7.282  10.058  0.2270  0.1588 -0.0858
  450DPPI   GL1 6967  10.507   7.206   9.795 -0.4812  0.0166 -0.2414
  450DPPI   GL2 6968  10.338   7.111   9.987  0.1313  0.0792  0.2717
  450DPPI   C1A 6969  10.641   6.930   9.457 -0.0179 -0.1128 -0.2797
  450DPPI   C2A 6970  10.664   7.043   9.040 -0.0038 -0.0976 -0.1311
  450DPPI   C3A 6971  10.507   7.087   8.552  0.1398 -0.1669  0.1012
  450DPPI   C4A 6972  10.773   6.800   8.303 -0.0316  0.2855  0.2233
  450DPPI   C1B 6973  10.046   6.824   9.688 -0.2270 -0.0074  0.1925
  450DPPI   C2B 6974   9.823   6.715   9.344  0.3708 -0.1967 -0.1613
  450DPPI   C3B 6975   9.638   6.830   8.973 -0.0427 -0.0519  0.1353
  450DPPI   C4B 6976   9.355   6.758   8.609  0.0100 -0.1156 -0.1868
  451DPPI    C1 6977   9.880   6.467  10.783  0.0777 -0.0035  0.0232
  451DPPI    C2 6978   9.998   6.092  10.855 -0.3083 -0.1371 -0.0174
  451DPPI    C3 6979  10.259   6.393  10.887  0.0206 -0.4131 -0.0427
  451DPPI   PO4 6980   9.743   6.415  10.467  0.2132 -0.2122  0.0027
  451DPPI   GL1 6981   9.693   6.195  10.151 -0.0286 -0.1702  0.1690
  451DPPI   GL2 6982   9.895   6.372   9.884  0.2672  0.0248  0.2247
  451DPPI   C1A 6983   9.561   5.932   9.788  0.3152  0.1363 -0.0706
  451DPPI   C2A 6984   9.523   5.864   9.395  0.3015  0.2776  0.0135
  451DPPI   C3A 6985   9.506   5.901   8.883  0.0611  0.3604  0.1591
  451DPPI   C4A 6986   9.730   5.780   8.576  0.1903 -0.0638 -0.0709
  451DPPI   C1B 6987   9.801   6.274   9.440  0.0996  0.0442 -0.3974
  451DPPI   C2B 6988   9.836   6.339   8.982 -0.2584 -0.3519  0.1707
  451DPPI   C3B 6989   9.793   6.380   8.576 -0.2609  0.0290  0.0032
  451DPPI   C4B 6990   9.541   6.551   8.224  0.0484 -0.1097 -0.1925
  452DPPI    C1 6991  13.605   8.002  10.222 -0.0449 -0.0720 -0.1934
  452DPPI    C2 6992  13.319   7.724  10.197  0.0214 -0.1326 -0.2832
  452DPPI    C3 6993  13.260   8.085  10.036 -0.0907 -0.0722 -0.1089
  452DPPI   PO4 6994  13.786   7.813  10.168  0.0921 -0.1463 -0.2079
  452DPPI   GL1 6995  14.230   8.006   9.929 -0.0053  0.2250 -0.1550
  452DPPI   GL2 6996  14.526   7.936   9.972 -0.1931 -0.0644  0.0818
  452DPPI   C1A 6997  14.036   7.836   9.600 -0.0445  0.0511 -0.0195
  452DPPI   C2A 6998  13.995   7.815   9.212 -0.0710 -0.0562 -0.2728
  452DPPI   C3A 6999  13.895   7.797   8.786  0.0913  0.0294  0.0124
  452DPPI   C4A 7000  13.681   7.757   8.335  0.0901 -0.3582 -0.1686
  452DPPI   C1B 7001  14.537   7.864   9.514 -0.0035 -0.0646  0.0508
  452DPPI   C2B 7002  14.446   8.009   9.093 -0.0478  0.1320 -0.0771
  452DPPI   C3B 7003  14.330   8.149   8.766 -0.1222 -0.0209  0.2052
  452DPPI   C4B 7004  14.076   8.101   8.443  0.0249  0.1468  0.1253
  453DPPI    C1 7005  18.057   2.101  10.765 -0.0278  0.2681 -0.0941
  453DPPI    C2 7006  17.944   2.089  11.148 -0.1410  0.0319 -0.1338
  453DPPI    C3 7007  18.254   1.868  11.024 -0.3761 -0.2316 -0.2642
  453DPPI   PO4 7008  17.760   2.023  10.623  0.0887 -0.0817  0.1263
  453DPPI   GL1 7009  17.603   2.049  10.233  0.1162  0.0994  0.0581
  453DPPI   GL2 7010  17.358   2.016  10.121  0.1387  0.2518  0.3237
  453DPPI   C1A 7011  17.814   2.284   9.892 -0.1284 -0.1958  0.0073
  453DPPI   C2A 7012  17.783   2.283   9.415  0.2118 -0.0830  0.0059
  453DPPI   C3A 7013  17.660   2.304   9.060  0.1744 -0.3151  0.0180
  453DPPI   C4A 7014  17.313   2.480   8.762  0.0438  0.2480 -0.0451
  453DPPI   C1B 7015  17.366   1.724   9.844 -0.2605  0.2733  0.1216
  453DPPI   C2B 7016  17.605   1.741   9.490 -0.2381 -0.0655  0.0939
  453DPPI   C3B 7017  17.631   1.793   9.095  0.1931  0.2606  0.0533
  453DPPI   C4B 7018  17.766   1.722   8.732  0.3415 -0.0528  0.1450
  454DPPI    C1 7019  12.509   2.924  10.418 -0.0305  0.1393 -0.2919
  454DPPI    C2 7020  12.424   3.030  10.794 -0.0844  0.3205 -0.3540
  454DPPI    C3 7021  12.584   2.671  10.719 -0.1336  0.2576 -0.1654
  454DPPI   PO4 7022  12.443   2.978  10.324  0.4520 -0.0118 -0.0821
  454DPPI   GL1 7023  12.590   3.219  10.002 -0.0104 -0.1647  0.4036
  454DPPI   GL2 7024  12.294   3.173   9.879 -0.0240 -0.1641 -0.1722
  454DPPI   C1A 7025  12.989   3.022   9.775  0.0981  0.0052  0.0728
  454DPPI   C2A 7026  13.087   3.118   9.338 -0.0336  0.1578 -0.4448
  454DPPI   C3A 7027  13.169   3.164   8.922 -0.0420  0.0423  0.0115
  454DPPI   C4A 7028  13.402   3.493   8.763 -0.0963  0.0329  0.1144
  454DPPI   C1B 7029  12.022   3.220   9.495 -0.2451  0.0829  0.0603
  454DPPI   C2B 7030  11.871   3.051   9.183  0.0235  0.2404  0.0548
  454DPPI   C3B 7031  11.725   3.102   8.770  0.0708 -0.1051  0.0658
  454DPPI   C4B 7032  11.613   3.045   8.302 -0.0965  0.0854  0.0379
  455DPPI    C1 7033  15.112  10.969  10.614  0.1345 -0.0553  0.2198
  455DPPI    C2 7034  15.399  11.155  10.407 -0.1066 -0.0340 -0.1027
  455DPPI    C3 7035  15.485  10.986  10.760  0.2549  0.1413 -0.1017
  455DPPI   PO4 7036  14.928  10.925  10.311 -0.2629 -0.1595  0.0708
  455DPPI   GL1 7037  14.849  10.712  10.018 -0.4741 -0.0698 -0.1855
  455DPPI   GL2 7038  14.609  10.505  10.074 -0.2609  0.0463  0.0902
  455DPPI   C1A 7039  14.666  10.740   9.551 -0.1774  0.2395  0.0301
  455DPPI   C2A 7040  14.486  10.814   9.125  0.0675  0.1272 -0.0134
  455DPPI   C3A 7041  14.510  10.930   8.768 -0.1928  0.2472 -0.1464
  455DPPI   C4A 7042  14.507  10.913   8.412 -0.1446  0.3369  0.2785
  455DPPI   C1B 7043  14.611  10.201   9.734 -0.1825  0.0710 -0.4651
  455DPPI   C2B 7044  14.724  10.161   9.357  0.0732 -0.0030 -0.0977
  455DPPI   C3B 7045  14.653  10.354   9.013 -0.1713 -0.1137 -0.1474
  455DPPI   C4B 7046  14.517  10.461   8.611  0.1538  0.1601 -0.0623
  456DPPI    C1 7047  16.719   4.156  10.228  0.2419  0.1931 -0.0372
  456DPPI    C2 7048  16.833   4.000  10.579  0.1489  0.0199 -0.0825
  456DPPI    C3 7049  16.923   4.380  10.489 -0.2751  0.2337  0.3482
  456DPPI   PO4 7050  16.485   4.105  10.176  0.1564 -0.0036  0.1942
  456DPPI   GL1 7051  16.208   3.902   9.861 -0.0280  0.4042  0.0649
  456DPPI   GL2 7052  16.491   3.771   9.759 -0.0786  0.1939 -0.0613
  456DPPI   C1A 7053  16.138   4.030   9.510  0.0215  0.0186 -0.2120
  456DPPI   C2A 7054  16.104   4.087   9.135  0.2522 -0.1710 -0.1408
  456DPPI   C3A 7055  16.078   4.020   8.766  0.1332 -0.0379 -0.0936
  456DPPI   C4A 7056  15.975   4.098   8.424 -0.1213 -0.1742 -0.0838
  456DPPI   C1B 7057  16.559   3.838   9.273  0.0076 -0.0775  0.0175
  456DPPI   C2B 7058  16.522   3.830   8.845 -0.1934  0.0787 -0.0548
  456DPPI   C3B 7059  16.426   3.876   8.362  0.0140 -0.2874 -0.1673
  456DPPI   C4B 7060  16.506   3.980   7.947 -0.1813  0.0001 -0.0356
  457DPPI    C1 7061   5.103   8.886  10.095 -0.2610  0.3044  0.1644
  457DPPI    C2 7062   5.463   9.058  10.062 -0.1373 -0.0165 -0.2332
  457DPPI    C3 7063   5.404   8.768  10.331 -0.1549  0.1682 -0.0358
  457DPPI   PO4 7064   5.016   8.869   9.787 -0.2922 -0.2446 -0.2776
  457DPPI   GL1 7065   4.812   8.756   9.389  0.0379 -0.4868 -0.1261
  457DPPI   GL2 7066   4.584   8.558   9.322 -0.2096  0.0424  0.1138
  457DPPI   C1A 7067   5.046   8.466   9.143  0.1337  0.3468  0.2443
  457DPPI   C2A 7068   5.203   8.572   8.767 -0.0255  0.0037  0.0743
  457DPPI   C3A 7069   5.341   8.629   8.375  0.0497  0.1858  0.1517
  457DPPI   C4A 7070   5.716   8.615   8.093 -0.0611 -0.2187 -0.0574
  457DPPI   C1B 7071   4.690   8.707   8.892  0.2312 -0.0252 -0.1116
  457DPPI   C2B 7072   4.749   8.702   8.427 -0.0351  0.0326  0.0039
  457DPPI   C3B 7073   4.811   8.521   8.035  0.1931  0.1588  0.1615
  457DPPI   C4B 7074   4.752   8.281   7.722 -0.2095  0.1616 -0.0422
  458DPPI    C1 7075  16.183   2.161  10.903  0.0338  0.0706  0.0576
  458DPPI    C2 7076  15.796   2.152  11.005  0.0317 -0.0583  0.0400
  458DPPI    C3 7077  16.078   2.123  11.287  0.0261 -0.3851  0.0157
  458DPPI   PO4 7078  16.150   2.001  10.539 -0.1844  0.2163 -0.3397
  458DPPI   GL1 7079  16.041   1.996  10.108 -0.1345 -0.1510 -0.1636
  458DPPI   GL2 7080  16.187   1.757  10.152  0.1330  0.0450 -0.0547
  458DPPI   C1A 7081  15.963   2.085   9.715  0.0320 -0.2215  0.0764
  458DPPI   C2A 7082  15.911   1.988   9.304  0.1849  0.3485 -0.3601
  458DPPI   C3A 7083  15.867   1.949   8.867  0.0843  0.1782 -0.0109
  458DPPI   C4A 7084  15.698   1.845   8.491  0.0003  0.4872 -0.0465
  458DPPI   C1B 7085  16.094   1.522   9.813  0.1332  0.1014 -0.3433
  458DPPI   C2B 7086  16.223   1.495   9.344 -0.3401  0.3571  0.0140
  458DPPI   C3B 7087  16.203   1.588   8.917  0.0730 -0.0620 -0.2039
  458DPPI   C4B 7088  16.231   1.421   8.489 -0.0636 -0.0042 -0.2105
  459DPPI    C1 7089  14.827   8.143  10.386  0.2882  0.0376 -0.0866
  459DPPI    C2 7090  14.884   8.418  10.671  0.1443  0.0862 -0.1036
  459DPPI    C3 7091  14.641   8.107  10.738  0.1309  0.0835 -0.1640
  459DPPI   PO4 7092  14.971   7.985  10.238  0.0004 -0.0421 -0.0175
  459DPPI   GL1 7093  15.120   7.888   9.908  0.1138  0.1734  0.0451
  459DPPI   GL2 7094  15.045   7.647   9.729 -0.1119  0.1153 -0.2437
  459DPPI   C1A 7095  15.023   8.026   9.506 -0.4028  0.0369  0.2379
  459DPPI   C2A 7096  14.990   8.135   9.084 -0.1378 -0.1253 -0.0706
  459DPPI   C3A 7097  14.896   8.178   8.725 -0.1124  0.1384  0.1700
  459DPPI   C4A 7098  14.630   8.043   8.362 -0.0885 -0.2390 -0.4028
  459DPPI   C1B 7099  14.898   7.612   9.251 -0.1440  0.0600 -0.4045
  459DPPI   C2B 7100  14.974   7.635   8.690  0.0713  0.3270 -0.0514
  459DPPI   C3B 7101  15.124   7.747   8.355  0.0620  0.0163  0.1440
  459DPPI   C4B 7102  15.217   8.106   8.128 -0.0758 -0.0077  0.1700
  460DPPI    C1 7103   1.186  13.413  10.317  0.2228  0.1730  0.1855
  460DPPI    C2 7104   0.823  13.502  10.460  0.1076  0.1543 -0.0893
  460DPPI    C3 7105   1.148  13.563  10.685 -0.0843 -0.0678  0.2561
  460DPPI   PO4 7106   1.063  13.142  10.205 -0.1510 -0.0536  0.0810
  460DPPI   GL1 7107   1.259  12.803  10.004  0.0156  0.2492 -0.1423
  460DPPI   GL2 7108   1.124  12.555   9.785 -0.0293  0.1021  0.3123
  460DPPI   C1A 7109   1.070  12.952   9.586  0.2062  0.0285 -0.1827
  460DPPI   C2A 7110   1.081  12.910   9.190 -0.0066 -0.1860 -0.2507
  460DPPI   C3A 7111   1.050  12.869   8.803 -0.1753  0.0494 -0.0497
  460DPPI   C4A 7112   1.211  12.636   8.538  0.1357  0.2838 -0.1106
  460DPPI   C1B 7113   1.173  12.494   9.404  0.0008  0.1576  0.0610
  460DPPI   C2B 7114   1.123  12.229   9.103  0.3412  0.0764 -0.4194
  460DPPI   C3B 7115   0.985  12.173   8.621 -0.0088 -0.0488 -0.2122
  460DPPI   C4B 7116   0.841  12.304   8.167 -0.2857  0.0112  0.0235
  461DPPI    C1 7117  11.560   2.002  10.418  0.2993 -0.0884  0.3169
  461DPPI    C2 7118  11.374   2.243  10.677  0.2197 -0.1078  0.2783
  461DPPI    C3 7119  11.500   1.882  10.795 -0.0367 -0.2162  0.2255
  461DPPI   PO4 7120  11.390   1.973  10.165  0.0112 -0.1820 -0.3615
  461DPPI   GL1 7121  11.540   1.833   9.864 -0.0229 -0.2070 -0.2270
  461DPPI   GL2 7122  11.799   1.664   9.818  0.0927 -0.0464 -0.0369
  461DPPI   C1A 7123  11.391   1.794   9.423 -0.1098 -0.0957 -0.2474
  461DPPI   C2A 7124  11.289   1.959   9.096  0.1636  0.0064  0.1116
  461DPPI   C3A 7125  11.066   1.794   8.713  0.0691 -0.1940  0.0676
  461DPPI   C4A 7126  11.221   1.655   8.352  0.4957 -0.1074  0.0811
  461DPPI   C1B 7127  11.777   1.480   9.487  0.0022  0.4027 -0.0191
  461DPPI   C2B 7128  11.672   1.422   9.158  0.0010  0.0014  0.4290
  461DPPI   C3B 7129  11.535   1.610   8.811  0.2306 -0.0093  0.1314
  461DPPI   C4B 7130  11.746   1.761   8.353  0.2879  0.2161 -0.2869
  462DPPI    C1 7131   8.904  15.185  10.151 -0.0932  0.2299  0.1394
  462DPPI    C2 7132   9.088  14.924  10.392 -0.2581 -0.0625 -0.0460
  462DPPI    C3 7133   8.719  14.847  10.258 -0.2236  0.1627 -0.2792
  462DPPI   PO4 7134   8.933  15.455  10.278  0.0618 -0.2269  0.3305
  462DPPI   GL1 7135   8.936  15.714   9.985 -0.1042 -0.0020 -0.4544
  462DPPI   GL2 7136   9.187  15.748   9.754 -0.0321 -0.3025  0.1241
  462DPPI   C1A 7137   8.905  15.473   9.501  0.0251  0.2467 -0.1069
  462DPPI   C2A 7138   8.648  15.414   9.141 -0.2447 -0.0081  0.1053
  462DPPI   C3A 7139   8.424  15.554   8.891 -0.0267  0.1861 -0.2474
  462DPPI   C4A 7140   8.476  15.711   8.507 -0.1671  0.1619  0.0541
  462DPPI   C1B 7141   9.313  15.720   9.417 -0.2100 -0.5416 -0.0365
  462DPPI   C2B 7142   9.185  15.538   9.062 -0.0042  0.1021  0.2107
  462DPPI   C3B 7143   8.965  15.587   8.712 -0.0514 -0.1366  0.0814
  462DPPI   C4B 7144   8.943  15.547   8.370  0.1329  0.5831  0.2807
  463DPPI    C1 7145  13.596   9.545  10.730  0.0601  0.1039 -0.0810
  463DPPI    C2 7146  13.686   9.281  11.016 -0.0054  0.2454  0.0720
  463DPPI    C3 7147  13.978   9.445  10.796  0.0508  0.1855  0.1017
  463DPPI   PO4 7148  13.409   9.528  10.607 -0.0340  0.1911 -0.1085
  463DPPI   GL1 7149  13.277   9.545  10.153  0.3195  0.1172  0.2183
  463DPPI   GL2 7150  13.271   9.797   9.984  0.1307  0.1666 -0.0223
  463DPPI   C1A 7151  13.449   9.259   9.767 -0.2028 -0.1512  0.0738
  463DPPI   C2A 7152  13.450   9.257   9.281 -0.1192 -0.3081 -0.0838
  463DPPI   C3A 7153  13.360   9.284   8.875  0.1048  0.1911  0.2370
  463DPPI   C4A 7154  13.128   9.391   8.606 -0.2812  0.2323 -0.2660
  463DPPI   C1B 7155  13.393   9.782   9.595 -0.0189  0.1034  0.1027
  463DPPI   C2B 7156  13.500   9.862   9.233  0.1418 -0.3215 -0.1553
  463DPPI   C3B 7157  13.784  10.052   9.000  0.0227  0.2406 -0.6143
  463DPPI   C4B 7158  14.099  10.054   8.609 -0.0774  0.0403  0.0382
  464DPPI    C1 7159  10.898   9.458  10.573  0.1992 -0.0357 -0.0040
  464DPPI    C2 7160  11.025   9.720  10.848 -0.0407  0.3330 -0.2351
  464DPPI    C3 7161  10.680   9.524  10.901  0.0761  0.1547 -0.1223
  464DPPI   PO4 7162  10.838   9.533  10.368 -0.3005  0.3018 -0.0182
  464DPPI   GL1 7163  10.750   9.377   9.986  0.1547 -0.0524 -0.1401
  464DPPI   GL2 7164  11.157   9.471  10.018  0.0189 -0.0275  0.3228
  464DPPI   C1A 7165  10.695   9.249   9.572 -0.0165 -0.2727 -0.1173
  464DPPI   C2A 7166  10.601   9.106   9.250 -0.0676  0.0168 -0.0730
  464DPPI   C3A 7167  10.603   9.049   8.790 -0.0914  0.1914 -0.0576
  464DPPI   C4A 7168  10.651   9.085   8.372 -0.0432 -0.1197 -0.1587
  464DPPI   C1B 7169  11.185   9.422   9.653 -0.0169 -0.1431  0.1976
  464DPPI   C2B 7170  11.325   9.492   9.188  0.4996  0.1788 -0.2514
  464DPPI   C3B 7171  11.413   9.490   8.757 -0.0787 -0.1589  0.1402
  464DPPI   C4B 7172  11.378   9.751   8.295 -0.2125  0.0055 -0.0838
  465DPPI    C1 7173   6.239  10.158  10.163 -0.1168 -0.1633  0.0195
  465DPPI    C2 7174   6.086  10.048  10.516 -0.0447 -0.2908  0.0116
  465DPPI    C3 7175   6.483  10.056  10.463 -0.0578 -0.4093 -0.1097
  465DPPI   PO4 7176   6.118   9.957   9.993  0.3204  0.3250  0.1658
  465DPPI   GL1 7177   6.222   9.903   9.584 -0.0002  0.3685 -0.2452
  465DPPI   GL2 7178   6.496  10.046   9.556 -0.0013 -0.2365 -0.1537
  465DPPI   C1A 7179   6.018   9.965   9.250  0.0477 -0.1974 -0.3789
  465DPPI   C2A 7180   5.970   9.936   8.761  0.0476  0.1511  0.1572
  465DPPI   C3A 7181   6.001   9.865   8.318 -0.1175 -0.0354 -0.1523
  465DPPI   C4A 7182   6.039   9.607   7.917  0.1091  0.0937 -0.1880
  465DPPI   C1B 7183   6.473  10.087   9.207  0.2274 -0.0800  0.1837
  465DPPI   C2B 7184   6.469  10.164   8.843 -0.0592 -0.1033 -0.0159
  465DPPI   C3B 7185   6.260  10.303   8.415  0.1089 -0.2877  0.1065
  465DPPI   C4B 7186   6.471  10.505   8.141 -0.0029  0.0917  0.1210
  466DPPI    C1 7187   1.455   1.294  10.428  0.1618  0.1003  0.0587
  466DPPI    C2 7188   1.105   1.256  10.619  0.0632  0.0945 -0.1210
  466DPPI    C3 7189   1.421   1.040  10.735 -0.0709 -0.1144 -0.1408
  466DPPI   PO4 7190   1.306   1.305  10.159  0.1492 -0.0796  0.2146
  466DPPI   GL1 7191   1.176   1.560   9.836 -0.0928 -0.0574  0.4014
  466DPPI   GL2 7192   1.305   1.926   9.707 -0.1507 -0.0500  0.3595
  466DPPI   C1A 7193   1.089   1.417   9.446  0.0627 -0.0462 -0.1632
  466DPPI   C2A 7194   1.122   1.414   8.997  0.1233  0.0069  0.2231
  466DPPI   C3A 7195   1.111   1.608   8.635  0.2797 -0.1138 -0.0918
  466DPPI   C4A 7196   1.070   1.735   8.291 -0.1850  0.0953 -0.1903
  466DPPI   C1B 7197   1.238   1.903   9.301  0.3837 -0.0479 -0.5217
  466DPPI   C2B 7198   1.179   2.072   8.940 -0.0827 -0.0448 -0.1540
  466DPPI   C3B 7199   1.175   2.156   8.510  0.0254 -0.3793  0.0518
  466DPPI   C4B 7200   1.204   2.316   8.119  0.0299 -0.0840 -0.1036
  467DPPI    C1 7201  17.390  10.716  10.254 -0.0258  0.0034  0.0763
  467DPPI    C2 7202  17.265  10.782  10.629  0.0331  0.0020  0.0963
  467DPPI    C3 7203  17.654  10.722  10.555  0.0363  0.1104  0.0205
  467DPPI   PO4 7204  17.303  10.876  10.044  0.0786  0.2525 -0.4284
  467DPPI   GL1 7205  17.266  10.946   9.621 -0.0498 -0.0141  0.2600
  467DPPI   GL2 7206  17.276  11.226   9.567  0.1775 -0.1730  0.1400
  467DPPI   C1A 7207  17.439  10.726   9.214  0.0513  0.1972  0.1447
  467DPPI   C2A 7208  17.440  10.894   8.776  0.0031 -0.2414  0.0805
  467DPPI   C3A 7209  17.192  10.695   8.508 -0.0357 -0.0965 -0.1182
  467DPPI   C4A 7210  16.945  10.555   8.219 -0.2026 -0.1023 -0.2160
  467DPPI   C1B 7211  17.467  11.294   9.141  0.1072  0.0895  0.3272
  467DPPI   C2B 7212  17.458  11.396   8.696  0.0581 -0.0895  0.2743
  467DPPI   C3B 7213  17.505  11.360   8.335 -0.3050  0.2997  0.1168
  467DPPI   C4B 7214  17.654  11.137   7.870  0.1375 -0.0408  0.1746
  468DPPI    C1 7215   3.688   3.149  10.655  0.3467  0.4626 -0.1372
  468DPPI    C2 7216   3.646   3.437  10.930  0.2134  0.1388  0.1904
  468DPPI    C3 7217   3.816   3.089  11.029 -0.2298 -0.1459 -0.0196
  468DPPI   PO4 7218   3.409   3.280  10.456  0.0967 -0.1859 -0.1444
  468DPPI   GL1 7219   3.370   3.145   9.958 -0.0382  0.1424  0.1169
  468DPPI   GL2 7220   3.408   3.366   9.860 -0.2014 -0.0699  0.1783
  468DPPI   C1A 7221   3.384   2.628   9.853 -0.2935 -0.0901 -0.3259
  468DPPI   C2A 7222   3.331   2.578   9.443 -0.0544 -0.0993  0.2233
  468DPPI   C3A 7223   3.369   2.469   9.009  0.3656 -0.0240  0.1568
  468DPPI   C4A 7224   3.329   2.521   8.545  0.2750 -0.0887  0.2842
  468DPPI   C1B 7225   3.450   3.052   9.492 -0.1355  0.2681 -0.0790
  468DPPI   C2B 7226   3.672   2.846   9.119 -0.2618  0.2327 -0.1656
  468DPPI   C3B 7227   3.714   2.899   8.666 -0.0607  0.0259 -0.0064
  468DPPI   C4B 7228   4.112   2.834   8.427 -0.1733  0.0347  0.0609
  469DPPI    C1 7229  15.462  15.180  10.217  0.0750 -0.1259 -0.1438
  469DPPI    C2 7230  15.228  15.301  10.519 -0.1210  0.1564 -0.4027
  469DPPI    C3 7231  15.613  15.217  10.586 -0.1876  0.1124 -0.0560
  469DPPI   PO4 7232  15.412  15.349   9.964  0.1352  0.0448 -0.1016
  469DPPI   GL1 7233  15.197  15.237   9.716 -0.2819 -0.2008  0.3459
  469DPPI   GL2 7234  14.765  15.159   9.821  0.4503  0.1443  0.0980
  469DPPI   C1A 7235  15.402  15.138   9.319  0.0120  0.2164  0.0649
  469DPPI   C2A 7236  15.560  15.004   8.896  0.0517 -0.0511  0.2695
  469DPPI   C3A 7237  15.617  15.276   8.608  0.0900 -0.6545 -0.0839
  469DPPI   C4A 7238  15.725  15.391   8.165 -0.0990 -0.5003  0.2091
  469DPPI   C1B 7239  14.797  15.114   9.366 -0.3609 -0.0779 -0.0297
  469DPPI   C2B 7240  14.973  15.195   8.971  0.0152 -0.0166 -0.0345
  469DPPI   C3B 7241  14.951  15.191   8.531  0.1606 -0.0299  0.0317
  469DPPI   C4B 7242  14.699  15.114   8.179  0.2615  0.2548  0.2189
  470DPPI    C1 7243   6.510   6.290  10.597 -0.1522  0.0205 -0.3216
  470DPPI    C2 7244   6.656   6.658  10.536 -0.0512  0.0220 -0.0835
  470DPPI    C3 7245   6.290   6.610  10.692 -0.0002  0.0234  0.0372
  470DPPI   PO4 7246   6.515   6.129  10.363 -0.3314  0.0267  0.1454
  470DPPI   GL1 7247   6.615   6.027   9.959 -0.0191  0.2699 -0.1172
  470DPPI   GL2 7248   6.886   5.798   9.957 -0.0623  0.1141  0.1202
  470DPPI   C1A 7249   6.574   6.144   9.619  0.3170 -0.0700  0.0807
  470DPPI   C2A 7250   6.553   6.061   9.138 -0.1686  0.0357  0.4446
  470DPPI   C3A 7251   6.576   5.998   8.824  0.1160 -0.2693 -0.2808
  470DPPI   C4A 7252   6.643   6.084   8.406 -0.2117  0.0837  0.3319
  470DPPI   C1B 7253   6.970   5.813   9.529 -0.0149 -0.2389  0.0410
  470DPPI   C2B 7254   7.052   5.922   9.039  0.2367  0.2911  0.1776
  470DPPI   C3B 7255   7.028   5.838   8.582 -0.1271  0.0980  0.0030
  470DPPI   C4B 7256   7.101   5.852   8.141  0.1265 -0.3600 -0.1287
  471DPPI    C1 7257  14.524   9.489  10.791  0.1655 -0.2967  0.0204
  471DPPI    C2 7258  14.799   9.407  11.070  0.0438  0.0314  0.2431
  471DPPI    C3 7259  14.417   9.302  11.127  0.0498 -0.0627  0.1159
  471DPPI   PO4 7260  14.697   9.431  10.506  0.1361 -0.0105 -0.2490
  471DPPI   GL1 7261  14.571   9.167  10.209 -0.1997 -0.1966 -0.3857
  471DPPI   GL2 7262  14.218   9.089  10.129  0.0641 -0.1703  0.0322
  471DPPI   C1A 7263  14.557   9.170   9.795  0.2522  0.3273 -0.2268
  471DPPI   C2A 7264  14.307   9.427   9.517  0.3165  0.2582 -0.1745
  471DPPI   C3A 7265  14.343   9.338   9.155 -0.1104  0.2998  0.0476
  471DPPI   C4A 7266  14.606   9.261   8.846 -0.0768  0.0797 -0.0809
  471DPPI   C1B 7267  13.931   9.362   9.895 -0.0441 -0.1215  0.3521
  471DPPI   C2B 7268  13.837   9.556   9.464  0.0925  0.2514  0.1670
  471DPPI   C3B 7269  13.882   9.570   8.983  0.2482  0.0052  0.1661
  471DPPI   C4B 7270  14.186   9.473   8.667  0.2748  0.0500 -0.0575
  472DPPI    C1 7271  11.820   5.891  10.483 -0.1812  0.0110 -0.0846
  472DPPI    C2 7272  11.724   5.605  10.746 -0.1308  0.1209  0.0547
  472DPPI    C3 7273  11.776   5.981  10.870  0.3168  0.0962 -0.0413
  472DPPI   PO4 7274  11.620   5.896  10.245  0.2293 -0.0473 -0.2135
  472DPPI   GL1 7275  11.529   5.837   9.797  0.0920  0.0803 -0.4080
  472DPPI   GL2 7276  11.724   6.113   9.835  0.0854 -0.1276 -0.0066
  472DPPI   C1A 7277  11.273   5.683   9.529  0.2312 -0.3110  0.0003
  472DPPI   C2A 7278  11.396   5.516   9.207 -0.0227  0.2285  0.2043
  472DPPI   C3A 7279  11.303   5.488   8.763  0.0487  0.1217  0.0812
  472DPPI   C4A 7280  11.295   5.317   8.346 -0.0045 -0.1323 -0.0241
  472DPPI   C1B 7281  11.762   6.128   9.430 -0.3624 -0.0064  0.2620
  472DPPI   C2B 7282  11.692   6.270   8.931  0.0713  0.2561 -0.0102
  472DPPI   C3B 7283  11.716   6.036   8.593 -0.0603 -0.0494 -0.2408
  472DPPI   C4B 7284  12.036   5.849   8.378 -0.0260 -0.1190  0.2222
  473PYPI    C1 7285  13.833  17.009  10.479 -0.2626  0.1039  0.0294
  473PYPI    C2 7286  13.627  16.758  10.713  0.0792 -0.2164 -0.0027
  473PYPI    C3 7287  13.952  16.943  10.855  0.0090 -0.0328 -0.0777
  473PYPI   PO4 7288  13.858  16.825  10.243 -0.0156  0.2508  0.0114
  473PYPI   GL1 7289  13.982  16.807   9.841  0.2008 -0.0590  0.1065
  473PYPI   GL2 7290  14.161  16.660   9.744 -0.0961 -0.4407  0.1085
  473PYPI   C1A 7291  13.782  17.018   9.420 -0.0781  0.3498 -0.1264
  473PYPI   C2A 7292  13.743  17.105   8.947 -0.1587  0.0356  0.0240
  473PYPI   D3A 7293  13.705  17.206   8.469 -0.0243  0.0096  0.0196
  473PYPI   C4A 7294  13.895  17.054   8.161  0.5077 -0.0736 -0.1033
  473PYPI   C1B 7295  14.214  16.748   9.375 -0.0203 -0.1364  0.1186
  473PYPI   C2B 7296  14.177  16.858   9.001  0.2677 -0.0819 -0.2835
  473PYPI   C3B 7297  14.002  16.682   8.612  0.1943  0.2852 -0.0807
  473PYPI   C4B 7298  14.105  16.537   8.214 -0.1009 -0.0832  0.0705
  474PYPI    C1 7299   9.966  10.755  10.625 -0.2515  0.1638 -0.0280
  474PYPI    C2 7300  10.187  11.051  10.777 -0.2778  0.0727  0.1915
  474PYPI    C3 7301   9.949  10.836  11.016 -0.2377 -0.1440  0.0394
  474PYPI   PO4 7302   9.785  10.763  10.360 -0.0240 -0.2088 -0.2046
  474PYPI   GL1 7303  10.085  10.668  10.120  0.2691  0.1476 -0.4106
  474PYPI   GL2 7304   9.708  10.442   9.988 -0.2932 -0.3117  0.4133
  474PYPI   C1A 7305  10.228  10.600   9.718  0.1615  0.0493  0.0841
  474PYPI   C2A 7306  10.426  10.619   9.308  0.2339 -0.0324 -0.2959
  474PYPI   D3A 7307  10.438  10.442   8.973  0.2483 -0.1472  0.1371
  474PYPI   C4A 7308  10.430  10.650   8.624 -0.0748  0.2275  0.1343
  474PYPI   C1B 7309   9.500  10.597   9.659 -0.1143 -0.0309 -0.0010
  474PYPI   C2B 7310   9.659  10.691   9.267 -0.1833  0.3121  0.1067
  474PYPI   C3B 7311   9.977  10.638   8.934 -0.0408  0.0746 -0.1627
  474PYPI   C4B 7312  10.007  10.867   8.565  0.1392  0.1794  0.0696
  475PYPI    C1 7313   8.353   0.484  10.586  0.1176  0.1293 -0.1112
  475PYPI    C2 7314   8.506   0.175  10.789 -0.3745  0.0139  0.0979
  475PYPI    C3 7315   8.501   0.540  10.954 -0.0904  0.0724 -0.0174
  475PYPI   PO4 7316   8.398   0.333  10.311  0.2305 -0.0248 -0.0398
  475PYPI   GL1 7317   8.118   0.370   9.935 -0.1426  0.1097 -0.0514
  475PYPI   GL2 7318   7.864   0.555   9.841  0.1701  0.2298 -0.0297
  475PYPI   C1A 7319   8.250   0.486   9.565  0.2206  0.2443 -0.3171
  475PYPI   C2A 7320   8.237   0.568   9.097  0.1566  0.0907  0.1663
  475PYPI   D3A 7321   8.071   0.888   8.811  0.0725 -0.0351 -0.1798
  475PYPI   C4A 7322   8.097   0.925   8.338 -0.5612 -0.0924  0.0460
  475PYPI   C1B 7323   7.806   0.559   9.317 -0.1355  0.2356 -0.2314
  475PYPI   C2B 7324   7.663   0.595   8.942 -0.2809  0.0376 -0.3546
  475PYPI   C3B 7325   7.632   0.789   8.556  0.0978 -0.1527 -0.2783
  475PYPI   C4B 7326   7.579   0.863   8.113 -0.4202 -0.3493 -0.2954
  476PYPI    C1 7327  12.907  16.739  10.376 -0.2537  0.0220  0.0414
  476PYPI    C2 7328  12.767  16.376  10.285  0.0033 -0.0006 -0.2796
  476PYPI    C3 7329  13.074  16.414  10.538 -0.2013  0.0128 -0.0303
  476PYPI   PO4 7330  12.679  16.920  10.209  0.0906 -0.1336 -0.2977
  476PYPI   GL1 7331  12.451  16.855   9.773 -0.1838 -0.1613  0.3178
  476PYPI   GL2 7332  12.735  16.634   9.741  0.0395  0.0698  0.3405
  476PYPI   C1A 7333  12.330  16.868   9.334 -0.1119  0.1916 -0.3390
  476PYPI   C2A 7334  12.316  16.935   8.892  0.0840 -0.1028 -0.2082
  476PYPI   D3A 7335  12.230  17.046   8.548 -0.2850 -0.0431 -0.1168
  476PYPI   C4A 7336  12.505  17.294   8.268 -0.3290 -0.2142  0.0459
  476PYPI   C1B 7337  12.731  16.614   9.305 -0.0527 -0.1952 -0.1997
  476PYPI   C2B 7338  12.905  16.639   8.900 -0.2950 -0.1961  0.0086
  476PYPI   C3B 7339  13.053  16.441   8.525 -0.2511 -0.0557  0.2006
  476PYPI   C4B 7340  13.332  16.242   8.107  0.0619  0.2175 -0.2727
  477PYPI    C1 7341  10.433  11.522  10.308 -0.0996 -0.0881 -0.1842
  477PYPI    C2 7342  10.365  11.913  10.362 -0.1253 -0.1144 -0.0247
  477PYPI    C3 7343  10.090  11.686  10.181 -0.1179 -0.0620 -0.1015
  477PYPI   PO4 7344  10.620  11.453  10.136  0.0851  0.1651 -0.2672
  477PYPI   GL1 7345  10.738  11.369   9.824  0.1105 -0.1393 -0.3906
  477PYPI   GL2 7346  11.041  11.326   9.666 -0.3229 -0.2201  0.0832
  477PYPI   C1A 7347  10.719  11.556   9.372 -0.1386  0.2716  0.1239
  477PYPI   C2A 7348  10.872  11.900   8.976 -0.0651 -0.0733 -0.0163
  477PYPI   D3A 7349  10.958  12.017   8.505 -0.5153  0.0060  0.1993
  477PYPI   C4A 7350  11.416  12.008   8.686  0.2063 -0.0072 -0.0744
  477PYPI   C1B 7351  11.004  11.202   9.215 -0.1208 -0.1340  0.0736
  477PYPI   C2B 7352  10.921  11.441   8.894  0.2968  0.0979  0.0233
  477PYPI   C3B 7353  10.825  11.465   8.497  0.3343 -0.2837 -0.2075
  477PYPI   C4B 7354  10.960  11.523   8.027 -0.1710 -0.2328 -0.0803
  478PYPI    C1 7355   7.248  16.630  10.510 -0.2442 -0.0177  0.0551
  478PYPI    C2 7356   7.137  16.308  10.719  0.1659 -0.1523  0.0731
  478PYPI    C3 7357   7.198  16.656  10.906  0.0032 -0.1353  0.0957
  478PYPI   PO4 7358   7.157  16.683  10.293 -0.0422  0.0482  0.1550
  478PYPI   GL1 7359   7.197  16.736   9.783  0.2547  0.2529 -0.3094
  478PYPI   GL2 7360   7.373  16.898   9.881  0.5166 -0.2471  0.3181
  478PYPI   C1A 7361   7.002  16.817   9.405  0.1101  0.0051  0.2495
  478PYPI   C2A 7362   7.047  16.920   8.997  0.0547 -0.0404  0.3554
  478PYPI   D3A 7363   7.058  16.803   8.550  0.0658  0.2471 -0.0837
  478PYPI   C4A 7364   6.928  16.519   8.263 -0.0747 -0.0918  0.3026
  478PYPI   C1B 7365   7.441  17.056   9.436 -0.0577  0.1376  0.1089
  478PYPI   C2B 7366   7.476  17.229   9.061 -0.0423  0.1466 -0.1043
  478PYPI   C3B 7367   7.483  17.182   8.630 -0.1761 -0.2773  0.0263
  478PYPI   C4B 7368   7.509  17.348   8.186  0.2013 -0.0473 -0.0011
  479PYPI    C1 7369   4.907   0.852  10.983 -0.0064  0.0987  0.1480
  479PYPI    C2 7370   4.968   1.225  11.114 -0.0027  0.1875 -0.1025
  479PYPI    C3 7371   4.920   0.927  11.376 -0.0374  0.3681  0.0995
  479PYPI   PO4 7372   4.719   0.824  10.870  0.0709  0.0316  0.1731
  479PYPI   GL1 7373   4.437   1.001  10.588  0.1923  0.2426 -0.2046
  479PYPI   GL2 7374   4.481   0.677  10.398  0.0920  0.2064 -0.1788
  479PYPI   C1A 7375   4.256   1.167  10.231 -0.1582  0.0399  0.1064
  479PYPI   C2A 7376   4.024   1.504  10.119 -0.1010 -0.1414 -0.1525
  479PYPI   D3A 7377   4.118   1.861   9.960  0.2501 -0.1819 -0.1806
  479PYPI   C4A 7378   4.530   1.935   9.998  0.2310  0.1130 -0.2253
  479PYPI   C1B 7379   4.248   0.657  10.046  0.1794 -0.0037 -0.0701
  479PYPI   C2B 7380   3.974   0.983   9.899 -0.1843 -0.0197 -0.0529
  479PYPI   C3B 7381   3.849   1.085   9.595 -0.2652 -0.0434 -0.1310
  479PYPI   C4B 7382   3.990   1.230   9.205 -0.0181 -0.0326  0.0801
  480PYPI    C1 7383  17.562  11.443   9.977  0.0498 -0.0930  0.0249
  480PYPI    C2 7384  17.624  11.527  10.363 -0.0806  0.1781 -0.0109
  480PYPI    C3 7385  17.718  11.166  10.219 -0.0370  0.0734  0.2750
  480PYPI   PO4 7386  17.263  11.531   9.949  0.0657  0.0823 -0.1714
  480PYPI   GL1 7387  16.905  11.474   9.768  0.2131 -0.0852  0.0002
  480PYPI   GL2 7388  16.876  11.173   9.884 -0.1907  0.2307 -0.0887
  480PYPI   C1A 7389  16.973  11.564   9.309  0.1062  0.1619  0.2878
  480PYPI   C2A 7390  17.008  11.674   8.879 -0.2053  0.0456  0.2122
  480PYPI   D3A 7391  17.090  11.670   8.431 -0.2077 -0.1774 -0.0676
  480PYPI   C4A 7392  17.106  12.038   8.139  0.0417  0.1447 -0.1984
  480PYPI   C1B 7393  16.751  11.109   9.461 -0.0300  0.0529 -0.0006
  480PYPI   C2B 7394  17.018  11.089   8.971  0.0231  0.1908  0.0682
  480PYPI   C3B 7395  17.049  11.217   8.563  0.0299  0.0886 -0.0981
  480PYPI   C4B 7396  17.139  11.053   8.164  0.0097  0.3677  0.0324
  481PYPI    C1 7397   4.518  11.437  10.180 -0.1538 -0.0622 -0.1003
  481PYPI    C2 7398   4.339  11.258  10.490 -0.0592 -0.0378 -0.0309
  481PYPI    C3 7399   4.343  11.080  10.132 -0.2703 -0.0128 -0.0469
  481PYPI   PO4 7400   4.428  11.736  10.182  0.0702 -0.0373  0.0061
  481PYPI   GL1 7401   4.193  11.805   9.810 -0.1061  0.2823 -0.1699
  481PYPI   GL2 7402   3.933  11.749   9.639  0.1523 -0.4417  0.0328
  481PYPI   C1A 7403   4.345  12.014   9.518 -0.0586 -0.0974  0.1878
  481PYPI   C2A 7404   4.337  12.220   9.082 -0.1949  0.0126 -0.2408
  481PYPI   D3A 7405   4.391  12.165   8.605 -0.1100  0.0228 -0.0273
  481PYPI   C4A 7406   4.477  12.068   8.198 -0.0754  0.0300 -0.0253
  481PYPI   C1B 7407   3.861  11.861   9.217  0.1538  0.1903  0.4123
  481PYPI   C2B 7408   3.866  11.930   8.761  0.0254  0.1337  0.1494
  481PYPI   C3B 7409   3.979  11.992   8.342 -0.0143 -0.0694  0.1129
  481PYPI   C4B 7410   3.702  12.063   8.068 -0.0814 -0.2655 -0.2109
  482PYPI    C1 7411  12.120   7.202  10.558 -0.0777  0.0461 -0.0017
  482PYPI    C2 7412  12.375   7.048  10.825 -0.0475 -0.1684 -0.1521
  482PYPI    C3 7413  11.992   7.104  10.925 -0.0208 -0.1817 -0.0410
  482PYPI   PO4 7414  12.218   7.173  10.318  0.2597 -0.3138  0.0966
  482PYPI   GL1 7415  12.095   7.246   9.861 -0.3292  0.3496  0.3146
  482PYPI   GL2 7416  12.320   7.436   9.716 -0.0923  0.1174  0.3635
  482PYPI   C1A 7417  12.000   7.092   9.464 -0.1482  0.1601 -0.4031
  482PYPI   C2A 7418  12.010   7.264   9.125 -0.0213  0.0979 -0.1541
  482PYPI   D3A 7419  11.963   7.332   8.750 -0.1393 -0.0875 -0.2044
  482PYPI   C4A 7420  11.770   7.084   8.381 -0.1956  0.0325  0.1485
  482PYPI   C1B 7421  12.636   7.315   9.517 -0.1493  0.2015 -0.2318
  482PYPI   C2B 7422  12.823   7.427   9.099 -0.2238  0.1946  0.2543
  482PYPI   C3B 7423  12.848   7.586   8.639  0.2109 -0.0503 -0.4212
  482PYPI   C4B 7424  12.729   7.557   8.236 -0.2373  0.1060  0.3651
  483PYPI    C1 7425   1.722  10.599  10.057  0.2413 -0.3226  0.0116
  483PYPI    C2 7426   1.506  10.294  10.202 -0.0076 -0.0274  0.2778
  483PYPI    C3 7427   1.811  10.443  10.415  0.0575 -0.0317  0.1883
  483PYPI   PO4 7428   1.762  10.550   9.815 -0.1023 -0.2113 -0.0773
  483PYPI   GL1 7429   1.599  10.586   9.480  0.0205 -0.0802  0.0646
  483PYPI   GL2 7430   1.559  11.016   9.434  0.0074  0.0512  0.1243
  483PYPI   C1A 7431   1.654  10.526   9.021  0.1535 -0.0882  0.0111
  483PYPI   C2A 7432   1.704  10.527   8.585  0.0300  0.0464  0.1301
  483PYPI   D3A 7433   1.666  10.609   8.208 -0.1102  0.0014 -0.2878
  483PYPI   C4A 7434   1.751  10.338   7.763 -0.2764  0.0947 -0.0722
  483PYPI   C1B 7435   1.664  11.052   8.962 -0.0419  0.1734  0.0387
  483PYPI   C2B 7436   1.608  11.079   8.484 -0.1243  0.1764  0.0007
  483PYPI   C3B 7437   1.565  11.123   8.068 -0.1527 -0.2027 -0.1673
  483PYPI   C4B 7438   1.487  11.107   7.575  0.0150 -0.1127 -0.4851
  484PYPI    C1 7439   4.612  14.985  10.432 -0.1070 -0.1377 -0.1557
  484PYPI    C2 7440   4.360  15.144  10.165  0.0396  0.2324 -0.0793
  484PYPI    C3 7441   4.314  15.223  10.554  0.1986  0.2017 -0.0534
  484PYPI   PO4 7442   4.862  15.046  10.235 -0.1107 -0.0836 -0.2043
  484PYPI   GL1 7443   4.984  15.142   9.734 -0.1109 -0.0963 -0.1582
  484PYPI   GL2 7444   4.926  15.523   9.803  0.2656 -0.0012 -0.3077
  484PYPI   C1A 7445   5.341  14.960   9.420 -0.2372 -0.2807 -0.0597
  484PYPI   C2A 7446   5.342  15.045   8.912 -0.1517  0.1082  0.1335
  484PYPI   D3A 7447   4.940  14.863   8.675 -0.3534 -0.2065 -0.2192
  484PYPI   C4A 7448   5.037  14.835   8.244 -0.0108  0.3229 -0.1913
  484PYPI   C1B 7449   4.890  15.427   9.328 -0.0379 -0.0499 -0.2813
  484PYPI   C2B 7450   4.943  15.449   8.882  0.3496  0.0662 -0.0328
  484PYPI   C3B 7451   5.263  15.351   8.564  0.1446  0.1218  0.1674
  484PYPI   C4B 7452   5.422  15.444   8.110 -0.1379 -0.2576 -0.2747
  485PYPI    C1 7453   6.662  13.470   9.944 -0.1801  0.0737  0.1094
  485PYPI    C2 7454   6.813  13.820  10.067  0.2357  0.0364 -0.2680
  485PYPI    C3 7455   6.928  13.479  10.242  0.0282  0.0638 -0.0736
  485PYPI   PO4 7456   6.345  13.627   9.877 -0.2836  0.0286  0.0787
  485PYPI   GL1 7457   6.082  13.690   9.601  0.1731 -0.0108 -0.3353
  485PYPI   GL2 7458   5.794  13.656   9.810  0.2315 -0.0494 -0.1285
  485PYPI   C1A 7459   6.135  13.597   9.220  0.0666 -0.2999 -0.1789
  485PYPI   C2A 7460   6.072  13.682   8.826 -0.2317  0.1046 -0.0305
  485PYPI   D3A 7461   5.983  13.732   8.388  0.1894 -0.0607  0.0180
  485PYPI   C4A 7462   6.316  13.916   8.153 -0.3555  0.2049  0.2253
  485PYPI   C1B 7463   5.779  13.338   9.477  0.0508 -0.0038  0.0011
  485PYPI   C2B 7464   5.822  13.165   9.059 -0.1365 -0.1058  0.1620
  485PYPI   C3B 7465   5.882  13.145   8.683  0.1489 -0.4401 -0.4362
  485PYPI   C4B 7466   5.991  13.052   8.328  0.0484  0.0204  0.2659
  486PYPI    C1 7467   8.347   3.298  10.148  0.0635  0.2249  0.0249
  486PYPI    C2 7468   8.255   3.477  10.494 -0.0408  0.1313  0.0466
  486PYPI    C3 7469   7.965   3.330  10.262  0.0401  0.0455 -0.0009
  486PYPI   PO4 7470   8.576   3.294  10.132 -0.1218 -0.1342 -0.1189
  486PYPI   GL1 7471   8.865   3.670  10.112 -0.4418  0.3744  0.1675
  486PYPI   GL2 7472   9.135   3.844  10.060  0.1755 -0.5799  0.0606
  486PYPI   C1A 7473   8.883   3.850   9.652 -0.1621 -0.0824 -0.4186
  486PYPI   C2A 7474   8.964   3.972   9.265 -0.0305 -0.0192  0.1596
  486PYPI   D3A 7475   9.039   3.875   8.849  0.2463  0.1738  0.1675
  486PYPI   C4A 7476   8.888   4.003   8.415  0.0940  0.0581  0.3598
  486PYPI   C1B 7477   9.363   3.981   9.655 -0.1910 -0.2187 -0.2783
  486PYPI   C2B 7478   9.450   3.992   9.239  0.1052 -0.1937  0.1053
  486PYPI   C3B 7479   9.500   4.074   8.924  0.2368  0.1931 -0.0129
  486PYPI   C4B 7480   9.435   3.969   8.525 -0.0829  0.1606 -0.0930
  487PYPI    C1 7481  16.429   2.851  10.491  0.0928  0.0130 -0.1001
  487PYPI    C2 7482  16.187   2.548  10.590  0.0013  0.1161 -0.0060
  487PYPI    C3 7483  16.580   2.522  10.661 -0.0273  0.0815  0.1432
  487PYPI   PO4 7484  16.358   2.922  10.269  0.2787  0.1318 -0.0287
  487PYPI   GL1 7485  16.500   2.960   9.786 -0.5533 -0.2721 -0.1139
  487PYPI   GL2 7486  16.447   3.298   9.819  0.2283  0.1239 -0.2724
  487PYPI   C1A 7487  16.532   2.920   9.294 -0.0545  0.2323  0.0309
  487PYPI   C2A 7488  16.511   2.920   8.778  0.2717 -0.0511  0.1592
  487PYPI   D3A 7489  16.409   2.875   8.266 -0.1449  0.0926  0.2446
  487PYPI   C4A 7490  16.756   2.754   8.065  0.2399  0.1402 -0.1048
  487PYPI   C1B 7491  16.411   3.393   9.425 -0.1127  0.0904 -0.0070
  487PYPI   C2B 7492  16.536   3.418   9.055  0.1081  0.2301  0.0652
  487PYPI   C3B 7493  16.592   3.392   8.569 -0.0193  0.3149  0.4268
  487PYPI   C4B 7494  16.745   3.211   8.264  0.0429  0.3512  0.0473
  488PYPI    C1 7495  15.694   5.786  10.353  0.3710 -0.0860  0.1204
  488PYPI    C2 7496  15.646   5.397  10.433 -0.2782 -0.0438 -0.0029
  488PYPI    C3 7497  15.583   5.669  10.719 -0.0025 -0.0150  0.0339
  488PYPI   PO4 7498  15.591   5.773  10.131 -0.0619  0.0562  0.1367
  488PYPI   GL1 7499  15.805   5.714   9.674  0.4667  0.1532 -0.1864
  488PYPI   GL2 7500  15.464   5.489   9.567  0.1272  0.0108 -0.0441
  488PYPI   C1A 7501  15.813   5.852   9.175 -0.2694 -0.0911 -0.0491
  488PYPI   C2A 7502  15.877   5.868   8.710  0.0811 -0.2300 -0.3831
  488PYPI   D3A 7503  15.763   5.636   8.310  0.1379  0.0717 -0.0164
  488PYPI   C4A 7504  15.718   5.696   7.841 -0.2295  0.0169 -0.0626
  488PYPI   C1B 7505  15.562   5.381   9.223 -0.2846 -0.0667 -0.2355
  488PYPI   C2B 7506  15.541   5.489   8.852 -0.0006 -0.0313 -0.0557
  488PYPI   C3B 7507  15.437   5.309   8.519  0.2330  0.0358  0.0755
  488PYPI   C4B 7508  15.350   5.465   8.124 -0.0519  0.0447 -0.0926
  489PYPI    C1 7509   3.948  16.146  10.469 -0.0467  0.1336 -0.0337
  489PYPI    C2 7510   4.154  15.949  10.749  0.0201  0.1181 -0.0935
  489PYPI    C3 7511   3.756  15.978  10.777  0.0365  0.2078  0.0591
  489PYPI   PO4 7512   3.999  16.122  10.272  0.0065  0.0325 -0.0797
  489PYPI   GL1 7513   3.771  15.985   9.836  0.2010 -0.0571 -0.1083
  489PYPI   GL2 7514   4.037  15.914   9.850  0.1862 -0.2072  0.0729
  489PYPI   C1A 7515   3.703  16.283   9.555  0.1635 -0.2537 -0.2286
  489PYPI   C2A 7516   3.683  16.263   9.158  0.0307  0.0679 -0.0386
  489PYPI   D3A 7517   3.522  16.337   8.783  0.2152 -0.1012  0.1564
  489PYPI   C4A 7518   3.752  16.699   8.551 -0.1041  0.1911  0.0726
  489PYPI   C1B 7519   4.214  16.216   9.636 -0.0561  0.0051  0.1285
  489PYPI   C2B 7520   4.148  16.582   9.336 -0.1199 -0.0995 -0.0118
  489PYPI   C3B 7521   4.321  16.873   9.018 -0.3335  0.3711  0.1408
  489PYPI   C4B 7522   4.371  16.933   8.590 -0.2573 -0.0420 -0.0300
  490PYPI    C1 7523  10.779  16.243  10.321 -0.0129 -0.1592 -0.2202
  490PYPI    C2 7524  10.508  15.979  10.190 -0.2177 -0.0404 -0.0410
  490PYPI    C3 7525  10.427  16.209  10.508  0.1276 -0.0638  0.0675
  490PYPI   PO4 7526  10.818  16.419  10.180 -0.0161 -0.0919  0.3200
  490PYPI   GL1 7527  10.964  16.547   9.716  0.0442  0.3204 -0.0063
  490PYPI   GL2 7528  10.968  16.385   9.439 -0.1781  0.2561  0.0860
  490PYPI   C1A 7529  10.918  16.902   9.500 -0.1479  0.1748 -0.2038
  490PYPI   C2A 7530  10.705  16.998   9.172  0.3824 -0.0115  0.1753
  490PYPI   D3A 7531  10.827  16.969   8.770 -0.0370 -0.1291 -0.0572
  490PYPI   C4A 7532  10.760  16.998   8.321 -0.1861 -0.2153  0.0185
  490PYPI   C1B 7533  10.907  16.529   8.978  0.0171  0.3112 -0.1565
  490PYPI   C2B 7534  10.822  16.499   8.522 -0.0402  0.1122  0.0088
  490PYPI   C3B 7535  10.568  16.442   8.165  0.3218 -0.1754 -0.4125
  490PYPI   C4B 7536  10.585  16.350   7.777  0.1176  0.0322  0.1555
  491PYPI    C1 7537   3.241  11.910  10.249  0.1189 -0.1583 -0.0310
  491PYPI    C2 7538   3.054  11.737  10.556  0.1983 -0.1443  0.0257
  491PYPI    C3 7539   3.449  11.691  10.511  0.2582  0.2022  0.1670
  491PYPI   PO4 7540   3.055  11.898  10.057 -0.0029 -0.0921 -0.1463
  491PYPI   GL1 7541   2.812  11.974   9.754  0.2404  0.0065  0.1491
  491PYPI   GL2 7542   2.997  12.153   9.608  0.0157  0.2666 -0.0242
  491PYPI   C1A 7543   2.664  11.930   9.308  0.1407 -0.0168 -0.0332
  491PYPI   C2A 7544   2.628  12.076   8.965  0.1133 -0.4573 -0.2916
  491PYPI   D3A 7545   2.509  12.093   8.536 -0.1151 -0.3246  0.1125
  491PYPI   C4A 7546   2.274  12.399   8.293  0.0125  0.0270  0.0671
  491PYPI   C1B 7547   3.063  12.398   9.279  0.1177 -0.1957 -0.0316
  491PYPI   C2B 7548   3.002  12.441   8.826  0.2833 -0.2184  0.0713
  491PYPI   C3B 7549   2.997  12.208   8.421 -0.0146 -0.3395  0.1536
  491PYPI   C4B 7550   2.758  12.124   8.121 -0.1121  0.0705  0.0031
  492PYPI    C1 7551  14.628   4.527  10.284  0.3546 -0.1671  0.1528
  492PYPI    C2 7552  14.508   4.824  10.523 -0.0074  0.0671 -0.3033
  492PYPI    C3 7553  14.452   4.444  10.633 -0.2858  0.1712 -0.0734
  492PYPI   PO4 7554  14.541   4.619  10.045 -0.0834  0.2667 -0.0717
  492PYPI   GL1 7555  14.807   4.539   9.700 -0.0690 -0.1332  0.0822
  492PYPI   GL2 7556  14.635   4.841   9.540  0.0283  0.1216 -0.1005
  492PYPI   C1A 7557  14.952   4.600   9.215  0.0839  0.1099 -0.3122
  492PYPI   C2A 7558  14.973   4.586   8.842 -0.0079 -0.1495  0.1645
  492PYPI   D3A 7559  15.158   4.390   8.472  0.3911 -0.2512 -0.0045
  492PYPI   C4A 7560  15.041   4.181   8.082  0.0101 -0.0773  0.1327
  492PYPI   C1B 7561  14.453   4.676   9.061 -0.2744 -0.0293 -0.0932
  492PYPI   C2B 7562  14.369   4.647   8.577  0.1199  0.1511 -0.1360
  492PYPI   C3B 7563  14.240   4.709   8.121 -0.3181  0.1569 -0.0867
  492PYPI   C4B 7564  14.236   4.531   7.809 -0.0370 -0.0720  0.2410
  493PYPI    C1 7565  11.285  18.031  10.687  0.0933  0.0015 -0.0786
  493PYPI    C2 7566  11.044  17.853  10.952 -0.0096  0.1859 -0.0465
  493PYPI    C3 7567  11.430  17.910  11.040 -0.0548  0.2931  0.0862
  493PYPI   PO4 7568  11.263  17.933  10.488 -0.4478  0.1385  0.0036
  493PYPI   GL1 7569  11.605  17.734  10.179  0.1575 -0.0807 -0.1643
  493PYPI   GL2 7570  11.387  17.479  10.042  0.0856  0.0454 -0.0337
  493PYPI   C1A 7571  11.649  18.001   9.829 -0.0156  0.1510 -0.0485
  493PYPI   C2A 7572  11.464  18.079   9.417  0.1416  0.2090  0.0797
  493PYPI   D3A 7573  11.563  18.189   9.028 -0.0052 -0.0402  0.2125
  493PYPI   C4A 7574  11.889  18.011   8.898  0.0178 -0.2456  0.0601
  493PYPI   C1B 7575  11.506  17.575   9.562 -0.2192  0.0603 -0.1952
  493PYPI   C2B 7576  11.337  17.698   9.147  0.0707 -0.0085  0.1102
  493PYPI   C3B 7577  11.323  17.756   8.784 -0.0685  0.3174  0.2464
  493PYPI   C4B 7578  11.119  17.910   8.373 -0.3186 -0.1362  0.1917
  494PYPI    C1 7579   6.641  14.896  10.112  0.0320  0.0888  0.1216
  494PYPI    C2 7580   6.376  14.784  10.391  0.0952 -0.1573  0.0854
  494PYPI    C3 7581   6.767  14.719  10.449  0.1517  0.2113  0.1417
  494PYPI   PO4 7582   6.494  14.906   9.868  0.0809  0.3172 -0.0411
  494PYPI   GL1 7583   6.337  14.655   9.504 -0.4059 -0.2444 -0.0619
  494PYPI   GL2 7584   6.251  14.484   9.327 -0.0761  0.2656 -0.3159
  494PYPI   C1A 7585   6.292  14.992   9.129  0.2908 -0.1847  0.0242
  494PYPI   C2A 7586   6.311  15.118   8.646  0.1655  0.0758  0.0096
  494PYPI   D3A 7587   6.459  15.107   8.230 -0.0547  0.0598 -0.3144
  494PYPI   C4A 7588   6.553  14.786   7.958  0.4910 -0.2484 -0.1645
  494PYPI   C1B 7589   6.385  14.589   8.859 -0.0252 -0.2778 -0.1446
  494PYPI   C2B 7590   6.676  14.568   8.431  0.2878  0.1166 -0.2188
  494PYPI   C3B 7591   7.045  14.764   8.227  0.0289  0.1170 -0.0376
  494PYPI   C4B 7592   7.215  14.862   7.850  0.2172  0.2683  0.1511
  495PYPI    C1 7593  10.291  18.041  10.411  0.0174  0.1988  0.0093
  495PYPI    C2 7594   9.922  17.948  10.289  0.0593  0.0060  0.0264
  495PYPI    C3 7595  10.020  17.913  10.676  0.1287 -0.0549  0.0035
  495PYPI   PO4 7596  10.440  18.056  10.195  0.2962  0.0147 -0.2414
  495PYPI   GL1 7597  10.557  17.980   9.784  0.0741 -0.1843 -0.1244
  495PYPI   GL2 7598  10.672  18.321   9.824 -0.1201  0.0810  0.2128
  495PYPI   C1A 7599  10.835  17.965   9.404  0.2139  0.1416  0.0421
  495PYPI   C2A 7600  11.069  18.097   9.130 -0.2139  0.0403  0.3803
  495PYPI   D3A 7601  11.145  18.233   8.718  0.1370 -0.1378  0.0921
  495PYPI   C4A 7602  11.592  18.092   8.515  0.2698 -0.2685  0.1950
  495PYPI   C1B 7603  10.572  18.380   9.370  0.4757 -0.1506 -0.0789
  495PYPI   C2B 7604  10.571  18.266   8.963 -0.0467 -0.1401 -0.0773
  495PYPI   C3B 7605  10.687  18.362   8.608 -0.1220 -0.0576  0.0102
  495PYPI   C4B 7606  10.930  18.495   8.312 -0.0625 -0.3485 -0.0327
  496PYPI    C1 7607   9.218   9.334  10.307 -0.2765  0.2776  0.0369
  496PYPI    C2 7608   9.509   9.500  10.526 -0.1535 -0.0183  0.1025
  496PYPI    C3 7609   9.161   9.691  10.477  0.0227  0.3044  0.0866
  496PYPI   PO4 7610   9.326   9.163  10.095 -0.0251  0.1738 -0.0122
  496PYPI   GL1 7611   9.554   9.226   9.668  0.0553 -0.0255  0.1404
  496PYPI   GL2 7612   9.786   9.344   9.435  0.1704 -0.0391  0.0485
  496PYPI   C1A 7613   9.237   9.517   9.418  0.0633 -0.0214 -0.2200
  496PYPI   C2A 7614   9.390   9.741   8.935 -0.1411  0.0723  0.2917
  496PYPI   D3A 7615   9.583   9.973   8.607 -0.0457  0.0571  0.0156
  496PYPI   C4A 7616   9.592   9.880   8.234 -0.0410 -0.0410 -0.0766
  496PYPI   C1B 7617   9.637   9.319   9.051  0.1245 -0.3178  0.1609
  496PYPI   C2B 7618   9.563   9.393   8.607 -0.2024  0.0826 -0.1272
  496PYPI   C3B 7619   9.508   9.248   8.236  0.3653 -0.1372  0.1250
  496PYPI   C4B 7620   9.518   9.082   7.846  0.1031  0.0656  0.0584
  497PYPI    C1 7621  10.394   7.945  10.406 -0.0377  0.0001 -0.1076
  497PYPI    C2 7622  10.233   8.293  10.521  0.0325  0.0254 -0.0857
  497PYPI    C3 7623  10.470   8.090  10.771 -0.0598 -0.0701 -0.0751
  497PYPI   PO4 7624  10.467   8.106  10.057  0.0710 -0.0541 -0.0209
  497PYPI   GL1 7625  10.331   8.327   9.668 -0.1773  0.2141  0.4083
  497PYPI   GL2 7626  10.675   8.175   9.628  0.0611  0.2773 -0.3099
  497PYPI   C1A 7627  10.186   8.553   9.350  0.2834  0.1547  0.2504
  497PYPI   C2A 7628  10.231   8.733   8.959  0.0992  0.1775 -0.1923
  497PYPI   D3A 7629  10.261   8.805   8.470 -0.0605 -0.4415 -0.4157
  497PYPI   C4A 7630   9.968   9.155   8.474  0.0356  0.1895  0.2155
  497PYPI   C1B 7631  10.841   8.047   9.254  0.0483 -0.2521 -0.1264
  497PYPI   C2B 7632  10.772   8.028   8.811  0.0851  0.0407 -0.5654
  497PYPI   C3B 7633  10.756   8.040   8.316 -0.2568 -0.1394  0.0097
  497PYPI   C4B 7634  11.134   8.105   8.016  0.2328 -0.2337  0.1624
  498PYPI    C1 7635  10.888  13.069  10.238 -0.1189 -0.0349 -0.0292
  498PYPI    C2 7636  10.995  12.975  10.612 -0.0623 -0.1995 -0.0855
  498PYPI    C3 7637  10.658  12.825  10.456 -0.0912 -0.1228 -0.0976
  498PYPI   PO4 7638  11.062  12.950  10.060  0.0217 -0.2214  0.1272
  498PYPI   GL1 7639  11.191  12.764   9.661  0.1910 -0.0374  0.0247
  498PYPI   GL2 7640  11.430  12.757   9.633  0.1743 -0.0163  0.0388
  498PYPI   C1A 7641  10.808  12.570   9.329 -0.0146 -0.0595 -0.2154
  498PYPI   C2A 7642  10.697  12.209   9.287 -0.1843 -0.0608 -0.0864
  498PYPI   D3A 7643  10.520  11.989   9.357  0.1627 -0.4425 -0.0889
  498PYPI   C4A 7644  10.055  12.041   9.247 -0.1858  0.1402  0.0675
  498PYPI   C1B 7645  11.351  12.607   9.217  0.4765  0.0941  0.0168
  498PYPI   C2B 7646  11.532  12.700   8.902  0.1076 -0.3289  0.0291
  498PYPI   C3B 7647  11.656  12.782   8.478 -0.2045  0.3597 -0.0151
  498PYPI   C4B 7648  11.740  12.877   8.103 -0.2676 -0.0501 -0.0624
  499PYPI    C1 7649  11.791   0.280  10.696 -0.0657 -0.1035  0.0026
  499PYPI    C2 7650  11.608   0.006  10.924  0.1311  0.0057  0.2981
  499PYPI    C3 7651  11.547   0.395  10.992 -0.0060  0.0396 -0.0031
  499PYPI   PO4 7652  11.803   0.211  10.413  0.2039 -0.2681  0.2354
  499PYPI   GL1 7653  11.639   0.399  10.123  0.0386  0.1549 -0.1352
  499PYPI   GL2 7654  11.725   0.624   9.871 -0.1296 -0.0833 -0.0517
  499PYPI   C1A 7655  11.667   0.141   9.733  0.0555 -0.0051  0.0929
  499PYPI   C2A 7656  11.496   0.209   9.310 -0.0693  0.3218  0.1657
  499PYPI   D3A 7657  11.534   0.370   8.917  0.0356  0.0389  0.0017
  499PYPI   C4A 7658  11.661   0.151   8.550 -0.2608  0.0590  0.0519
  499PYPI   C1B 7659  11.814   0.544   9.398 -0.0051 -0.1697 -0.0289
  499PYPI   C2B 7660  12.046   0.496   9.097 -0.0602 -0.2394 -0.0486
  499PYPI   C3B 7661  12.138   0.588   8.678 -0.0488 -0.2473 -0.1499
  499PYPI   C4B 7662  12.156   0.755   8.173 -0.0116  0.0880 -0.2470
  500PYPI    C1 7663   7.150  15.960  10.383 -0.0710 -0.1359 -0.0844
  500PYPI    C2 7664   6.884  15.727  10.569 -0.1330 -0.1921 -0.2417
  500PYPI    C3 7665   7.205  15.564  10.394  0.0805 -0.1115  0.0677
  500PYPI   PO4 7666   7.063  16.112  10.211  0.2366  0.2586  0.2857
  500PYPI   GL1 7667   7.054  16.166   9.771 -0.1144 -0.2283 -0.0610
  500PYPI   GL2 7668   6.856  16.394   9.562 -0.0405 -0.1642  0.0137
  500PYPI   C1A 7669   7.185  16.006   9.391  0.1939  0.1140 -0.2525
  500PYPI   C2A 7670   7.380  15.917   8.880 -0.0220 -0.0784  0.0605
  500PYPI   D3A 7671   7.539  15.724   8.573  0.0494 -0.5056  0.1432
  500PYPI   C4A 7672   7.513  15.817   8.110  0.0839  0.2735 -0.1005
  500PYPI   C1B 7673   6.974  16.418   9.130 -0.0607 -0.0603 -0.4123
  500PYPI   C2B 7674   7.038  16.309   8.700  0.0332  0.2379 -0.1180
  500PYPI   C3B 7675   7.285  16.259   8.449 -0.0619  0.0008 -0.2290
  500PYPI   C4B 7676   7.211  16.181   8.061  0.0586  0.0096  0.1967
  501PYPI    C1 7677   2.654   7.128  10.206 -0.1015  0.0876  0.1214
  501PYPI    C2 7678   2.681   6.862  10.504 -0.2699 -0.0137  0.0482
  501PYPI    C3 7679   2.362   7.101  10.478 -0.2009  0.0754  0.0145
  501PYPI   PO4 7680   2.732   7.030   9.985 -0.1456 -0.1932  0.0522
  501PYPI   GL1 7681   2.954   6.894   9.610  0.2725  0.4401 -0.1618
  501PYPI   GL2 7682   3.134   7.249   9.553 -0.1497  0.2369 -0.4307
  501PYPI   C1A 7683   2.827   6.703   9.191 -0.2044 -0.0597 -0.3863
  501PYPI   C2A 7684   2.784   6.829   8.753 -0.3114  0.0144  0.2982
  501PYPI   D3A 7685   2.679   6.551   8.395  0.1819  0.2288  0.2533
  501PYPI   C4A 7686   2.911   6.775   8.016 -0.1969  0.0758 -0.0485
  501PYPI   C1B 7687   3.220   7.497   9.148 -0.2924  0.0051  0.0193
  501PYPI   C2B 7688   3.381   7.576   8.761  0.1835 -0.0935 -0.2273
  501PYPI   C3B 7689   3.493   7.454   8.377  0.2681 -0.0625  0.2936
  501PYPI   C4B 7690   3.469   7.538   7.875 -0.0485  0.2131 -0.2532
  502PYPI    C1 7691   2.028  17.710  10.141 -0.2803 -0.3190 -0.0627
  502PYPI    C2 7692   2.282  17.483  10.351 -0.3264 -0.2054  0.1188
  502PYPI    C3 7693   2.084  17.780  10.531 -0.0167  0.1976 -0.1852
  502PYPI   PO4 7694   2.149  17.683   9.927 -0.4736 -0.1664  0.1318
  502PYPI   GL1 7695   2.042  17.445   9.532  0.1986  0.3236 -0.1851
  502PYPI   GL2 7696   2.311  17.302   9.601 -0.0126  0.1225 -0.1719
  502PYPI   C1A 7697   2.108  17.533   9.161 -0.0595 -0.0095  0.0936
  502PYPI   C2A 7698   2.256  17.332   8.796  0.0435 -0.4003 -0.0991
  502PYPI   D3A 7699   2.263  17.380   8.445  0.2712 -0.1646 -0.1977
  502PYPI   C4A 7700   1.833  17.473   8.207 -0.3056 -0.0212 -0.0664
  502PYPI   C1B 7701   2.564  17.599   9.353  0.2138  0.1639  0.2098
  502PYPI   C2B 7702   2.635  17.615   8.837 -0.0309  0.2027 -0.1936
  502PYPI   C3B 7703   2.850  17.757   8.516  0.1156  0.3500 -0.0197
  502PYPI   C4B 7704   3.019  17.823   8.166  0.0832  0.1559  0.0797
  503PYPI    C1 7705  16.172  15.819  10.267 -0.1864 -0.0485  0.1574
  503PYPI    C2 7706  15.923  16.005  10.519 -0.0529  0.0092  0.2486
  503PYPI    C3 7707  16.302  16.127  10.487  0.0207 -0.2103  0.2656
  503PYPI   PO4 7708  16.056  15.874  10.060  0.1801 -0.0042  0.1136
  503PYPI   GL1 7709  16.048  15.839   9.698 -0.0193 -0.1672 -0.1400
  503PYPI   GL2 7710  15.861  16.171   9.701 -0.0526 -0.2537  0.0264
  503PYPI   C1A 7711  16.136  16.003   9.227 -0.0528 -0.0937 -0.0368
  503PYPI   C2A 7712  16.301  16.036   8.752 -0.0545  0.1545 -0.0120
  503PYPI   D3A 7713  16.312  16.284   8.346  0.2255  0.0794  0.4119
  503PYPI   C4A 7714  16.234  16.248   7.871 -0.0077  0.0630  0.3843
  503PYPI   C1B 7715  15.758  16.260   9.345  0.0466 -0.0218 -0.1302
  503PYPI   C2B 7716  15.439  16.472   8.982 -0.0806  0.2324 -0.0530
  503PYPI   C3B 7717  15.203  16.585   8.581 -0.0339 -0.2492  0.1555
  503PYPI   C4B 7718  15.480  16.694   8.258  0.0314 -0.1330 -0.0616
  504PYPI    C1 7719   0.695   7.732   9.836 -0.1077 -0.0453  0.0561
  504PYPI    C2 7720   0.644   8.082   9.650  0.2111 -0.1271 -0.1956
  504PYPI    C3 7721   0.351   7.931   9.877  0.0746  0.3048 -0.0751
  504PYPI   PO4 7722   0.954   7.744   9.752 -0.3410  0.1265 -0.1346
  504PYPI   GL1 7723   1.293   7.535   9.522  0.3060 -0.1393 -0.1353
  504PYPI   GL2 7724   1.248   7.818   9.282  0.0773  0.0747 -0.0123
  504PYPI   C1A 7725   1.150   7.337   9.136  0.2143  0.0025 -0.3932
  504PYPI   C2A 7726   0.722   7.435   8.871  0.0824  0.0162  0.0513
  504PYPI   D3A 7727   0.620   7.561   8.377 -0.3174 -0.0219 -0.1163
  504PYPI   C4A 7728   0.542   7.382   8.073 -0.2096  0.0397 -0.0158
  504PYPI   C1B 7729   1.085   7.771   8.893 -0.0729  0.0451  0.0449
  504PYPI   C2B 7730   1.099   7.758   8.419  0.1102  0.2325 -0.0587
  504PYPI   C3B 7731   1.193   7.625   8.249 -0.1055 -0.3493  0.2607
  504PYPI   C4B 7732   1.029   7.622   7.900 -0.1838 -0.1605 -0.1979
  505PYPI    C1 7733  12.460  14.128  10.577  0.1628  0.1428 -0.1120
  505PYPI    C2 7734  12.219  13.881  10.780  0.1777  0.1485 -0.0872
  505PYPI    C3 7735  12.506  14.084  10.972  0.1456  0.2088 -0.1024
  505PYPI   PO4 7736  12.603  13.935  10.347 -0.1632 -0.1195  0.1510
  505PYPI   GL1 7737  12.525  13.751   9.987  0.2101 -0.1319  0.0379
  505PYPI   GL2 7738  12.324  13.841   9.773  0.1905  0.0067 -0.2616
  505PYPI   C1A 7739  12.636  13.400   9.684  0.1213  0.0139 -0.0973
  505PYPI   C2A 7740  12.676  13.440   9.278 -0.0012  0.1320  0.2483
  505PYPI   D3A 7741  12.900  13.496   8.843 -0.0003  0.0461 -0.3041
  505PYPI   C4A 7742  12.953  13.267   8.425 -0.0090 -0.1236  0.1298
  505PYPI   C1B 7743  12.398  13.896   9.339 -0.0050 -0.1313 -0.1841
  505PYPI   C2B 7744  12.556  13.880   8.953 -0.1753  0.0110 -0.4965
  505PYPI   C3B 7745  12.506  14.044   8.605  0.1997 -0.0097 -0.0628
  505PYPI   C4B 7746  12.573  14.458   8.339  0.2555  0.1868  0.0737
  506ERGO   ROH 7747   1.551   9.082   9.348 -0.2541 -0.0675  0.1231
  506ERGO    R1 7748   1.386   9.181   9.141 -0.2031 -0.1025  0.0652
  506ERGO    R2 7749   1.481   9.344   8.938 -0.1939  0.0297  0.1739
  506ERGO    R3 7750   1.372   9.153   8.778  0.0167  0.0126  0.0463
  506ERGO    R4 7751   1.445   9.369   8.596  0.1068  0.0648  0.1424
  506ERGO    R5 7752   1.250   9.276   8.614  0.1213 -0.0074 -0.0472
  506ERGO    C1 7753   1.321   9.204   8.246  0.4795  0.0692  0.0043
  506ERGO    C2 7754   1.320   9.074   7.912 -0.0949  0.1328  0.0454
  507ERGO   ROH 7755   4.318  11.544   9.366  0.0910 -0.0993 -0.0554
  507ERGO    R1 7756   4.204  11.563   9.107 -0.0615 -0.2995 -0.0061
  507ERGO    R2 7757   4.316  11.716   8.906 -0.4400 -0.0592 -0.0483
  507ERGO    R3 7758   4.306  11.482   8.767 -0.0456 -0.0787 -0.0543
  507ERGO    R4 7759   4.329  11.689   8.562 -0.2241 -0.0520 -0.0418
  507ERGO    R5 7760   4.177  11.534   8.573 -0.0163 -0.2624 -0.1215
  507ERGO    C1 7761   4.327  11.455   8.231  0.2717 -0.0661 -0.0436
  507ERGO    C2 7762   4.302  11.294   7.854 -0.3049 -0.0596  0.0096
  508ERGO   ROH 7763   9.933  18.210   6.440  0.0452  0.0505  0.0604
  508ERGO    R1 7764  10.034  18.080   6.670  0.0012 -0.0829  0.0060
  508ERGO    R2 7765  10.132  18.218   6.889  0.1461 -0.2102  0.0237
  508ERGO    R3 7766   9.951  18.068   7.025  0.0667 -0.1169  0.0206
  508ERGO    R4 7767  10.114  18.195   7.233  0.1436 -0.2073  0.0228
  508ERGO    R5 7768  10.074  17.982   7.211  0.0273 -0.1877  0.0160
  508ERGO    C1 7769   9.933  18.040   7.561  0.0677 -0.1179  0.0194
  508ERGO    C2 7770   9.750  18.006   7.846 -0.1084  0.0947  0.4988
  509ERGO   ROH 7771  11.918  13.578   9.649 -0.0644  0.2314 -0.0825
  509ERGO    R1 7772  12.053  13.426   9.452 -0.1325  0.1255 -0.0481
  509ERGO    R2 7773  11.956  13.397   9.195 -0.1702  0.0701 -0.0292
  509ERGO    R3 7774  12.203  13.488   9.127 -0.1499 -0.0264 -0.0857
  509ERGO    R4 7775  12.077  13.419   8.872 -0.0813 -0.3626 -0.0312
  509ERGO    R5 7776  12.270  13.348   8.944 -0.1033 -0.2731  0.1150
  509ERGO    C1 7777  12.379  13.517   8.620 -0.0105 -0.7052 -0.0856
  509ERGO    C2 7778  12.248  13.638   8.339 -0.3341  0.1103 -0.0620
  510ERGO   ROH 7779  15.933  11.633   9.818  0.0462  0.0911  0.0237
  510ERGO    R1 7780  15.976  11.509   9.567 -0.2446  0.1187 -0.0433
  510ERGO    R2 7781  15.810  11.550   9.350 -0.1551  0.6307 -0.0277
  510ERGO    R3 7782  16.042  11.617   9.226  0.0159  0.1530  0.0168
  510ERGO    R4 7783  15.863  11.538   9.009 -0.0807  0.4450 -0.0102
  510ERGO    R5 7784  16.062  11.459   9.048 -0.2378  0.0669  0.0620
  510ERGO    C1 7785  16.113  11.594   8.694  0.1229 -0.1117  0.0417
  510ERGO    C2 7786  16.187  11.419   8.453  0.3789 -0.0105  0.1948
  511ERGO   ROH 7787  16.391   8.990  10.020 -0.0110  0.1236 -0.0900
  511ERGO    R1 7788  16.211   9.130   9.852 -0.0134  0.0200 -0.1738
  511ERGO    R2 7789  16.290   9.345   9.697 -0.0739  0.0924 -0.1001
  511ERGO    R3 7790  16.181   9.198   9.496  0.1402  0.0438 -0.1838
  511ERGO    R4 7791  16.167   9.475   9.402 -0.1987  0.0792 -0.0547
  511ERGO    R5 7792  16.002   9.333   9.414 -0.0247 -0.1416 -0.1425
  511ERGO    C1 7793  15.993   9.413   9.041 -0.0706  0.0259 -0.1070
  511ERGO    C2 7794  15.794   9.416   8.734 -0.1663  0.2601 -0.1527
  512ERGO   ROH 7795  17.966   9.853   9.500  0.2493  0.2961 -0.0147
  512ERGO    R1 7796  17.741   9.931   9.346  0.1464  0.1506  0.0583
  512ERGO    R2 7797  17.686  10.196   9.288  0.0263  0.1090 -0.0342
  512ERGO    R3 7798  17.683  10.105   9.031 -0.0646 -0.0085  0.0082
  512ERGO    R4 7799  17.438  10.262   9.056 -0.0586 -0.0114  0.0216
  512ERGO    R5 7800  17.453  10.056   8.988 -0.0757 -0.0393  0.1114
  512ERGO    C1 7801  17.291  10.215   8.681 -0.1930 -0.1917  0.0937
  512ERGO    C2 7802  17.166  10.094   8.387  0.0678 -0.0040 -0.2485
  513ERGO   ROH 7803   5.678  10.000   9.693  0.0898  0.0986 -0.0108
  513ERGO    R1 7804   5.510  10.042   9.469 -0.0223 -0.0558  0.0436
  513ERGO    R2 7805   5.586  10.194   9.252 -0.2720  0.1003  0.0649
  513ERGO    R3 7806   5.522   9.970   9.112 -0.0233  0.0538  0.0206
  513ERGO    R4 7807   5.477  10.191   8.924 -0.2715  0.0494  0.0648
  513ERGO    R5 7808   5.334  10.035   8.978 -0.1008 -0.1249  0.0358
  513ERGO    C1 7809   5.354   9.979   8.601 -0.0378 -0.0236  0.0231
  513ERGO    C2 7810   5.386  10.008   8.305 -0.1496  0.2229 -0.1330
  514ERGO   ROH 7811  12.574   0.183   6.309 -0.0311  0.1852 -0.0431
  514ERGO    R1 7812  12.679   0.191   6.572  0.0124  0.0234 -0.0558
  514ERGO    R2 7813  12.794   0.418   6.680  0.0955 -0.0679  0.0370
  514ERGO    R3 7814  12.612   0.376   6.878  0.1179 -0.1089  0.0505
  514ERGO    R4 7815  12.840   0.501   7.012 -0.0434  0.3127 -0.0336
  514ERGO    R5 7816  12.744   0.314   7.068  0.1806  0.2350  0.1312
  514ERGO    C1 7817  12.697   0.511   7.391 -0.1032  0.4958 -0.0619
  514ERGO    C2 7818  12.827   0.582   7.615 -0.1138 -0.0377 -0.0727
  515ERGO   ROH 7819  14.271  15.295   9.706 -0.0472 -0.2178  0.1159
  515ERGO    R1 7820  14.218  15.402   9.450  0.1639 -0.0220  0.1500
  515ERGO    R2 7821  14.396  15.379   9.239  0.1858 -0.1788  0.1783
  515ERGO    R3 7822  14.181  15.273   9.112  0.0582  0.1816  0.0834
  515ERGO    R4 7823  14.364  15.349   8.896  0.2562 -0.0761  0.1633
  515ERGO    R5 7824  14.155  15.407   8.916  0.3404  0.2532  0.0950
  515ERGO    C1 7825  14.143  15.232   8.577  0.1775  0.3223  0.0653
  515ERGO    C2 7826  14.190  15.033   8.279 -0.0511  0.0654  0.3435
  516ERGO   ROH 7827   2.789  11.917   6.003  0.0758 -0.1015 -0.0797
  516ERGO    R1 7828   2.802  11.775   6.248 -0.0079 -0.1390 -0.0951
  516ERGO    R2 7829   3.015  11.799   6.422  0.1062 -0.4343 -0.1794
  516ERGO    R3 7830   2.820  11.860   6.602  0.2562 -0.1820 -0.0980
  516ERGO    R4 7831   3.025  11.720   6.759  0.1438 -0.4259 -0.1794
  516ERGO    R5 7832   2.813  11.670   6.748  0.0788 -0.1622 -0.0858
  516ERGO    C1 7833   2.848  11.731   7.123  0.3064 -0.1843 -0.1030
  516ERGO    C2 7834   2.746  11.552   7.401  0.0399 -0.1284  0.0874
  517ERGO   ROH 7835  12.610  14.218   9.655  0.2131 -0.1033 -0.0426
  517ERGO    R1 7836  12.529  14.384   9.441  0.0998 -0.0917  0.0073
  517ERGO    R2 7837  12.619  14.347   9.182  0.0061 -0.0464 -0.0369
  517ERGO    R3 7838  12.353  14.340   9.125 -0.0156 -0.0885  0.0721
  517ERGO    R4 7839  12.477  14.452   8.885 -0.1545  0.0716  0.0803
  517ERGO    R5 7840  12.314  14.540   8.999 -0.1279 -0.0351  0.1945
  517ERGO    C1 7841  12.146  14.507   8.658 -0.2684  0.1007  0.2509
  517ERGO    C2 7842  11.986  14.620   8.336  0.0812 -0.2086  0.2315
  518ERGO   ROH 7843   6.059   5.237  10.046  0.1951  0.0086  0.0015
  518ERGO    R1 7844   6.165   5.259   9.785  0.1837  0.1299  0.0068
  518ERGO    R2 7845   6.158   5.051   9.603  0.3407  0.1538 -0.0272
  518ERGO    R3 7846   6.036   5.235   9.445  0.2065  0.0911  0.0009
  518ERGO    R4 7847   6.199   5.075   9.261 -0.0709 -0.0815 -0.1008
  518ERGO    R5 7848   6.202   5.292   9.282  0.0281 -0.0678 -0.2433
  518ERGO    C1 7849   6.109   5.263   8.913 -0.4365 -0.2774 -0.1173
  518ERGO    C2 7850   6.076   5.227   8.557 -0.0146 -0.2726 -0.0034
  519ERGO   ROH 7851   0.378   6.862   9.482  0.0932  0.2276 -0.0797
  519ERGO    R1 7852   0.334   6.830   9.204 -0.0022  0.1870 -0.0609
  519ERGO    R2 7853   0.308   7.046   9.032  0.0666  0.1635 -0.1051
  519ERGO    R3 7854   0.508   6.920   8.897 -0.0382  0.0225 -0.1298
  519ERGO    R4 7855   0.414   7.127   8.713  0.0029  0.0042 -0.1675
  519ERGO    R5 7856   0.433   6.915   8.670 -0.1137 -0.0182 -0.1029
  519ERGO    C1 7857   0.664   7.057   8.401 -0.1325 -0.2210 -0.2272
  519ERGO    C2 7858   0.972   7.063   8.188 -0.2559 -0.0085  0.3720
  520ERGO   ROH 7859   1.332   6.012   9.601  0.1312  0.0459  0.0496
  520ERGO    R1 7860   1.239   6.108   9.351  0.1413 -0.1026 -0.0114
  520ERGO    R2 7861   1.233   6.376   9.288 -0.1481 -0.1183 -0.0527
  520ERGO    R3 7862   1.377   6.296   9.072  0.0579  0.0217  0.0294
  520ERGO    R4 7863   1.232   6.533   8.980 -0.1941 -0.1648 -0.0768
  520ERGO    R5 7864   1.233   6.337   8.885  0.0926 -0.1842 -0.0473
  520ERGO    C1 7865   1.367   6.549   8.598 -0.0275 -0.0605 -0.0138
  520ERGO    C2 7866   1.358   6.738   8.349  0.4238 -0.2158  0.1319
  521ERGO   ROH 7867  15.321   8.388   9.766  0.1122 -0.0166  0.0013
  521ERGO    R1 7868  15.332   8.550   9.534 -0.0145  0.0068  0.0104
  521ERGO    R2 7869  15.332   8.443   9.279 -0.0608  0.0278  0.0006
  521ERGO    R3 7870  15.120   8.610   9.244 -0.1272 -0.0388  0.0828
  521ERGO    R4 7871  15.221   8.562   8.974 -0.1285  0.1067  0.0558
  521ERGO    R5 7872  15.188   8.756   9.067 -0.1957  0.0574  0.1351
  521ERGO    C1 7873  14.959   8.788   8.764 -0.2302  0.0902  0.1650
  521ERGO    C2 7874  14.959   8.998   8.374  0.2633 -0.1799 -0.1105
  522ERGO   ROH 7875   3.626   4.763   9.816 -0.1757 -0.2341  0.0341
  522ERGO    R1 7876   3.587   4.613   9.579 -0.2454 -0.2960  0.0861
  522ERGO    R2 7877   3.343   4.502   9.512 -0.3902  0.1052 -0.0502
  522ERGO    R3 7878   3.381   4.638   9.280  0.0474 -0.0902 -0.1068
  522ERGO    R4 7879   3.265   4.381   9.198 -0.5901  0.1302 -0.0124
  522ERGO    R5 7880   3.450   4.471   9.123 -0.3138 -0.3657  0.0032
  522ERGO    C1 7881   3.255   4.440   8.797 -0.2958 -0.0386 -0.0435
  522ERGO    C2 7882   3.181   4.405   8.508 -0.2545 -0.3419  0.0145
  523ERGO   ROH 7883   5.805  14.715   9.556 -0.0525  0.0347  0.1155
  523ERGO    R1 7884   5.775  14.592   9.303 -0.2142  0.0062  0.1477
  523ERGO    R2 7885   5.649  14.717   9.091 -0.1150  0.0889  0.1382
  523ERGO    R3 7886   5.881  14.661   8.962 -0.1888 -0.1817  0.1160
  523ERGO    R4 7887   5.682  14.691   8.748 -0.2052 -0.0892  0.1415
  523ERGO    R5 7888   5.815  14.521   8.779 -0.3549 -0.2012  0.1880
  523ERGO    C1 7889   5.920  14.624   8.427 -0.3270 -0.4469  0.1225
  523ERGO    C2 7890   5.986  14.870   8.145 -0.2306  0.0942 -0.3627
  524ERGO   ROH 7891  10.485  15.792   7.071  0.0281 -0.1879  0.0569
  524ERGO    R1 7892  10.461  15.763   7.352 -0.0777 -0.0209  0.0664
  524ERGO    R2 7893  10.387  15.973   7.517 -0.1787  0.0688 -0.0890
  524ERGO    R3 7894  10.196  15.797   7.599 -0.1816  0.0864 -0.0581
  524ERGO    R4 7895  10.196  16.006   7.804 -0.2172  0.1526 -0.1244
  524ERGO    R5 7896  10.217  15.792   7.837 -0.2121  0.1637 -0.0534
  524ERGO    C1 7897   9.906  15.862   8.047 -0.2423  0.2178 -0.1160
  524ERGO    C2 7898   9.623  15.856   7.883  0.0580  0.1147 -0.5682
  525ERGO   ROH 7899   2.141  10.424   5.881  0.0006  0.1278  0.0050
  525ERGO    R1 7900   2.303  10.434   6.113 -0.0874 -0.0498  0.0757
  525ERGO    R2 7901   2.449  10.658   6.183  0.0960 -0.1960  0.1582
  525ERGO    R3 7902   2.316  10.632   6.418 -0.0282 -0.0920  0.1015
  525ERGO    R4 7903   2.547  10.801   6.482 -0.0252 -0.1086  0.1572
  525ERGO    R5 7904   2.489  10.617   6.583 -0.1094 -0.0668  0.1932
  525ERGO    C1 7905   2.478  10.859   6.878 -0.2124  0.0399  0.1034
  525ERGO    C2 7906   2.575  10.852   7.198  0.1471  0.1154 -0.0003
  526ERGO   ROH 7907  11.904   8.894   9.820  0.1778  0.1709 -0.0940
  526ERGO    R1 7908  12.077   8.864   9.598  0.0855  0.0515 -0.1510
  526ERGO    R2 7909  12.063   8.647   9.427 -0.0588  0.0129 -0.0941
  526ERGO    R3 7910  12.042   8.841   9.237 -0.0572 -0.0245 -0.1326
  526ERGO    R4 7911  12.070   8.591   9.086 -0.2020 -0.0670 -0.0844
  526ERGO    R5 7912  12.192   8.770   9.064 -0.1457 -0.1173 -0.1706
  526ERGO    C1 7913  12.055   8.739   8.709 -0.2838 -0.1486 -0.1150
  526ERGO    C2 7914  11.987   8.823   8.357  0.0204 -0.0750 -0.1333
  527ERGO   ROH 7915   9.283   3.340   9.947 -0.0162  0.0799 -0.1233
  527ERGO    R1 7916   9.150   3.410   9.707  0.0834  0.1830 -0.1485
  527ERGO    R2 7917   9.281   3.527   9.493  0.2416 -0.0404 -0.1725
  527ERGO    R3 7918   9.172   3.319   9.356 -0.0163  0.0581 -0.1241
  527ERGO    R4 7919   9.243   3.516   9.150  0.3167 -0.1019 -0.1791
  527ERGO    R5 7920   9.048   3.423   9.179  0.1718  0.1781 -0.1930
  527ERGO    C1 7921   9.120   3.314   8.821  0.1183 -0.0452 -0.1376
  527ERGO    C2 7922   9.133   3.503   8.532 -0.1573 -0.1531 -0.0588
  528ERGO   ROH 7923   5.212  16.820   6.359 -0.0329 -0.0015 -0.1078
  528ERGO    R1 7924   5.062  16.704   6.569  0.1093 -0.1001 -0.0582
  528ERGO    R2 7925   5.180  16.563   6.776  0.2813  0.0718 -0.0286
  528ERGO    R3 7926   5.042  16.739   6.931  0.1200 -0.0199 -0.0673
  528ERGO    R4 7927   5.112  16.519   7.112  0.2368  0.0562 -0.0398
  528ERGO    R5 7928   4.912  16.600   7.077  0.1905 -0.0951 -0.0844
  528ERGO    C1 7929   4.942  16.659   7.453  0.0595 -0.0389 -0.0826
  528ERGO    C2 7930   5.178  16.689   7.870  0.1978 -0.1335  0.4085
  529ERGO   ROH 7931  10.328   5.816   6.464  0.3347  0.0017 -0.1162
  529ERGO    R1 7932  10.252   5.957   6.697  0.1561 -0.0146 -0.1638
  529ERGO    R2 7933  10.171   5.829   6.928  0.1883 -0.0352 -0.1661
  529ERGO    R3 7934  10.367   5.980   7.042  0.0372  0.1395 -0.1326
  529ERGO    R4 7935  10.207   5.885   7.268  0.1475 -0.1083 -0.1495
  529ERGO    R5 7936  10.258   6.092   7.223 -0.0752 -0.0337 -0.0881
  529ERGO    C1 7937  10.411   6.059   7.571 -0.0182  0.0132 -0.1083
  529ERGO    C2 7938  10.718   6.025   7.853 -0.2027 -0.2147 -0.3450
  530ERGO   ROH 7939  16.014   6.719   9.607  0.1991 -0.1651 -0.0978
  530ERGO    R1 7940  16.013   6.771   9.329  0.0995  0.0938 -0.0532
  530ERGO    R2 7941  16.169   6.968   9.213  0.2725  0.0195  0.0410
  530ERGO    R3 7942  16.256   6.763   9.058 -0.0618  0.0506 -0.1966
  530ERGO    R4 7943  16.303   7.002   8.896  0.2171  0.1487  0.0314
  530ERGO    R5 7944  16.193   6.825   8.835 -0.0489  0.3613 -0.1152
  530ERGO    C1 7945  16.464   6.830   8.567 -0.1291  0.2532 -0.1972
  530ERGO    C2 7946  16.528   7.087   8.305  0.0693 -0.1993 -0.1062
  531ERGO   ROH 7947   3.352   0.233   9.852  0.0750  0.0636  0.1092
  531ERGO    R1 7948   3.448   0.319   9.600  0.1468 -0.0643  0.0910
  531ERGO    R2 7949   3.420   0.167   9.370 -0.0370 -0.0602  0.1044
  531ERGO    R3 7950   3.305   0.394   9.274  0.1958  0.0567  0.0982
  531ERGO    R4 7951   3.469   0.295   9.052 -0.0447 -0.2142  0.0413
  531ERGO    R5 7952   3.475   0.495   9.139  0.2506 -0.1950 -0.0219
  531ERGO    C1 7953   3.389   0.582   8.778  0.1693 -0.1941 -0.0011
  531ERGO    C2 7954   3.282   0.500   8.480  0.0606  0.0838 -0.0004
  532ERGO   ROH 7955   4.654   6.215   5.584 -0.0300 -0.3783  0.0681
  532ERGO    R1 7956   4.610   6.272   5.857 -0.0064 -0.0372  0.0058
  532ERGO    R2 7957   4.684   6.100   6.059 -0.4548 -0.0356  0.1889
  532ERGO    R3 7958   4.815   6.318   6.155 -0.0024 -0.2260  0.0325
  532ERGO    R4 7959   4.824   6.123   6.374 -0.6402 -0.0126  0.2701
  532ERGO    R5 7960   4.751   6.328   6.386 -0.1637  0.1888 -0.0231
  532ERGO    C1 7961   5.028   6.342   6.648 -0.3233 -0.1780  0.1705
  532ERGO    C2 7962   5.271   6.141   6.825  0.2501  0.3378  0.0034
  533ERGO   ROH 7963   6.285  10.469   6.358  0.0201  0.2191 -0.2127
  533ERGO    R1 7964   6.421  10.508   6.604 -0.0885  0.2123 -0.1511
  533ERGO    R2 7965   6.380  10.731   6.763 -0.2312  0.1636 -0.1140
  533ERGO    R3 7966   6.327  10.544   6.953 -0.2391  0.0988 -0.1795
  533ERGO    R4 7967   6.419  10.778   7.103 -0.2667  0.0440 -0.0928
  533ERGO    R5 7968   6.498  10.576   7.117 -0.2601  0.0475 -0.1525
  533ERGO    C1 7969   6.393  10.630   7.480 -0.2948 -0.0867 -0.1418
  533ERGO    C2 7970   6.195  10.678   7.761  0.1551  0.1660  0.0121
  534ERGO   ROH 7971  12.546   2.681   9.903  0.1825  0.0544  0.1481
  534ERGO    R1 7972  12.685   2.634   9.661 -0.0328 -0.0959  0.0496
  534ERGO    R2 7973  12.556   2.587   9.421 -0.2546  0.1662  0.1124
  534ERGO    R3 7974  12.710   2.794   9.335  0.0139 -0.0420  0.0795
  534ERGO    R4 7975  12.602   2.674   9.090 -0.1618  0.0706  0.0998
  534ERGO    R5 7976  12.812   2.712   9.134 -0.1052 -0.1996  0.0811
  534ERGO    C1 7977  12.774   2.919   8.816  0.1444 -0.1805  0.0617
  534ERGO    C2 7978  12.735   2.914   8.464  0.0115  0.0669  0.2172
  535ERGO   ROH 7979  10.450   6.125   9.828 -0.1725 -0.0986 -0.0111
  535ERGO    R1 7980  10.333   6.274   9.618 -0.0330 -0.0501 -0.0552
  535ERGO    R2 7981  10.474   6.462   9.472  0.0872 -0.0769  0.0262
  535ERGO    R3 7982  10.387   6.315   9.261  0.1468 -0.0364 -0.0273
  535ERGO    R4 7983  10.450   6.578   9.148  0.0119  0.0388  0.0722
  535ERGO    R5 7984  10.262   6.470   9.128  0.0633 -0.0455  0.0407
  535ERGO    C1 7985  10.354   6.509   8.760  0.0241  0.1442  0.0490
  535ERGO    C2 7986  10.380   6.501   8.443 -0.2418 -0.1365 -0.0089
  536ERGO   ROH 7987   3.396  16.723   9.707  0.0285  0.0654  0.0774
  536ERGO    R1 7988   3.600  16.795   9.524 -0.0027  0.1403  0.0716
  536ERGO    R2 7989   3.602  16.709   9.262  0.0473  0.1009  0.0839
  536ERGO    R3 7990   3.620  16.975   9.208 -0.0859  0.1031  0.0449
  536ERGO    R4 7991   3.788  16.846   9.005 -0.0160  0.1584  0.0686
  536ERGO    R5 7992   3.848  17.006   9.141 -0.1001  0.2089  0.0459
  536ERGO    C1 7993   3.914  17.175   8.805 -0.1777  0.1940  0.0232
  536ERGO    C2 7994   4.114  17.382   8.616 -0.0698 -0.0175  0.1390
  537ERGO   ROH 7995  10.298   1.563   9.648 -0.1695 -0.0721  0.0701
  537ERGO    R1 7996  10.189   1.619   9.393 -0.1191 -0.0244  0.0576
  537ERGO    R2 7997  10.343   1.633   9.164 -0.0653  0.0596  0.0928
  537ERGO    R3 7998  10.166   1.449   9.072 -0.0140  0.0522  0.0104
  537ERGO    R4 7999  10.281   1.568   8.830 -0.1184  0.2496  0.0651
  537ERGO    R5 8000  10.069   1.551   8.878 -0.0968  0.1374  0.1000
  537ERGO    C1 8001  10.078   1.357   8.550 -0.1011  0.3534 -0.0283
  537ERGO    C2 8002  10.033   1.324   8.214 -0.1230  0.0927 -0.0567
  538ERGO   ROH 8003  15.949   3.519   9.539 -0.4058  0.0981 -0.0747
  538ERGO    R1 8004  15.899   3.510   9.261 -0.1394  0.2148 -0.1290
  538ERGO    R2 8005  16.071   3.621   9.075  0.2945 -0.1381  0.0480
  538ERGO    R3 8006  16.063   3.372   8.967 -0.1211 -0.1261  0.0353
  538ERGO    R4 8007  16.084   3.552   8.737  0.2207 -0.1352  0.0444
  538ERGO    R5 8008  15.933   3.398   8.767 -0.0567  0.1151  0.0177
  538ERGO    C1 8009  16.084   3.277   8.438 -0.2126 -0.1221  0.0306
  538ERGO    C2 8010  16.335   3.403   8.059  0.0737  0.0920  0.2341
  539ERGO   ROH 8011   0.157   8.178   9.441 -0.0754 -0.1670  0.0024
  539ERGO    R1 8012   0.139   8.103   9.168 -0.0711 -0.1170 -0.0106
  539ERGO    R2 8013  -0.084   8.157   9.013 -0.0391 -0.0309 -0.0191
  539ERGO    R3 8014   0.100   8.273   8.849  0.0056 -0.0554  0.0113
  539ERGO    R4 8015  -0.113   8.182   8.670 -0.0437  0.0875 -0.0119
  539ERGO    R5 8016   0.099   8.136   8.653 -0.0598  0.0025 -0.0327
  539ERGO    C1 8017   0.042   8.304   8.316 -0.0044  0.1336  0.0209
  539ERGO    C2 8018   0.070   8.323   7.931  0.2318 -0.2684  0.0916
  540ERGO   ROH 8019   3.114  10.483   9.566  0.0817  0.4311  0.0675
  540ERGO    R1 8020   3.176  10.554   9.299  0.0847  0.1739 -0.0031
  540ERGO    R2 8021   3.127  10.386   9.085  0.0886 -0.0370  0.1540
  540ERGO    R3 8022   2.993  10.601   8.988  0.0867 -0.1300 -0.0518
  540ERGO    R4 8023   3.098  10.465   8.750  0.2105 -0.2654  0.0875
  540ERGO    R5 8024   3.126  10.675   8.803  0.1450 -0.2276 -0.0453
  540ERGO    C1 8025   2.955  10.713   8.463  0.2797 -0.4859 -0.1443
  540ERGO    C2 8026   2.966  10.713   8.117 -0.0867  0.0376  0.2134
  541ERGO   ROH 8027  11.721   2.295   9.948 -0.1067 -0.0258  0.1085
  541ERGO    R1 8028  11.800   2.297   9.677  0.0305 -0.0015  0.1489
  541ERGO    R2 8029  11.799   2.070   9.520 -0.0457  0.0463  0.0883
  541ERGO    R3 8030  11.645   2.223   9.356  0.1410  0.1954  0.0463
  541ERGO    R4 8031  11.783   2.035   9.176 -0.1642 -0.1112  0.1080
  541ERGO    R5 8032  11.780   2.253   9.160  0.1542 -0.1041 -0.0003
  541ERGO    C1 8033  11.629   2.158   8.822 -0.0579 -0.0630  0.0802
  541ERGO    C2 8034  11.455   2.063   8.605  0.0460 -0.3082 -0.1139
  542ERGO   ROH 8035   4.650  13.064   9.903  0.1511  0.0174 -0.0091
  542ERGO    R1 8036   4.469  13.092   9.687  0.0995 -0.1283  0.0141
  542ERGO    R2 8037   4.269  13.283   9.684  0.0004 -0.2349  0.0023
  542ERGO    R3 8038   4.383  13.352   9.447 -0.0784 -0.2301 -0.0348
  542ERGO    R4 8039   4.107  13.450   9.429 -0.0790 -0.1975  0.0763
  542ERGO    R5 8040   4.208  13.320   9.286 -0.1446 -0.1999  0.0274
  542ERGO    C1 8041   4.119  13.613   9.058 -0.1992 -0.1712  0.0846
  542ERGO    C2 8042   4.098  13.726   8.679  0.3377 -0.1803 -0.1853
  543ERGO   ROH 8043  11.123   0.258  10.007 -0.0841  0.1172  0.1118
  543ERGO    R1 8044  11.179   0.503   9.878 -0.1527  0.1044  0.0567
  543ERGO    R2 8045  11.307   0.517   9.633 -0.1694  0.0848  0.0469
  543ERGO    R3 8046  11.089   0.663   9.564 -0.2101  0.0157  0.0276
  543ERGO    R4 8047  11.241   0.635   9.315 -0.1047  0.1839  0.0700
  543ERGO    R5 8048  11.172   0.821   9.404 -0.2206  0.1180  0.1213
  543ERGO    C1 8049  10.998   0.842   9.065 -0.1052  0.1768  0.0652
  543ERGO    C2 8050  10.823   0.862   8.725 -0.1355 -0.0348  0.1028
  544ERGO   ROH 8051   4.891   1.461   6.401  0.0410  0.0282 -0.0203
  544ERGO    R1 8052   4.825   1.431   6.675 -0.0132 -0.2004 -0.0575
  544ERGO    R2 8053   4.840   1.188   6.806  0.4118 -0.2238 -0.1440
  544ERGO    R3 8054   4.997   1.328   6.979  0.0722  0.0268 -0.0258
  544ERGO    R4 8055   4.867   1.123   7.144  0.3668 -0.2732 -0.1487
  544ERGO    R5 8056   4.868   1.338   7.180 -0.0538 -0.2717 -0.0834
  544ERGO    C1 8057   5.029   1.216   7.504  0.0219 -0.0667 -0.0404
  544ERGO    C2 8058   5.033   1.257   7.879  0.1639 -0.2445  0.0376
  545ERGO   ROH 8059   8.905   3.021   9.861  0.1002 -0.1242  0.0859
  545ERGO    R1 8060   8.994   2.943   9.604 -0.0205 -0.2101  0.0703
  545ERGO    R2 8061   8.850   2.768   9.444 -0.3531  0.1283 -0.0110
  545ERGO    R3 8062   8.870   2.970   9.262  0.0733  0.1605  0.0603
  545ERGO    R4 8063   8.885   2.723   9.103 -0.2464  0.1734 -0.0066
  545ERGO    R5 8064   9.028   2.888   9.101  0.0319 -0.0522  0.1203
  545ERGO    C1 8065   8.924   2.886   8.734  0.2160  0.2299  0.0628
  545ERGO    C2 8066   8.782   2.831   8.507  0.1807 -0.0484 -0.0644
  546ERGO   ROH 8067  17.814  11.721   9.630 -0.2180  0.1789 -0.1197
  546ERGO    R1 8068  17.874  11.779   9.360 -0.1615  0.0459 -0.1361
  546ERGO    R2 8069  18.070  11.644   9.219 -0.0396  0.0673  0.0123
  546ERGO    R3 8070  17.868  11.600   9.043  0.0431 -0.1545 -0.0301
  546ERGO    R4 8071  18.113  11.575   8.883  0.1078  0.1659  0.0098
  546ERGO    R5 8072  17.943  11.704   8.840 -0.0444 -0.0332 -0.0021
  546ERGO    C1 8073  17.949  11.493   8.522  0.2711  0.0151 -0.0315
  546ERGO    C2 8074  17.993  11.383   8.163 -0.1013  0.1951  0.0274
  547ERGO   ROH 8075  17.460   9.989   9.731  0.1440 -0.3730  0.0064
  547ERGO    R1 8076  17.220   9.974   9.581  0.1117 -0.1823  0.0374
  547ERGO    R2 8077  17.181  10.120   9.350  0.1472 -0.0541  0.1121
  547ERGO    R3 8078  17.125   9.876   9.244  0.0061  0.0228  0.0055
  547ERGO    R4 8079  16.999  10.068   9.060  0.2352  0.1842  0.0114
  547ERGO    R5 8080  16.902   9.898   9.158  0.0596  0.2240 -0.0881
  547ERGO    C1 8081  16.842   9.808   8.792  0.1541  0.3953 -0.1473
  547ERGO    C2 8082  16.838   9.762   8.448  0.2579  0.0171  0.1155
  548ERGO   ROH 8083   2.984   2.965   9.708  0.1429 -0.0527  0.0340
  548ERGO    R1 8084   2.936   2.902   9.437 -0.0283  0.1758  0.0075
  548ERGO    R2 8085   2.917   3.094   9.240  0.2584  0.3223  0.1137
  548ERGO    R3 8086   3.110   2.944   9.120 -0.0189  0.0509 -0.0037
  548ERGO    R4 8087   3.024   3.136   8.914  0.2906  0.3304  0.1258
  548ERGO    R5 8088   3.032   2.918   8.894 -0.0964  0.3243 -0.0095
  548ERGO    C1 8089   3.267   3.019   8.611  0.0490  0.0805  0.0226
  548ERGO    C2 8090   3.214   3.065   8.370 -0.3057  0.1272  0.2559
  549ERGO   ROH 8091   8.295  10.721   9.213  0.0909  0.1515 -0.1663
  549ERGO    R1 8092   8.486  10.638   9.021  0.1252 -0.2039  0.0125
  549ERGO    R2 8093   8.467  10.398   8.886 -0.3084 -0.0922 -0.1433
  549ERGO    R3 8094   8.486  10.557   8.666  0.3368  0.0033 -0.0372
  549ERGO    R4 8095   8.496  10.282   8.562 -0.5132  0.0069 -0.1989
  549ERGO    R5 8096   8.641  10.442   8.524  0.0497 -0.4276 -0.0187
  549ERGO    C1 8097   8.532  10.364   8.166 -0.0266  0.1544 -0.1318
  549ERGO    C2 8098   8.570  10.254   7.883  0.0924 -0.0406 -0.3341
  550ERGO   ROH 8099  15.605   5.831   7.328 -0.0705  0.0480 -0.1200
  550ERGO    R1 8100  15.359   5.867   7.463 -0.0262  0.1102 -0.0541
  550ERGO    R2 8101  15.187   5.657   7.520 -0.0729  0.1536 -0.0207
  550ERGO    R3 8102  15.208   5.751   7.774  0.0229  0.1345 -0.0219
  550ERGO    R4 8103  14.954   5.606   7.770  0.0598  0.0725  0.0868
  550ERGO    R5 8104  14.985   5.811   7.834  0.0375  0.0720  0.0912
  550ERGO    C1 8105  14.839   5.664   8.154  0.2270  0.0075  0.1483
  550ERGO    C2 8106  14.578   5.813   8.357  0.4068 -0.3102 -0.1745
  551ERGO   ROH 8107   1.956   8.843   6.132 -0.0809 -0.0025 -0.0391
  551ERGO    R1 8108   2.156   8.739   6.304 -0.1016  0.0493  0.0156
  551ERGO    R2 8109   2.283   8.894   6.495 -0.2037  0.0790  0.0584
  551ERGO    R3 8110   2.199   8.699   6.663 -0.1949  0.0479  0.0273
  551ERGO    R4 8111   2.397   8.850   6.818 -0.2284  0.0577  0.0646
  551ERGO    R5 8112   2.396   8.635   6.783 -0.1967  0.0602  0.0391
  551ERGO    C1 8113   2.384   8.641   7.165 -0.2346  0.0161  0.0391
  551ERGO    C2 8114   2.421   8.911   7.412  0.2625  0.1085  0.2775
  552ERGO   ROH 8115   7.407   3.367   6.062  0.1448 -0.2982 -0.0571
  552ERGO    R1 8116   7.327   3.517   6.288  0.0490 -0.2779 -0.1049
  552ERGO    R2 8117   7.137   3.427   6.468  0.2200 -0.4134  0.0064
  552ERGO    R3 8118   7.333   3.475   6.650  0.2302 -0.0888 -0.0830
  552ERGO    R4 8119   7.085   3.473   6.806  0.2807 -0.3416  0.0069
  552ERGO    R5 8120   7.235   3.631   6.803  0.0832 -0.1470 -0.1130
  552ERGO    C1 8121   7.238   3.545   7.174  0.3255  0.0051 -0.0769
  552ERGO    C2 8122   7.407   3.587   7.491 -0.0423  0.0803 -0.0989
  553ERGO   ROH 8123   7.941  11.657   9.192  0.3204 -0.0753  0.0193
  553ERGO    R1 8124   7.898  11.466   8.986  0.2816 -0.1561  0.1004
  553ERGO    R2 8125   7.793  11.535   8.740 -0.0975 -0.3071  0.2081
  553ERGO    R3 8126   8.017  11.412   8.647 -0.0657 -0.0696 -0.0380
  553ERGO    R4 8127   7.827  11.396   8.425 -0.1895 -0.0273  0.0725
  553ERGO    R5 8128   7.935  11.231   8.515 -0.0113 -0.0208 -0.1335
  553ERGO    C1 8129   8.057  11.201   8.155 -0.2133  0.3585 -0.2374
  553ERGO    C2 8130   8.116  11.155   7.757  0.0299  0.2741 -0.2030
  554ERGO   ROH 8131   6.565   0.955   9.847 -0.1552 -0.1923  0.1107
  554ERGO    R1 8132   6.560   0.767   9.635  0.0631 -0.0350 -0.0384
  554ERGO    R2 8133   6.326   0.652   9.543  0.2026 -0.3044 -0.0603
  554ERGO    R3 8134   6.413   0.746   9.303  0.0021  0.0141 -0.0153
  554ERGO    R4 8135   6.200   0.555   9.237  0.2429 -0.2367 -0.0991
  554ERGO    R5 8136   6.404   0.555   9.159  0.2259  0.1112 -0.1655
  554ERGO    C1 8137   6.208   0.586   8.833  0.0782  0.1018 -0.0795
  554ERGO    C2 8138   6.133   0.691   8.649  0.2501 -0.0234  0.2869
  555ERGO   ROH 8139   9.239   2.788   6.585 -0.1872 -0.0233  0.0424
  555ERGO    R1 8140   9.318   2.790   6.857 -0.1191  0.0275  0.0249
  555ERGO    R2 8141   9.211   2.965   7.042 -0.0827  0.0619  0.0285
  555ERGO    R3 8142   9.156   2.737   7.179 -0.0427  0.0790  0.0686
  555ERGO    R4 8143   9.133   2.951   7.378  0.1150  0.0702  0.0743
  555ERGO    R5 8144   9.256   2.772   7.394  0.0854  0.0565  0.0051
  555ERGO    C1 8145   9.036   2.728   7.703  0.2677  0.0910  0.1386
  555ERGO    C2 8146   9.004   2.757   8.054  0.1350 -0.0327 -0.4624
  556ERGO   ROH 8147   7.259   5.974   6.190  0.2148 -0.0685  0.1254
  556ERGO    R1 8148   7.392   6.034   6.433  0.1552  0.0807  0.1227
  556ERGO    R2 8149   7.292   6.217   6.615  0.0569  0.1210  0.0367
  556ERGO    R3 8150   7.317   6.009   6.788  0.1068  0.1968  0.1197
  556ERGO    R4 8151   7.324   6.250   6.957  0.1219  0.2579  0.0177
  556ERGO    R5 8152   7.471   6.089   6.954  0.1297  0.2718  0.0568
  556ERGO    C1 8153   7.365   6.074   7.320  0.2066  0.4087  0.0845
  556ERGO    C2 8154   7.505   6.148   7.664  0.0496 -0.2346  0.0385
  557ERGO   ROH 8155  10.704  14.015   9.246  0.0609 -0.2433 -0.0039
  557ERGO    R1 8156  10.611  14.029   8.979 -0.0363 -0.1092  0.0355
  557ERGO    R2 8157  10.459  14.240   8.886  0.0780  0.0296  0.1466
  557ERGO    R3 8158  10.653  14.254   8.696  0.0169 -0.0685  0.0771
  557ERGO    R4 8159  10.415  14.363   8.566  0.0078 -0.0448  0.1283
  557ERGO    R5 8160  10.541  14.202   8.491 -0.0599 -0.0924  0.1289
  557ERGO    C1 8161  10.571  14.448   8.201 -0.0905 -0.1798  0.0523
  557ERGO    C2 8162  10.702  14.445   7.809  0.0486 -0.1397  0.2624
  558ERGO   ROH 8163   3.689   2.703   6.686 -0.0322  0.1768  0.0041
  558ERGO    R1 8164   3.631   2.743   6.961  0.0750 -0.0228  0.0584
  558ERGO    R2 8165   3.828   2.774   7.152  0.1533  0.1705 -0.0468
  558ERGO    R3 8166   3.692   3.002   7.209 -0.1361 -0.0390  0.1287
  558ERGO    R4 8167   3.822   2.929   7.460  0.1179  0.0391  0.0190
  558ERGO    R5 8168   3.610   2.969   7.431  0.0413 -0.2445  0.1651
  558ERGO    C1 8169   3.691   3.234   7.693 -0.1744 -0.2340  0.2220
  558ERGO    C2 8170   3.808   3.579   7.797 -0.1581 -0.2860 -0.3568
  559ERGO   ROH 8171  12.838  16.056   6.055 -0.1023  0.2274 -0.1946
  559ERGO    R1 8172  12.957  16.172   6.284  0.0938  0.1098 -0.2350
  559ERGO    R2 8173  13.084  16.416   6.278  0.0706  0.1206 -0.2109
  559ERGO    R3 8174  12.913  16.475   6.481  0.2491 -0.0011 -0.0258
  559ERGO    R4 8175  13.088  16.710   6.461  0.1029  0.1018 -0.1810
  559ERGO    R5 8176  13.048  16.592   6.640  0.3542  0.0544 -0.1521
  559ERGO    C1 8177  12.929  16.936   6.757  0.2892 -0.0236  0.0103
  559ERGO    C2 8178  12.941  17.196   6.976 -0.1197  0.5059  0.1267
  560ERGO   ROH 8179   6.155   1.812   6.474  0.1728  0.2305  0.0789
  560ERGO    R1 8180   6.205   1.799   6.752  0.1925  0.4624  0.0877
  560ERGO    R2 8181   6.120   1.994   6.928 -0.2944  0.3363  0.0033
  560ERGO    R3 8182   6.006   1.783   7.056  0.2034  0.0998  0.0813
  560ERGO    R4 8183   5.995   2.003   7.250 -0.4157  0.1975 -0.0383
  560ERGO    R5 8184   6.080   1.805   7.283  0.0908  0.4173  0.0942
  560ERGO    C1 8185   5.816   1.811   7.558 -0.0189 -0.1054  0.0108
  560ERGO    C2 8186   5.701   1.644   7.648 -0.1853 -0.1184 -0.0662
  561ERGO   ROH 8187  10.514   9.509   6.421  0.1009  0.0062 -0.0053
  561ERGO    R1 8188  10.418   9.672   6.631  0.0000  0.0301 -0.0693
  561ERGO    R2 8189  10.219   9.591   6.804 -0.0271  0.0186 -0.1063
  561ERGO    R3 8190  10.402   9.654   6.994 -0.0964  0.1098 -0.0690
  561ERGO    R4 8191  10.150   9.621   7.141 -0.1112 -0.0160 -0.1200
  561ERGO    R5 8192  10.282   9.794   7.147 -0.1982  0.0505 -0.0928
  561ERGO    C1 8193  10.282   9.697   7.516 -0.2253  0.0495 -0.0931
  561ERGO    C2 8194  10.339   9.515   7.819 -0.0660 -0.0777 -0.0555
  562ERGO   ROH 8195  15.835  11.837   6.421  0.0943 -0.2314 -0.1554
  562ERGO    R1 8196  15.913  11.794   6.690  0.1942 -0.1485 -0.1719
  562ERGO    R2 8197  16.170  11.841   6.780  0.1666  0.0950 -0.2338
  562ERGO    R3 8198  16.043  11.997   6.963  0.0662 -0.0175 -0.2046
  562ERGO    R4 8199  16.286  11.905   7.099  0.0760  0.0074 -0.1817
  562ERGO    R5 8200  16.081  11.886   7.172  0.0576 -0.0922 -0.2362
  562ERGO    C1 8201  16.233  12.089   7.457 -0.0710 -0.1492 -0.1240
  562ERGO    C2 8202  16.279  12.100   7.859 -0.1609 -0.0188 -0.0296
  563ERGO   ROH 8203   4.122   6.090   9.807  0.0775 -0.0833 -0.0620
  563ERGO    R1 8204   3.956   5.945   9.629 -0.0268 -0.0643  0.0186
  563ERGO    R2 8205   3.755   6.064   9.482 -0.0126 -0.0213  0.0350
  563ERGO    R3 8206   3.884   5.948   9.272 -0.1120 -0.1343  0.0346
  563ERGO    R4 8207   3.662   6.095   9.151  0.0044  0.0488  0.0365
  563ERGO    R5 8208   3.709   5.884   9.122 -0.1705  0.0069  0.0402
  563ERGO    C1 8209   3.729   6.005   8.761 -0.0791 -0.0164  0.0370
  563ERGO    C2 8210   3.541   6.085   8.577 -0.0536 -0.0174  0.0705
  564ERGO   ROH 8211  18.148   3.174  10.175  0.3003  0.2017 -0.3830
  564ERGO    R1 8212  18.050   3.114   9.916  0.2380 -0.1186 -0.2899
  564ERGO    R2 8213  18.033   2.855   9.820  0.0774 -0.2564  0.0828
  564ERGO    R3 8214  17.774   2.924   9.775  0.1123 -0.1676  0.0179
  564ERGO    R4 8215  17.822   2.693   9.600 -0.0196 -0.3737  0.2602
  564ERGO    R5 8216  17.743   2.888   9.540  0.0831 -0.3974  0.0584
  564ERGO    C1 8217  17.455   2.663   9.429 -0.0434 -0.3587  0.3026
  564ERGO    C2 8218  17.233   2.328   9.393  0.1536  0.1082  0.0948
  565ERGO   ROH 8219   1.648   6.657   6.076  0.0167 -0.0720 -0.0836
  565ERGO    R1 8220   1.811   6.671   6.308 -0.1061  0.0887 -0.0050
  565ERGO    R2 8221   1.756   6.842   6.518 -0.3241  0.1038 -0.0696
  565ERGO    R3 8222   1.768   6.613   6.665 -0.2472  0.1430 -0.0133
  565ERGO    R4 8223   1.809   6.829   6.859 -0.3206  0.1983 -0.0662
  565ERGO    R5 8224   1.938   6.656   6.827 -0.2635  0.2362 -0.0229
  565ERGO    C1 8225   1.851   6.608   7.196 -0.2463  0.2903 -0.0112
  565ERGO    C2 8226   1.754   6.756   7.522  0.0710  0.2437  0.0655
  566ERGO   ROH 8227   6.493   7.247   9.434 -0.1283 -0.2109 -0.0451
  566ERGO    R1 8228   6.436   7.176   9.166  0.0596 -0.2931 -0.0651
  566ERGO    R2 8229   6.454   7.356   8.957 -0.1707 -0.2511 -0.0521
  566ERGO    R3 8230   6.618   7.167   8.851  0.1671  0.0114 -0.0144
  566ERGO    R4 8231   6.523   7.321   8.621 -0.1739 -0.2454 -0.0532
  566ERGO    R5 8232   6.512   7.105   8.645  0.2367 -0.2647  0.0294
  566ERGO    C1 8233   6.718   7.124   8.325  0.1414  0.0043 -0.0183
  566ERGO    C2 8234   6.835   7.163   8.062 -0.3481  0.1139 -0.0340
  567ERGO   ROH 8235  16.253  14.080   9.442 -0.1418  0.0870 -0.0549
  567ERGO    R1 8236  16.425  14.116   9.220 -0.1376  0.1929 -0.0347
  567ERGO    R2 8237  16.464  13.921   9.029  0.1104  0.1628  0.0446
  567ERGO    R3 8238  16.393  14.120   8.857 -0.0733  0.0246 -0.0432
  567ERGO    R4 8239  16.484  13.901   8.684  0.3871  0.1229  0.0608
  567ERGO    R5 8240  16.555  14.107   8.682  0.0760  0.2362  0.0745
  567ERGO    C1 8241  16.429  14.076   8.323  0.3758 -0.0301 -0.0122
  567ERGO    C2 8242  16.363  13.871   7.991  0.1045  0.0529 -0.1106
  568ERGO   ROH 8243  10.328  15.598   9.569 -0.0576  0.2830 -0.0727
  568ERGO    R1 8244  10.471  15.599   9.325 -0.1231  0.1834 -0.1114
  568ERGO    R2 8245  10.526  15.368   9.183 -0.0048  0.1048  0.0627
  568ERGO    R3 8246  10.406  15.504   8.980 -0.1500 -0.1403 -0.0205
  568ERGO    R4 8247  10.584  15.311   8.847  0.1493  0.0466  0.0978
  568ERGO    R5 8248  10.579  15.527   8.815 -0.1420  0.0313  0.0091
  568ERGO    C1 8249  10.506  15.404   8.461  0.1025 -0.2173  0.0401
  568ERGO    C2 8250  10.667  15.384   8.137  0.0970 -0.1808 -0.0161
  569ERGO   ROH 8251   2.186  14.086   6.348  0.0722 -0.0048  0.0640
  569ERGO    R1 8252   2.194  14.248   6.580  0.0816 -0.0343  0.0852
  569ERGO    R2 8253   1.973  14.289   6.741  0.0597  0.0279  0.0450
  569ERGO    R3 8254   2.140  14.201   6.937 -0.0121 -0.0582  0.0674
  569ERGO    R4 8255   1.978  14.410   7.065  0.0545 -0.0038  0.0562
  569ERGO    R5 8256   2.196  14.399   7.061  0.0490 -0.0943  0.0947
  569ERGO    C1 8257   2.138  14.398   7.438 -0.0160 -0.1030  0.0838
  569ERGO    C2 8258   2.042  14.237   7.843 -0.2042  0.0064 -0.2569
  570ERGO   ROH 8259   2.363   6.060   9.760  0.0414 -0.0207  0.0435
  570ERGO    R1 8260   2.183   6.057   9.541 -0.0363 -0.2294  0.1083
  570ERGO    R2 8261   2.253   6.146   9.290 -0.2509 -0.0808  0.0993
  570ERGO    R3 8262   2.168   5.900   9.213  0.0646 -0.1891  0.0839
  570ERGO    R4 8263   2.307   6.007   8.978 -0.1212  0.0324  0.0700
  570ERGO    R5 8264   2.104   5.927   8.984 -0.0176 -0.2429  0.0993
  570ERGO    C1 8265   2.259   5.694   8.725  0.2504 -0.0034  0.0384
  570ERGO    C2 8266   2.185   5.549   8.393  0.0645 -0.0952  0.0383
  571ERGO   ROH 8267   9.049   0.217   9.924  0.0957 -0.0754 -0.0148
  571ERGO    R1 8268   8.893   0.303   9.704  0.1056 -0.2138 -0.0774
  571ERGO    R2 8269   8.954   0.236   9.443  0.0864 -0.4251 -0.0311
  571ERGO    R3 8270   8.698   0.146   9.440  0.0696 -0.3807  0.0479
  571ERGO    R4 8271   8.765   0.188   9.158 -0.0731 -0.2270  0.0391
  571ERGO    R5 8272   8.593   0.270   9.264 -0.0035 -0.2611  0.1758
  571ERGO    C1 8273   8.414   0.076   8.989 -0.1816 -0.0698  0.1541
  571ERGO    C2 8274   8.309   0.036   8.694 -0.0065 -0.2381 -0.2354
  572ERGO   ROH 8275   6.709   9.111   9.701 -0.1654  0.0574  0.0127
  572ERGO    R1 8276   6.718   9.008   9.438  0.1742 -0.1070  0.0835
  572ERGO    R2 8277   6.569   9.115   9.231 -0.0011 -0.5854 -0.0486
  572ERGO    R3 8278   6.811   9.132   9.108  0.0191 -0.1098  0.0369
  572ERGO    R4 8279   6.617   9.168   8.892  0.0161 -0.4558 -0.0271
  572ERGO    R5 8280   6.780   9.023   8.898  0.2973 -0.1528  0.0117
  572ERGO    C1 8281   6.872   9.214   8.581  0.0451  0.0662  0.0658
  572ERGO    C2 8282   6.905   9.063   8.297 -0.1340 -0.0562 -0.0377
  573ERGO   ROH 8283   9.152  15.285   5.886  0.2246  0.2472 -0.0129
  573ERGO    R1 8284   9.050  15.170   6.124  0.0453  0.1573 -0.1309
  573ERGO    R2 8285   9.196  15.161   6.359 -0.0608 -0.0957 -0.0745
  573ERGO    R3 8286   8.976  15.284   6.462 -0.0225 -0.0169 -0.0853
  573ERGO    R4 8287   9.132  15.200   6.696 -0.1823 -0.3052 -0.0715
  573ERGO    R5 8288   8.922  15.155   6.657 -0.2007 -0.1292 -0.2037
  573ERGO    C1 8289   8.888  15.338   6.990 -0.2172 -0.3533 -0.0799
  573ERGO    C2 8290   8.949  15.355   7.313  0.0327 -0.0268  0.1699
  574ERGO   ROH 8291   5.757   2.562   9.854 -0.2120  0.1381  0.0665
  574ERGO    R1 8292   5.755   2.749   9.642 -0.1312  0.0811  0.0147
  574ERGO    R2 8293   5.885   2.704   9.403 -0.0507  0.0105  0.0698
  574ERGO    R3 8294   5.641   2.756   9.297 -0.0128 -0.0078 -0.0268
  574ERGO    R4 8295   5.831   2.824   9.083  0.0681  0.0726  0.0727
  574ERGO    R5 8296   5.675   2.953   9.164  0.0109  0.0270  0.0324
  574ERGO    C1 8297   5.570   2.944   8.798  0.1728  0.0916 -0.0163
  574ERGO    C2 8298   5.554   2.941   8.476  0.3765  0.0891  0.0039
  575ERGO   ROH 8299  17.546   9.939   6.419  0.1097  0.2853  0.0248
  575ERGO    R1 8300  17.689   9.980   6.660  0.1157  0.2109  0.0350
  575ERGO    R2 8301  17.590   9.901   6.906  0.1367  0.0922  0.0094
  575ERGO    R3 8302  17.828   9.770   6.924  0.1627  0.1215 -0.0589
  575ERGO    R4 8303  17.732   9.788   7.200  0.0588 -0.2018 -0.0639
  575ERGO    R5 8304  17.926   9.853   7.126  0.0763 -0.0747  0.0695
  575ERGO    C1 8305  18.038   9.599   7.388  0.0380 -0.3454 -0.1707
  575ERGO    C2 8306  18.312   9.426   7.543 -0.0858 -0.0598  0.0756
  576ERGO   ROH 8307   9.078   1.030   6.716 -0.2580  0.0443  0.0456
  576ERGO    R1 8308   8.986   0.966   6.977 -0.4298  0.0432 -0.0144
  576ERGO    R2 8309   9.095   1.079   7.204 -0.2668 -0.2978  0.0789
  576ERGO    R3 8310   8.837   1.146   7.256 -0.1631  0.1438  0.0683
  576ERGO    R4 8311   8.983   1.218   7.500 -0.0784 -0.3731  0.1881
  576ERGO    R5 8312   8.806   1.090   7.487 -0.3266 -0.0333  0.0095
  576ERGO    C1 8313   8.675   1.362   7.721  0.1286 -0.0024  0.2417
  576ERGO    C2 8314   8.835   1.441   8.109  0.1228 -0.1855  0.1018
  577ERGO   ROH 8315  11.455  13.223   9.467  0.1561  0.1161  0.0031
  577ERGO    R1 8316  11.543  13.127   9.215  0.0773  0.0360  0.0052
  577ERGO    R2 8317  11.416  13.193   8.978  0.1079  0.1048  0.0055
  577ERGO    R3 8318  11.665  13.273   8.905  0.1596 -0.0700 -0.0121
  577ERGO    R4 8319  11.508  13.287   8.659  0.1466  0.0724  0.0074
  577ERGO    R5 8320  11.696  13.181   8.687  0.0709 -0.0678 -0.0240
  577ERGO    C1 8321  11.795  13.417   8.404  0.2179 -0.1104 -0.0079
  577ERGO    C2 8322  11.641  13.463   8.046 -0.0528  0.1399 -0.0603
  578ERGO   ROH 8323  11.335  14.150   9.660 -0.0415 -0.2067 -0.0559
  578ERGO    R1 8324  11.243  14.206   9.398  0.2701 -0.0538 -0.1355
  578ERGO    R2 8325  11.402  14.172   9.174  0.2849 -0.7311 -0.0339
  578ERGO    R3 8326  11.194  14.019   9.090 -0.2107 -0.0975 -0.0422
  578ERGO    R4 8327  11.293  14.151   8.847  0.4697 -0.6368 -0.1040
  578ERGO    R5 8328  11.088  14.152   8.921  0.3782  0.1512 -0.2519
  578ERGO    C1 8329  11.034  13.996   8.577  0.1121  0.0130 -0.1527
  578ERGO    C2 8330  10.980  14.160   8.287 -0.2038 -0.0035  0.0147
  579ERGO   ROH 8331   4.219  13.310   6.379 -0.1670  0.1136  0.2515
  579ERGO    R1 8332   4.373  13.337   6.616 -0.1667 -0.1107  0.2795
  579ERGO    R2 8333   4.311  13.204   6.849 -0.1850 -0.3089  0.1627
  579ERGO    R3 8334   4.569  13.119   6.831 -0.1941 -0.3231  0.0929
  579ERGO    R4 8335   4.473  13.010   7.086 -0.0669 -0.1413  0.2217
  579ERGO    R5 8336   4.652  13.131   7.055 -0.0803 -0.1624  0.0445
  579ERGO    C1 8337   4.808  12.818   7.206 -0.0067 -0.0570  0.1905
  579ERGO    C2 8338   5.031  12.727   7.436 -0.0463  0.2157 -0.0197
  580ERGO   ROH 8339   8.826   1.789   9.824 -0.0897  0.0671 -0.1340
  580ERGO    R1 8340   8.705   1.678   9.593 -0.1428  0.0828 -0.1150
  580ERGO    R2 8341   8.502   1.805   9.455 -0.0083  0.2099 -0.2062
  580ERGO    R3 8342   8.668   1.770   9.243  0.0082 -0.0173 -0.1571
  580ERGO    R4 8343   8.412   1.847   9.124  0.1392  0.2939 -0.2360
  580ERGO    R5 8344   8.530   1.671   9.075 -0.0679  0.1415 -0.1864
  580ERGO    C1 8345   8.515   1.839   8.733  0.2406  0.1295 -0.2071
  580ERGO    C2 8346   8.611   1.792   8.400  0.1340  0.0391  0.4649
  581ERGO   ROH 8347   3.255   9.996   9.410  0.0849  0.0140 -0.1547
  581ERGO    R1 8348   3.330   9.941   9.142  0.3332  0.1675 -0.1219
  581ERGO    R2 8349   3.148   9.866   8.949  0.5941 -0.4543 -0.1645
  581ERGO    R3 8350   3.253  10.076   8.813 -0.0049 -0.1408 -0.1724
  581ERGO    R4 8351   3.209   9.870   8.609  0.8722 -0.4056 -0.1146
  581ERGO    R5 8352   3.396   9.976   8.649  0.4919  0.2636 -0.0051
  581ERGO    C1 8353   3.343  10.070   8.283  0.4719 -0.0828 -0.0929
  581ERGO    C2 8354   3.314  10.136   7.939 -0.2614  0.0539 -0.1547
  582ERGO   ROH 8355   0.553   9.832   9.587  0.0671  0.1699 -0.1409
  582ERGO    R1 8356   0.547   9.939   9.325 -0.2126 -0.0033 -0.2089
  582ERGO    R2 8357   0.777   9.992   9.182 -0.3406  0.4899 -0.2373
  582ERGO    R3 8358   0.658   9.835   8.995  0.0474  0.0617 -0.1471
  582ERGO    R4 8359   0.834  10.014   8.842 -0.4908  0.5371 -0.2614
  582ERGO    R5 8360   0.620   9.983   8.810 -0.4337 -0.0954 -0.1941
  582ERGO    C1 8361   0.754   9.880   8.468 -0.2140  0.1626 -0.1905
  582ERGO    C2 8362   0.861   9.852   8.050  0.1431  0.0832 -0.0563
  583ERGO   ROH 8363  13.892  15.731   6.065 -0.2996  0.1516 -0.0386
  583ERGO    R1 8364  13.761  15.799   6.307 -0.2319  0.0937  0.0151
  583ERGO    R2 8365  13.695  15.611   6.498 -0.2579  0.0342 -0.0509
  583ERGO    R3 8366  13.834  15.778   6.662 -0.1718 -0.0804 -0.0067
  583ERGO    R4 8367  13.708  15.584   6.843 -0.2792 -0.0600 -0.0576
  583ERGO    R5 8368  13.694  15.801   6.855 -0.1637 -0.0547 -0.0035
  583ERGO    C1 8369  13.845  15.725   7.197 -0.2108 -0.2223 -0.0200
  583ERGO    C2 8370  13.805  15.676   7.447  0.1374  0.1613 -0.0710
  584ERGO   ROH 8371  12.090   0.938   9.812 -0.0960 -0.1197 -0.1009
  584ERGO    R1 8372  12.189   1.054   9.574 -0.1195  0.1535  0.0188
  584ERGO    R2 8373  12.181   0.923   9.331  0.2184  0.2683 -0.0519
  584ERGO    R3 8374  12.053   1.148   9.250 -0.0634  0.1283 -0.0150
  584ERGO    R4 8375  12.090   0.992   9.004  0.4076  0.3217 -0.0949
  584ERGO    R5 8376  12.151   1.199   9.037  0.0625  0.4104  0.0971
  584ERGO    C1 8377  11.918   1.244   8.738  0.2531  0.2215 -0.0853
  584ERGO    C2 8378  11.634   1.292   8.469  0.0102  0.0279 -0.1899
  585ERGO   ROH 8379   7.608  16.357   9.551  0.0743 -0.0402  0.0935
  585ERGO    R1 8380   7.509  16.384   9.287  0.0347 -0.0381  0.1077
  585ERGO    R2 8381   7.451  16.630   9.174  0.0400 -0.0324  0.1080
  585ERGO    R3 8382   7.619  16.543   8.979  0.0034 -0.0573  0.0883
  585ERGO    R4 8383   7.441  16.732   8.844 -0.0981 -0.1809  0.0655
  585ERGO    R5 8384   7.481  16.527   8.784 -0.0496 -0.1880  0.1403
  585ERGO    C1 8385   7.592  16.710   8.468 -0.2127 -0.2907  0.0222
  585ERGO    C2 8386   7.429  16.664   8.111  0.0761 -0.2781 -0.0638
  586ERGO   ROH 8387   0.876  13.637   9.562 -0.0420 -0.3282  0.1695
  586ERGO    R1 8388   0.852  13.432   9.368 -0.0516 -0.2500  0.0880
  586ERGO    R2 8389   0.639  13.256   9.363 -0.0840 -0.2073 -0.0113
  586ERGO    R3 8390   0.616  13.343   9.106 -0.0289 -0.1060  0.0171
  586ERGO    R4 8391   0.516  13.068   9.100 -0.1221 -0.0710 -0.0926
  586ERGO    R5 8392   0.672  13.152   8.973 -0.0803 -0.0772 -0.0467
  586ERGO    C1 8393   0.423  13.039   8.707 -0.0925  0.1036 -0.1133
  586ERGO    C2 8394   0.270  13.031   8.376 -0.0974 -0.1387  0.0580
  587ERGO   ROH 8395  17.619   3.628   6.292  0.1084  0.0532  0.1273
  587ERGO    R1 8396  17.552   3.779   6.521  0.0888 -0.1375  0.2487
  587ERGO    R2 8397  17.638   3.711   6.775  0.5920 -0.0088  0.1216
  587ERGO    R3 8398  17.732   3.966   6.776  0.0416  0.2081  0.0354
  587ERGO    R4 8399  17.656   3.913   7.055  0.5507 -0.0300  0.1402
  587ERGO    R5 8400  17.590   4.081   6.932  0.0031 -0.1352  0.2644
  587ERGO    C1 8401  17.754   4.270   7.219  0.0098  0.1613  0.0703
  587ERGO    C2 8402  17.805   4.487   7.562 -0.0299 -0.3577 -0.1577
  588ERGO   ROH 8403   9.568  14.735   9.349 -0.0926  0.2040 -0.0798
  588ERGO    R1 8404   9.625  14.674   9.079 -0.2434  0.0512 -0.0786
  588ERGO    R2 8405   9.441  14.713   8.876 -0.2315  0.2901 -0.0490
  588ERGO    R3 8406   9.643  14.857   8.764 -0.0252 -0.0455 -0.1230
  588ERGO    R4 8407   9.474  14.779   8.538 -0.2416  0.2432 -0.0593
  588ERGO    R5 8408   9.688  14.745   8.557 -0.2876 -0.1191 -0.1418
  588ERGO    C1 8409   9.682  14.953   8.237 -0.0539 -0.0992 -0.1348
  588ERGO    C2 8410   9.766  14.997   7.921  0.1971  0.0817 -0.1972
  589ERGO   ROH 8411  12.094   3.203   6.715  0.2099  0.0761  0.1449
  589ERGO    R1 8412  11.961   3.224   6.963  0.2698  0.2254  0.1660
  589ERGO    R2 8413  11.811   3.018   7.071 -0.0800  0.4386  0.1153
  589ERGO    R3 8414  11.974   3.055   7.285  0.0170  0.0923  0.1072
  589ERGO    R4 8415  11.731   2.934   7.396  0.0061  0.0789  0.0480
  589ERGO    R5 8416  11.825   3.119   7.462  0.1196 -0.0508  0.2432
  589ERGO    C1 8417  11.837   2.921   7.787  0.1473 -0.4556  0.0012
  589ERGO    C2 8418  11.663   2.684   7.913 -0.2101 -0.4275  0.2273
  590ERGO   ROH 8419  11.997   9.763   6.436 -0.3431  0.0123 -0.0515
  590ERGO    R1 8420  12.005   9.976   6.622 -0.2807  0.2127 -0.2801
  590ERGO    R2 8421  11.779  10.113   6.701 -0.3255 -0.0134 -0.0053
  590ERGO    R3 8422  11.865  10.047   6.950  0.2281  0.3501 -0.0819
  590ERGO    R4 8423  11.695  10.284   6.990 -0.4496 -0.1161  0.0202
  590ERGO    R5 8424  11.901  10.258   7.058 -0.2521  0.5312 -0.2429
  590ERGO    C1 8425  11.727  10.321   7.392 -0.0021  0.1654 -0.0368
  590ERGO    C2 8426  11.623  10.439   7.671  0.3026  0.0029 -0.0703
  591ERGO   ROH 8427   3.882   8.798   6.580  0.2501 -0.1647 -0.1979
  591ERGO    R1 8428   3.891   8.849   6.858  0.0288  0.0977 -0.2351
  591ERGO    R2 8429   4.128   8.869   6.998 -0.0852 -0.1700  0.0004
  591ERGO    R3 8430   4.026   9.109   7.075  0.2321  0.0923 -0.3508
  591ERGO    R4 8431   4.239   9.052   7.269 -0.2713 -0.2584  0.1386
  591ERGO    R5 8432   4.031   9.100   7.315 -0.2894  0.1979 -0.3217
  591ERGO    C1 8433   4.207   9.383   7.500 -0.0817 -0.0635 -0.1106
  591ERGO    C2 8434   4.437   9.626   7.421 -0.2606  0.2312 -0.1898
  592ERGO   ROH 8435  15.741  16.778   8.689 -0.3826  0.0315 -0.1060
  592ERGO    R1 8436  15.962  16.721   8.522 -0.1267 -0.0040  0.2333
  592ERGO    R2 8437  15.964  16.783   8.253  0.0563 -0.5395  0.1029
  592ERGO    R3 8438  16.194  16.912   8.317 -0.1825 -0.0850  0.0910
  592ERGO    R4 8439  16.222  16.848   8.032  0.1194 -0.4809  0.1925
  592ERGO    R5 8440  16.363  16.799   8.191  0.0876 -0.0297  0.3833
  592ERGO    C1 8441  16.589  17.007   7.964 -0.0682 -0.0202  0.2336
  592ERGO    C2 8442  16.617  17.102   7.674  0.0284  0.1360  0.0804
  593ERGO   ROH 8443  11.613  16.887   6.449  0.0899  0.0051  0.0754
  593ERGO    R1 8444  11.528  16.772   6.694 -0.0556 -0.1049 -0.0236
  593ERGO    R2 8445  11.395  16.530   6.707  0.1642 -0.2448 -0.1907
  593ERGO    R3 8446  11.595  16.467   6.880  0.0533 -0.0610  0.0072
  593ERGO    R4 8447  11.382  16.274   6.939  0.1069 -0.1307 -0.0689
  593ERGO    R5 8448  11.482  16.405   7.082 -0.0759 -0.0133 -0.0550
  593ERGO    C1 8449  11.561  16.066   7.237 -0.0304  0.1081  0.1877
  593ERGO    C2 8450  11.501  15.788   7.399  0.1111  0.2969 -0.0321
  594ERGO   ROH 8451  17.195  13.560   5.927 -0.1800  0.1542  0.0165
  594ERGO    R1 8452  17.073  13.558   6.182  0.0087  0.3115  0.1105
  594ERGO    R2 8453  17.065  13.331   6.341 -0.1837  0.3128  0.0994
  594ERGO    R3 8454  17.178  13.496   6.525  0.1866  0.1479  0.0296
  594ERGO    R4 8455  17.086  13.264   6.679 -0.0317  0.2613  0.0811
  594ERGO    R5 8456  17.039  13.474   6.719  0.2897  0.3325  0.1309
  594ERGO    C1 8457  17.204  13.380   7.049  0.4041  0.0764  0.0049
  594ERGO    C2 8458  17.152  13.158   7.365  0.3399 -0.1677  0.2993
  595ERGO   ROH 8459  17.857  16.800   6.563  0.0937  0.0362  0.0132
  595ERGO    R1 8460  17.808  16.559   6.704  0.0444  0.0309 -0.0126
  595ERGO    R2 8461  17.934  16.498   6.942  0.0006 -0.0015  0.0025
  595ERGO    R3 8462  17.680  16.466   7.031 -0.0171  0.0211 -0.0396
  595ERGO    R4 8463  17.841  16.295   7.205 -0.0817 -0.1138 -0.1125
  595ERGO    R5 8464  17.665  16.235   7.090 -0.0864 -0.0065 -0.1614
  595ERGO    C1 8465  17.547  16.146   7.442 -0.1461 -0.1581 -0.2189
  595ERGO    C2 8466  17.488  15.987   7.764 -0.1260 -0.0958  0.0435
  596ERGO   ROH 8467  13.590  16.492   9.762 -0.0058 -0.1272 -0.1546
  596ERGO    R1 8468  13.724  16.545   9.518  0.1322 -0.1297 -0.0809
  596ERGO    R2 8469  13.892  16.363   9.397 -0.0054 -0.2358 -0.1179
  596ERGO    R3 8470  13.730  16.403   9.183  0.1048  0.0385 -0.1532
  596ERGO    R4 8471  13.952  16.242   9.079 -0.1211 -0.3018 -0.1151
  596ERGO    R5 8472  13.881  16.432   8.999  0.1942 -0.1802 -0.1158
  596ERGO    C1 8473  13.834  16.211   8.692 -0.0852 -0.0828 -0.1467
  596ERGO    C2 8474  13.801  16.128   8.295  0.4390 -0.1651 -0.1546
  597ERGO   ROH 8475   1.109   5.237   9.994  0.1325 -0.1485 -0.0425
  597ERGO    R1 8476   0.992   5.120   9.765  0.1207 -0.2394  0.0103
  597ERGO    R2 8477   0.926   5.267   9.540 -0.1006 -0.2903  0.0458
  597ERGO    R3 8478   1.080   5.082   9.414 -0.0117 -0.1652 -0.0331
  597ERGO    R4 8479   0.932   5.213   9.198 -0.1333 -0.1815  0.0269
  597ERGO    R5 8480   0.942   4.999   9.237 -0.0011 -0.1934 -0.0343
  597ERGO    C1 8481   1.079   5.007   8.881 -0.0689 -0.0007 -0.0580
  597ERGO    C2 8482   1.098   4.792   8.524  0.3859  0.0982  0.2965
  598ERGO   ROH 8483   1.376  10.050   6.414 -0.0037  0.0565 -0.0591
  598ERGO    R1 8484   1.235  10.193   6.613 -0.0075  0.0402 -0.0498
  598ERGO    R2 8485   1.178  10.087   6.862 -0.1089 -0.0208 -0.0984
  598ERGO    R3 8486   1.302  10.312   6.951 -0.0558 -0.0908  0.0063
  598ERGO    R4 8487   1.171  10.201   7.188 -0.1159 -0.1492 -0.0532
  598ERGO    R5 8488   1.151  10.404   7.112 -0.0494 -0.1123  0.0248
  598ERGO    C1 8489   1.284  10.478   7.461 -0.0701 -0.2897  0.0714
  598ERGO    C2 8490   1.340  10.568   7.807 -0.1984 -0.0143  0.0734
  599ERGO   ROH 8491   3.847   0.815   6.421  0.2307  0.1964 -0.0225
  599ERGO    R1 8492   3.967   0.768   6.673  0.2164 -0.0578 -0.0605
  599ERGO    R2 8493   3.825   0.778   6.910  0.2832  0.1138 -0.0262
  599ERGO    R3 8494   3.928   0.529   6.943 -0.1060 -0.0652 -0.1101
  599ERGO    R4 8495   3.862   0.618   7.214  0.2732  0.0631 -0.0518
  599ERGO    R5 8496   4.054   0.543   7.146  0.0953 -0.2678 -0.2160
  599ERGO    C1 8497   3.979   0.291   7.423 -0.0980 -0.1345 -0.1453
  599ERGO    C2 8498   3.936   0.014   7.754  0.1606  0.1166 -0.0430
  600ERGO   ROH 8499   8.974  17.918   6.471  0.2310 -0.4584 -0.1701
  600ERGO    R1 8500   9.020  17.935   6.750  0.3503 -0.1851 -0.2052
  600ERGO    R2 8501   8.845  17.830   6.937  0.2994  0.2348 -0.0213
  600ERGO    R3 8502   9.067  17.701   7.024  0.1817  0.0797  0.0590
  600ERGO    R4 8503   8.859  17.629   7.217  0.1411  0.5710  0.2359
  600ERGO    R5 8504   9.054  17.715   7.263  0.2708  0.4057  0.0578
  600ERGO    C1 8505   9.075  17.391   7.463 -0.0613  0.6211  0.4611
  600ERGO    C2 8506   9.010  17.279   7.725  0.1578 -0.1083  0.0951
  601ERGO   ROH 8507  16.579  14.342   6.011 -0.1831 -0.1143  0.0181
  601ERGO    R1 8508  16.652  14.258   6.271 -0.2002 -0.1453  0.0138
  601ERGO    R2 8509  16.790  14.420   6.447  0.1051 -0.2844 -0.0830
  601ERGO    R3 8510  16.582  14.362   6.613  0.0796  0.0580  0.0108
  601ERGO    R4 8511  16.823  14.302   6.770  0.0502 -0.3925 -0.1173
  601ERGO    R5 8512  16.655  14.168   6.733 -0.2083 -0.0907 -0.0548
  601ERGO    C1 8513  16.647  14.178   7.114 -0.0060 -0.1341 -0.0493
  601ERGO    C2 8514  16.660  14.333   7.438 -0.0892  0.3750  0.2091
  602ERGO   ROH 8515  16.100  15.588   6.232 -0.0052 -0.3544  0.0717
  602ERGO    R1 8516  16.115  15.604   6.515 -0.1788 -0.1324  0.0729
  602ERGO    R2 8517  15.924  15.732   6.667 -0.3286 -0.0895 -0.1334
  602ERGO    R3 8518  15.913  15.494   6.796 -0.3042 -0.0008  0.0326
  602ERGO    R4 8519  15.790  15.684   6.982  0.1439  0.1934  0.1213
  602ERGO    R5 8520  15.955  15.548   7.026  0.1080  0.1013 -0.0650
  602ERGO    C1 8521  15.702  15.431   7.287  0.4417  0.4414  0.4254
  602ERGO    C2 8522  15.643  15.525   7.619 -0.0727  0.1220  0.1087
  603ERGO   ROH 8523   8.618   0.458   6.750 -0.1879  0.1810 -0.0005
  603ERGO    R1 8524   8.648   0.483   7.031 -0.0608 -0.0362  0.0077
  603ERGO    R2 8525   8.868   0.385   7.166  0.2084  0.2227 -0.2263
  603ERGO    R3 8526   8.885   0.640   7.258 -0.1960  0.1753  0.0063
  603ERGO    R4 8527   8.910   0.472   7.498  0.3299 -0.0288 -0.1729
  603ERGO    R5 8528   8.768   0.636   7.467 -0.0135 -0.2557  0.1115
  603ERGO    C1 8529   8.950   0.763   7.777  0.0210 -0.2198  0.0766
  603ERGO    C2 8530   9.041   0.965   7.984  0.0667 -0.0812  0.0555
  604ERGO   ROH 8531  17.076  15.404   9.639  0.2976  0.0139 -0.0726
  604ERGO    R1 8532  17.227  15.364   9.403  0.1454 -0.1980 -0.1380
  604ERGO    R2 8533  17.122  15.239   9.179 -0.1846  0.0908 -0.1603
  604ERGO    R3 8534  17.204  15.467   9.055  0.2306 -0.0113 -0.0885
  604ERGO    R4 8535  17.137  15.283   8.837 -0.3721  0.2639 -0.1469
  604ERGO    R5 8536  17.325  15.390   8.863 -0.1001 -0.1753 -0.2354
  604ERGO    C1 8537  17.222  15.522   8.520 -0.0915  0.2688 -0.0717
  604ERGO    C2 8538  17.167  15.510   8.245 -0.2672  0.2328  0.1702
  605ERGO   ROH 8539  12.298  16.382   9.398  0.0710  0.0226 -0.1899
  605ERGO    R1 8540  12.287  16.303   9.127 -0.0008  0.1938 -0.2380
  605ERGO    R2 8541  12.244  16.482   8.921  0.2981  0.3808 -0.1425
  605ERGO    R3 8542  12.474  16.375   8.823  0.1612  0.0957 -0.1632
  605ERGO    R4 8543  12.343  16.495   8.590  0.3511  0.3793 -0.1276
  605ERGO    R5 8544  12.412  16.289   8.608  0.0608  0.2690 -0.2053
  605ERGO    C1 8545  12.615  16.402   8.305  0.2535  0.1107 -0.1383
  605ERGO    C2 8546  12.824  16.352   7.971  0.0170  0.0350 -0.0052
  606ERGO   ROH 8547  16.176   0.743   6.897 -0.3751 -0.0489  0.0430
  606ERGO    R1 8548  16.109   0.575   7.115 -0.4707 -0.1702 -0.0771
  606ERGO    R2 8549  16.168   0.641   7.377  0.0148 -0.6114 -0.0535
  606ERGO    R3 8550  15.901   0.600   7.413 -0.0473 -0.0568  0.2155
  606ERGO    R4 8551  16.025   0.491   7.654 -0.0122 -0.4901 -0.0024
  606ERGO    R5 8552  15.887   0.388   7.522 -0.3913 -0.1034  0.0805
  606ERGO    C1 8553  15.692   0.366   7.849 -0.0863  0.1011  0.2799
  606ERGO    C2 8554  15.442   0.125   8.062  0.1186  0.2819  0.2293
  607ERGO   ROH 8555  11.503  12.026   6.364  0.1173 -0.0956 -0.2023
  607ERGO    R1 8556  11.357  11.975   6.601  0.1643 -0.0063 -0.1533
  607ERGO    R2 8557  11.296  11.720   6.687 -0.0543  0.0292 -0.1879
  607ERGO    R3 8558  11.416  11.803   6.916  0.1275 -0.1397 -0.2197
  607ERGO    R4 8559  11.231  11.592   7.001 -0.1994  0.1681 -0.1604
  607ERGO    R5 8560  11.242  11.795   7.081  0.1450  0.1607 -0.1834
  607ERGO    C1 8561  11.306  11.595   7.399 -0.1134  0.0904 -0.1741
  607ERGO    C2 8562  11.248  11.738   7.689  0.2919  0.1447  0.0336
  608ERGO   ROH 8563   8.502   6.863   6.305  0.1352  0.0973 -0.0695
  608ERGO    R1 8564   8.484   7.066   6.501  0.0709  0.0527 -0.0277
  608ERGO    R2 8565   8.245   7.139   6.619  0.0275  0.0375 -0.1000
  608ERGO    R3 8566   8.381   7.090   6.849 -0.0609 -0.0255 -0.0613
  608ERGO    R4 8567   8.135   7.224   6.935  0.0012  0.1323 -0.1350
  608ERGO    R5 8568   8.339   7.283   6.985  0.0235  0.0111 -0.0890
  608ERGO    C1 8569   8.198   7.228   7.336 -0.0970  0.1284 -0.1191
  608ERGO    C2 8570   8.021   7.360   7.699  0.1124  0.1179 -0.0955
  609ERGO   ROH 8571  16.408  16.150   9.831  0.2716 -0.2338  0.0280
  609ERGO    R1 8572  16.481  16.277   9.589  0.0449 -0.1418  0.0056
  609ERGO    R2 8573  16.730  16.246   9.474  0.0382  0.1303 -0.0902
  609ERGO    R3 8574  16.585  16.173   9.256  0.0324 -0.0154 -0.0383
  609ERGO    R4 8575  16.831  16.288   9.146 -0.0885  0.1683 -0.1250
  609ERGO    R5 8576  16.627  16.346   9.095 -0.1513 -0.0010 -0.0743
  609ERGO    C1 8577  16.754  16.244   8.750 -0.1679  0.0539 -0.0965
  609ERGO    C2 8578  16.835  16.343   8.431  0.0976 -0.0314  0.0938
  610ERGO   ROH 8579  11.048   1.050   6.728  0.0915  0.1858  0.0686
  610ERGO    R1 8580  10.951   1.009   6.991  0.1831  0.1355  0.0954
  610ERGO    R2 8581  10.897   0.757   7.092 -0.0322  0.1293 -0.0267
  610ERGO    R3 8582  11.064   0.837   7.292  0.1589 -0.1643 -0.0625
  610ERGO    R4 8583  10.907   0.619   7.409 -0.2873  0.1776  0.0042
  610ERGO    R5 8584  10.932   0.820   7.490  0.1358  0.1549 -0.0449
  610ERGO    C1 8585  11.069   0.614   7.780 -0.2565 -0.0699 -0.0114
  610ERGO    C2 8586  11.138   0.374   7.910 -0.0459  0.2903 -0.0379
  611ERGO   ROH 8587   8.691  13.023   5.882 -0.3692 -0.0306  0.1698
  611ERGO    R1 8588   8.807  13.018   6.140 -0.0760 -0.2993  0.0395
  611ERGO    R2 8589   8.689  13.139   6.358  0.4942  0.0722  0.1641
  611ERGO    R3 8590   8.716  12.892   6.469 -0.0505  0.0024  0.1657
  611ERGO    R4 8591   8.740  13.078   6.694  0.5490 -0.0227  0.1392
  611ERGO    R5 8592   8.881  12.921   6.640  0.1359 -0.3891  0.0648
  611ERGO    C1 8593   8.794  12.811   6.995  0.0695 -0.1436  0.1262
  611ERGO    C2 8594   8.792  12.591   7.336  0.0514  0.1131  0.1770
  612ERGO   ROH 8595  17.584  16.423   9.995 -0.0729 -0.0879 -0.0421
  612ERGO    R1 8596  17.722  16.363   9.756 -0.0992 -0.1971 -0.0295
  612ERGO    R2 8597  17.649  16.153   9.590 -0.3916 -0.0046 -0.1478
  612ERGO    R3 8598  17.642  16.348   9.401 -0.0230  0.1009 -0.0621
  612ERGO    R4 8599  17.774  16.122   9.270 -0.2113 -0.0057 -0.0792
  612ERGO    R5 8600  17.850  16.326   9.285  0.0337 -0.1007  0.0693
  612ERGO    C1 8601  17.840  16.287   8.905  0.2396  0.0928  0.0412
  612ERGO    C2 8602  17.979  16.390   8.640 -0.0751 -0.0690  0.2350
  613ERGO   ROH 8603  14.294   2.279   9.817  0.1546  0.0109  0.0913
  613ERGO    R1 8604  14.335   2.170   9.559  0.0733  0.0692  0.0525
  613ERGO    R2 8605  14.199   2.261   9.337  0.0554  0.1715  0.0999
  613ERGO    R3 8606  14.450   2.292   9.236  0.0467  0.1265  0.0658
  613ERGO    R4 8607  14.272   2.331   9.006  0.0302  0.1409  0.0884
  613ERGO    R5 8608  14.440   2.192   9.019  0.0072  0.1179  0.0746
  613ERGO    C1 8609  14.549   2.401   8.719  0.0073  0.0808  0.0496
  613ERGO    C2 8610  14.550   2.371   8.433 -0.1239 -0.0747  0.0368
  614ERGO   ROH 8611  18.280  18.367  10.027  0.0912 -0.0222 -0.0564
  614ERGO    R1 8612  18.297  18.243   9.773  0.1494 -0.0072 -0.0593
  614ERGO    R2 8613  18.130  18.309   9.564  0.0247 -0.1824 -0.0125
  614ERGO    R3 8614  18.364  18.350   9.431 -0.0529  0.0569 -0.0812
  614ERGO    R4 8615  18.158  18.354   9.222 -0.1237 -0.2332 -0.0320
  614ERGO    R5 8616  18.337  18.229   9.226  0.0270 -0.0289 -0.0459
  614ERGO    C1 8617  18.393  18.418   8.899 -0.2833 -0.0382 -0.1078
  614ERGO    C2 8618  18.300  18.448   8.501  0.3493  0.3349  0.2826
  615ERGO   ROH 8619   6.730   9.609   9.460 -0.1138 -0.3220 -0.0269
  615ERGO    R1 8620   6.717   9.544   9.185 -0.1234 -0.1907 -0.0578
  615ERGO    R2 8621   6.503   9.615   9.026 -0.1395 -0.1365 -0.0109
  615ERGO    R3 8622   6.695   9.727   8.870 -0.1612 -0.0414  0.0301
  615ERGO    R4 8623   6.468   9.683   8.689 -0.0405 -0.3253 -0.0604
  615ERGO    R5 8624   6.674   9.614   8.660  0.0361 -0.1617  0.0707
  615ERGO    C1 8625   6.629   9.828   8.346 -0.0033 -0.3461 -0.0508
  615ERGO    C2 8626   6.674  10.034   8.035 -0.1621  0.2988 -0.2196
  616ERGO   ROH 8627   0.056  12.673   6.038 -0.1769 -0.0943  0.1326
  616ERGO    R1 8628   0.216  12.712   6.268 -0.1018 -0.1619  0.0922
  616ERGO    R2 8629   0.218  12.950   6.409  0.1076 -0.1293  0.0356
  616ERGO    R3 8630   0.159  12.787   6.619  0.0240 -0.0346  0.0864
  616ERGO    R4 8631   0.237  13.041   6.742  0.0991 -0.0146  0.0047
  616ERGO    R5 8632   0.320  12.846   6.787  0.0252 -0.0300  0.0852
  616ERGO    C1 8633   0.192  12.943   7.133  0.0156  0.1410  0.0346
  616ERGO    C2 8634   0.345  12.928   7.462  0.0027  0.0319 -0.1252
  617ERGO   ROH 8635  15.540  17.900   6.435  0.0545  0.0704 -0.0368
  617ERGO    R1 8636  15.702  17.839   6.659  0.1124  0.2659 -0.0226
  617ERGO    R2 8637  15.695  17.987   6.892 -0.0455  0.2942 -0.0421
  617ERGO    R3 8638  15.647  17.745   7.006  0.1965  0.2584 -0.0117
  617ERGO    R4 8639  15.646  17.934   7.230 -0.0202  0.2887 -0.0395
  617ERGO    R5 8640  15.766  17.752   7.214  0.1706  0.4104 -0.0027
  617ERGO    C1 8641  15.572  17.675   7.534  0.2217  0.2519 -0.0094
  617ERGO    C2 8642  15.543  17.621   7.918 -0.0823  0.1296  0.0767
  618ERGO   ROH 8643   8.866  16.999   9.686 -0.2671 -0.1248  0.0384
  618ERGO    R1 8644   8.812  17.078   9.420 -0.0843  0.1225  0.0708
  618ERGO    R2 8645   8.993  17.219   9.266  0.1797 -0.0756  0.1941
  618ERGO    R3 8646   8.953  17.015   9.091 -0.1136  0.0860  0.0651
  618ERGO    R4 8647   9.125  17.203   8.947  0.0637 -0.0144  0.1424
  618ERGO    R5 8648   8.935  17.122   8.877 -0.0556  0.2533  0.1425
  618ERGO    C1 8649   9.164  17.003   8.596 -0.2792  0.1733 -0.0088
  618ERGO    C2 8650   9.255  16.781   8.290  0.0002  0.0361 -0.0215
  619ERGO   ROH 8651   9.469  11.883   6.217 -0.2287  0.0686  0.0374
  619ERGO    R1 8652   9.436  11.867   6.497 -0.1465  0.1103  0.0509
  619ERGO    R2 8653   9.195  11.919   6.622 -0.1623 -0.0510  0.1003
  619ERGO    R3 8654   9.235  11.672   6.729  0.0641  0.0039  0.1450
  619ERGO    R4 8655   9.117  11.828   6.946 -0.0924 -0.0768  0.1090
  619ERGO    R5 8656   9.302  11.714   6.954  0.0111  0.1004  0.1392
  619ERGO    C1 8657   9.110  11.543   7.235  0.1608 -0.0404  0.1559
  619ERGO    C2 8658   9.167  11.438   7.558  0.1653  0.2438 -0.0623
  620ERGO   ROH 8659  17.640   7.805   9.718  0.1856  0.0216 -0.0474
  620ERGO    R1 8660  17.603   7.814   9.437  0.1866 -0.0546 -0.0482
  620ERGO    R2 8661  17.554   8.050   9.301  0.0795 -0.1129 -0.0922
  620ERGO    R3 8662  17.768   7.971   9.153  0.1157 -0.0381 -0.0842
  620ERGO    R4 8663  17.601   8.125   8.967 -0.1585 -0.4364 -0.2053
  620ERGO    R5 8664  17.676   7.922   8.937  0.0692 -0.3986  0.0026
  620ERGO    C1 8665  17.829   8.094   8.634 -0.2631 -0.5546 -0.2634
  620ERGO    C2 8666  17.886   8.048   8.329  0.1026  0.1573 -0.1362
  621ERGO   ROH 8667   0.185   6.772   6.068  0.1344  0.2283  0.1052
  621ERGO    R1 8668   0.245   6.643   6.312  0.0842  0.1326  0.0663
  621ERGO    R2 8669   0.380   6.768   6.518  0.0449  0.0488  0.1377
  621ERGO    R3 8670   0.164   6.692   6.664  0.0181 -0.0049  0.0722
  621ERGO    R4 8671   0.376   6.732   6.862  0.0172 -0.1629  0.1174
  621ERGO    R5 8672   0.254   6.553   6.837 -0.0148 -0.1308 -0.0053
  621ERGO    C1 8673   0.170   6.640   7.199 -0.0241 -0.3366  0.0441
  621ERGO    C2 8674   0.006   6.875   7.446  0.0664  0.0518  0.1451
  622ERGO   ROH 8675   1.112  13.562   6.106  0.2928  0.1286  0.1010
  622ERGO    R1 8676   1.021  13.502   6.367  0.0993  0.1278  0.0346
  622ERGO    R2 8677   1.086  13.267   6.496 -0.0419  0.1031  0.0616
  622ERGO    R3 8678   1.172  13.436   6.691 -0.1378  0.0681  0.1356
  622ERGO    R4 8679   1.120  13.183   6.830  0.1292 -0.0635  0.0043
  622ERGO    R5 8680   1.040  13.379   6.882 -0.0331 -0.1638  0.1425
  622ERGO    C1 8681   1.221  13.293   7.207  0.1389 -0.1935  0.0403
  622ERGO    C2 8682   1.299  13.062   7.586  0.1419 -0.2042 -0.1010
  623ERGO   ROH 8683   2.644  17.112   9.211  0.0873  0.0694  0.1185
  623ERGO    R1 8684   2.803  17.115   8.977  0.0652  0.1798  0.1040
  623ERGO    R2 8685   2.754  16.949   8.761  0.3251 -0.0570  0.2176
  623ERGO    R3 8686   2.751  17.184   8.623 -0.0854 -0.1468  0.0602
  623ERGO    R4 8687   2.854  16.987   8.432  0.2612 -0.0963  0.1938
  623ERGO    R5 8688   2.948  17.176   8.487 -0.0677  0.1093  0.0698
  623ERGO    C1 8689   2.909  17.230   8.112 -0.1614 -0.2034  0.0322
  623ERGO    C2 8690   2.890  17.427   7.789 -0.1310 -0.4072 -0.1554
  624ERGO   ROH 8691  11.092   5.595   9.951 -0.2890  0.1832  0.1925
  624ERGO    R1 8692  10.872   5.637   9.777 -0.1367  0.0424 -0.0408
  624ERGO    R2 8693  10.780   5.888   9.712 -0.2048 -0.0148 -0.1713
  624ERGO    R3 8694  10.815   5.801   9.457  0.1033 -0.0343 -0.1256
  624ERGO    R4 8695  10.714   6.075   9.429 -0.3762 -0.2119 -0.2636
  624ERGO    R5 8696  10.631   5.896   9.337 -0.0036 -0.3962 -0.2624
  624ERGO    C1 8697  10.708   6.102   9.025 -0.1867 -0.3450 -0.2745
  624ERGO    C2 8698  10.607   6.060   8.740 -0.0375  0.3408  0.0549
  625ERGO   ROH 8699   9.274  12.482   9.027  0.4884 -0.3035  0.0931
  625ERGO    R1 8700   9.128  12.430   8.790  0.2498 -0.1017  0.1906
  625ERGO    R2 8701   9.231  12.479   8.538  0.0130  0.0762  0.1237
  625ERGO    R3 8702   9.168  12.218   8.496 -0.0614  0.1153 -0.0137
  625ERGO    R4 8703   9.090  12.353   8.248  0.0553  0.2519  0.0253
  625ERGO    R5 8704   8.964  12.225   8.371 -0.0221  0.2377 -0.0704
  625ERGO    C1 8705   8.949  12.035   8.041  0.0101  0.3909 -0.1609
  625ERGO    C2 8706   9.069  11.985   7.754  0.1690 -0.0268  0.1220
  626ERGO   ROH 8707  12.736  14.464   6.564 -0.1422 -0.1168  0.0271
  626ERGO    R1 8708  12.732  14.503   6.845 -0.1986 -0.0983  0.0236
  626ERGO    R2 8709  12.953  14.593   6.985 -0.2093 -0.1489  0.0694
  626ERGO    R3 8710  12.779  14.783   7.073 -0.1789 -0.0966  0.0185
  626ERGO    R4 8711  13.028  14.841   7.214 -0.1774 -0.1274  0.0361
  626ERGO    R5 8712  12.832  14.811   7.304 -0.1957 -0.0708  0.0210
  626ERGO    C1 8713  12.909  15.163   7.429 -0.1303 -0.0659 -0.0310
  626ERGO    C2 8714  12.929  15.431   7.684 -0.0517 -0.1251  0.0009
  627ERGO   ROH 8715   8.673   5.802   9.789 -0.0199 -0.0878  0.0033
  627ERGO    R1 8716   8.783   5.960   9.581  0.1250 -0.1505  0.0330
  627ERGO    R2 8717   8.979   5.866   9.411 -0.0205 -0.3253 -0.0269
  627ERGO    R3 8718   8.803   5.942   9.218  0.0384 -0.0561  0.0206
  627ERGO    R4 8719   9.052   5.889   9.073 -0.0720 -0.5064 -0.0525
  627ERGO    R5 8720   8.934   6.072   9.066  0.2246 -0.2945 -0.0404
  627ERGO    C1 8721   8.928   5.975   8.697 -0.0468 -0.3592 -0.0230
  627ERGO    C2 8722   8.913   5.928   8.503 -0.0001  0.4603  0.1624
  628ERGO   ROH 8723   5.839   3.554   5.968  0.0454  0.0829 -0.0222
  628ERGO    R1 8724   5.871   3.718   6.197 -0.1891  0.2869 -0.1292
  628ERGO    R2 8725   5.658   3.848   6.318 -0.4492 -0.2108 -0.0128
  628ERGO    R3 8726   5.749   3.719   6.539  0.0936  0.1189 -0.0270
  628ERGO    R4 8727   5.619   3.958   6.643 -0.3374 -0.1153 -0.0319
  628ERGO    R5 8728   5.821   3.893   6.686 -0.1361  0.3703 -0.2102
  628ERGO    C1 8729   5.682   3.901   7.040  0.2373  0.2499 -0.0566
  628ERGO    C2 8730   5.720   3.899   7.342 -0.1027  0.1527  0.0581
  629ERGO   ROH 8731  14.816   9.783  10.015  0.0704  0.2065 -0.1410
  629ERGO    R1 8732  14.767   9.600   9.804 -0.0312  0.1506 -0.0690
  629ERGO    R2 8733  14.796   9.669   9.539 -0.0478  0.0451 -0.0957
  629ERGO    R3 8734  14.958   9.451   9.533 -0.1313 -0.0187 -0.0488
  629ERGO    R4 8735  14.844   9.465   9.263  0.0561  0.1130 -0.1283
  629ERGO    R5 8736  14.841   9.293   9.397 -0.1056  0.0708 -0.1799
  629ERGO    C1 8737  15.025   9.142   9.098  0.0381  0.0925 -0.1034
  629ERGO    C2 8738  15.293   9.147   8.799 -0.0007  0.1704 -0.1458
  630ERGO   ROH 8739   5.536  12.650   9.853  0.3010  0.1790 -0.1146
  630ERGO    R1 8740   5.560  12.592   9.576  0.1192  0.1279 -0.1209
  630ERGO    R2 8741   5.344  12.603   9.403  0.0384  0.2720 -0.0157
  630ERGO    R3 8742   5.507  12.771   9.264  0.0991  0.1327 -0.1144
  630ERGO    R4 8743   5.305  12.689   9.070  0.0862  0.0755 -0.0729
  630ERGO    R5 8744   5.521  12.675   9.046  0.0815 -0.0086 -0.0534
  630ERGO    C1 8745   5.436  12.896   8.746  0.1710 -0.1698 -0.1989
  630ERGO    C2 8746   5.497  13.103   8.379 -0.0210 -0.0291 -0.0610
  631ERGO   ROH 8747   0.107  14.085   6.265  0.1515 -0.2422 -0.0411
  631ERGO    R1 8748   0.058  13.982   6.524  0.0937 -0.1087  0.0006
  631ERGO    R2 8749   0.252  13.974   6.720  0.0077  0.1182  0.0876
  631ERGO    R3 8750   0.066  14.108   6.865 -0.1287  0.1034 -0.0673
  631ERGO    R4 8751   0.222  13.958   7.064 -0.0160  0.4093  0.1023
  631ERGO    R5 8752   0.005  13.955   7.040 -0.0206  0.2038  0.0701
  631ERGO    C1 8753   0.030  14.076   7.401 -0.1577  0.5645 -0.0346
  631ERGO    C2 8754   0.162  14.176   7.703  0.0522 -0.0882  0.3543
  632ERGO   ROH 8755   8.140  13.675   9.098 -0.0456 -0.3292  0.0203
  632ERGO    R1 8756   8.357  13.655   8.917  0.0260 -0.0516  0.0685
  632ERGO    R2 8757   8.331  13.546   8.664  0.2680 -0.3469  0.1604
  632ERGO    R3 8758   8.439  13.783   8.586 -0.2044 -0.1763 -0.0407
  632ERGO    R4 8759   8.458  13.610   8.350  0.3777 -0.4477  0.1832
  632ERGO    R5 8760   8.621  13.721   8.444  0.0651  0.0525  0.1887
  632ERGO    C1 8761   8.634  13.870   8.093 -0.0021 -0.3461  0.0078
  632ERGO    C2 8762   8.787  14.011   7.766  0.2840  0.1048 -0.2881
  633ERGO   ROH 8763  13.134   0.669   9.831  0.4372 -0.1045  0.0235
  633ERGO    R1 8764  13.032   0.830   9.622  0.1751 -0.1839  0.0831
  633ERGO    R2 8765  13.147   1.071   9.550  0.0087 -0.1358 -0.0672
  633ERGO    R3 8766  13.155   0.957   9.304 -0.1615 -0.1866 -0.0482
  633ERGO    R4 8767  13.203   1.242   9.255  0.1994 -0.2719 -0.1101
  633ERGO    R5 8768  13.051   1.119   9.160  0.0368 -0.0873 -0.0695
  633ERGO    C1 8769  13.243   1.235   8.852  0.1507 -0.3988 -0.1176
  633ERGO    C2 8770  13.375   1.192   8.503  0.0945  0.0680 -0.2089
  634ERGO   ROH 8771   6.868   4.605   6.293  0.1581  0.1194  0.0052
  634ERGO    R1 8772   6.810   4.801   6.489  0.0969  0.1234 -0.0172
  634ERGO    R2 8773   6.597   4.778   6.663  0.1595  0.0305  0.0456
  634ERGO    R3 8774   6.789   4.813   6.853  0.1910  0.1829 -0.0128
  634ERGO    R4 8775   6.535   4.863   6.992  0.1594 -0.3537  0.1489
  634ERGO    R5 8776   6.708   4.996   6.985 -0.0574 -0.0574  0.1811
  634ERGO    C1 8777   6.679   4.945   7.362  0.1889 -0.4345  0.1542
  634ERGO    C2 8778   6.609   5.170   7.661  0.3623 -0.0602 -0.3290
  635ERGO   ROH 8779  12.677   4.048   6.240 -0.0696 -0.0521 -0.2147
  635ERGO    R1 8780  12.502   4.014   6.459 -0.1369  0.0690 -0.2479
  635ERGO    R2 8781  12.582   4.051   6.722 -0.0985 -0.2033 -0.2145
  635ERGO    R3 8782  12.372   4.223   6.728  0.1463  0.1026 -0.1344
  635ERGO    R4 8783  12.366   4.089   6.988 -0.1212 -0.1056 -0.2476
  635ERGO    R5 8784  12.201   4.104   6.846 -0.0630  0.2524 -0.2825
  635ERGO    C1 8785  12.042   4.272   7.149  0.0954  0.2384 -0.1916
  635ERGO    C2 8786  11.932   4.528   7.283 -0.0978  0.0464 -0.0687
  636ERGO   ROH 8787   7.765  14.128   9.155  0.1830 -0.1267 -0.0321
  636ERGO    R1 8788   7.652  14.047   8.908  0.0079 -0.0649  0.0268
  636ERGO    R2 8789   7.558  14.227   8.721  0.0892 -0.0106  0.0423
  636ERGO    R3 8790   7.727  14.093   8.555 -0.0987 -0.1852 -0.0133
  636ERGO    R4 8791   7.589  14.286   8.382  0.2169  0.1420  0.0791
  636ERGO    R5 8792   7.604  14.071   8.351 -0.1191  0.1278 -0.0433
  636ERGO    C1 8793   7.766  14.195   8.028  0.1148  0.0671  0.0484
  636ERGO    C2 8794   7.863  14.237   7.696  0.1191 -0.0954  0.1444
  637ERGO   ROH 8795  17.234  17.940   6.673 -0.1522  0.0782 -0.1412
  637ERGO    R1 8796  17.259  17.862   6.944 -0.1280 -0.1563 -0.2070
  637ERGO    R2 8797  17.189  18.028   7.154  0.4319 -0.0995 -0.0372
  637ERGO    R3 8798  17.036  17.815   7.228 -0.0372  0.2129 -0.0726
  637ERGO    R4 8799  17.133  17.929   7.481  0.3345 -0.1353 -0.0654
  637ERGO    R5 8800  17.152  17.722   7.416 -0.1776 -0.1523 -0.1685
  637ERGO    C1 8801  16.957  17.673   7.741 -0.1627  0.1369 -0.1151
  637ERGO    C2 8802  16.790  17.527   8.039 -0.0632 -0.3900 -0.1044
  638ERGO   ROH 8803  10.363   5.229   6.387  0.1201  0.0094  0.0369
  638ERGO    R1 8804  10.358   5.338   6.648 -0.0707  0.0604  0.0136
  638ERGO    R2 8805  10.126   5.358   6.797 -0.1217 -0.2405 -0.0248
  638ERGO    R3 8806  10.271   5.221   6.982  0.0511  0.0055  0.0281
  638ERGO    R4 8807  10.106   5.406   7.139 -0.2348 -0.1701 -0.0410
  638ERGO    R5 8808  10.323   5.384   7.150 -0.1956  0.1322 -0.0090
  638ERGO    C1 8809  10.230   5.306   7.511 -0.1383  0.1018 -0.0008
  638ERGO    C2 8810  10.205   5.138   7.720 -0.0694 -0.1566 -0.0015
  639ERGO   ROH 8811  13.931   8.397  10.031  0.1561  0.0496  0.1538
  639ERGO    R1 8812  13.963   8.484   9.763  0.0880  0.0465  0.1444
  639ERGO    R2 8813  14.160   8.385   9.597  0.0073  0.0000  0.0752
  639ERGO    R3 8814  13.949   8.334   9.432 -0.0616  0.0558  0.1460
  639ERGO    R4 8815  14.133   8.493   9.269 -0.1201  0.0906  0.1147
  639ERGO    R5 8816  13.922   8.535   9.305 -0.1033  0.0915  0.2114
  639ERGO    C1 8817  13.920   8.508   8.925 -0.2590  0.1956  0.2042
  639ERGO    C2 8818  14.007   8.479   8.693 -0.3635  0.2385  0.1637
  640ERGO   ROH 8819   9.886  16.889   9.858 -0.0897  0.2415  0.0305
  640ERGO    R1 8820   9.846  16.859   9.579  0.0225  0.2296  0.0146
  640ERGO    R2 8821   9.889  17.066   9.400  0.0071  0.2516  0.0303
  640ERGO    R3 8822  10.051  16.884   9.279  0.1235  0.3145  0.0913
  640ERGO    R4 8823  10.023  17.100   9.083  0.0280  0.2460  0.0390
  640ERGO    R5 8824   9.985  16.888   9.049  0.1519  0.2201  0.0844
  640ERGO    C1 8825  10.254  16.949   8.786  0.1493  0.3018  0.1014
  640ERGO    C2 8826  10.340  16.866   8.484  0.1388  0.1244 -0.1173
  641ERGO   ROH 8827   6.340   6.870   5.818  0.0051 -0.0034 -0.1182
  641ERGO    R1 8828   6.198   6.922   6.058  0.1278 -0.1219 -0.0189
  641ERGO    R2 8829   6.314   7.048   6.275  0.1617  0.0195 -0.1192
  641ERGO    R3 8830   6.102   7.216   6.250 -0.0310 -0.1971  0.0193
  641ERGO    R4 8831   6.156   7.208   6.538  0.1503 -0.1685 -0.0097
  641ERGO    R5 8832   5.965   7.168   6.441  0.1299 -0.3592  0.0989
  641ERGO    C1 8833   5.865   7.459   6.667 -0.0373 -0.4813  0.1841
  641ERGO    C2 8834   5.825   7.751   6.881  0.0530 -0.0106 -0.3551
  642ERGO   ROH 8835  14.634  16.987   9.854 -0.0844  0.0318  0.0721
  642ERGO    R1 8836  14.722  17.055   9.594 -0.1552  0.1384  0.0759
  642ERGO    R2 8837  14.714  16.877   9.384  0.1294  0.1060  0.0931
  642ERGO    R3 8838  14.574  17.075   9.262 -0.1517 -0.1083  0.0563
  642ERGO    R4 8839  14.672  16.905   9.042  0.2788  0.0963  0.0731
  642ERGO    R5 8840  14.700  17.121   9.062 -0.1092  0.1505  0.1364
  642ERGO    C1 8841  14.516  17.108   8.728  0.1020 -0.1106  0.0270
  642ERGO    C2 8842  14.176  17.107   8.574 -0.0900 -0.1519 -0.0512
  643ERGO   ROH 8843   0.521   1.464   6.713  0.2016  0.2421 -0.1009
  643ERGO    R1 8844   0.620   1.535   6.969  0.1427  0.1699 -0.0576
  643ERGO    R2 8845   0.467   1.671   7.154  0.1260  0.1882 -0.0835
  643ERGO    R3 8846   0.533   1.462   7.315  0.0090  0.1405 -0.0969
  643ERGO    R4 8847   0.371   1.639   7.484  0.1576  0.2490 -0.0684
  643ERGO    R5 8848   0.570   1.562   7.530  0.1125  0.1119 -0.1018
  643ERGO    C1 8849   0.377   1.424   7.828  0.0663  0.2396 -0.0721
  643ERGO    C2 8850   0.034   1.290   8.089  0.2651 -0.0398 -0.1326
  644ERGO   ROH 8851  15.601   4.088   6.535 -0.0179  0.0957  0.1218
  644ERGO    R1 8852  15.554   3.857   6.692 -0.0923  0.1073  0.1171
  644ERGO    R2 8853  15.758   3.693   6.781 -0.1584 -0.0669 -0.0462
  644ERGO    R3 8854  15.647   3.740   7.024  0.0415 -0.0163  0.0377
  644ERGO    R4 8855  15.850   3.535   7.074 -0.1446 -0.2550 -0.1509
  644ERGO    R5 8856  15.639   3.525   7.128 -0.1258 -0.0426 -0.0239
  644ERGO    C1 8857  15.799   3.486   7.473  0.0511 -0.3170 -0.1331
  644ERGO    C2 8858  15.872   3.328   7.806  0.0395 -0.0153 -0.1036
  645ERGO   ROH 8859  10.284   9.463  10.077 -0.1059 -0.1161 -0.0085
  645ERGO    R1 8860  10.306   9.458   9.795  0.0648 -0.0982  0.0028
  645ERGO    R2 8861  10.161   9.626   9.632  0.1686 -0.0802 -0.0767
  645ERGO    R3 8862  10.406   9.691   9.533  0.2328 -0.0837  0.0794
  645ERGO    R4 8863  10.225   9.711   9.303  0.3793 -0.0490 -0.0288
  645ERGO    R5 8864  10.408   9.594   9.314  0.3643 -0.0587  0.0713
  645ERGO    C1 8865  10.492   9.821   9.019  0.5622 -0.0340  0.1457
  645ERGO    C2 8866  10.664   9.893   8.807 -0.3884 -0.1375  0.1544
  646ERGO   ROH 8867  11.899  18.084   6.542  0.0933  0.1961  0.1458
  646ERGO    R1 8868  11.696  18.005   6.723 -0.0190  0.3112  0.0718
  646ERGO    R2 8869  11.725  17.789   6.895 -0.3374  0.0704 -0.1615
  646ERGO    R3 8870  11.662  17.974   7.084 -0.0355 -0.0283  0.0433
  646ERGO    R4 8871  11.576  17.718   7.198 -0.1677 -0.0415 -0.1027
  646ERGO    R5 8872  11.454  17.897   7.175 -0.0316  0.0819  0.1392
  646ERGO    C1 8873  11.430  17.849   7.553  0.2144 -0.1995  0.1239
  646ERGO    C2 8874  11.376  17.706   7.893  0.5739  0.0269  0.2623
  647ERGO   ROH 8875  13.335  17.653   6.558  0.1499  0.0768 -0.0621
  647ERGO    R1 8876  13.278  17.538   6.810  0.1055 -0.0416 -0.1246
  647ERGO    R2 8877  13.431  17.590   7.035  0.0207 -0.0849 -0.0553
  647ERGO    R3 8878  13.191  17.660   7.142 -0.0339 -0.1995 -0.1024
  647ERGO    R4 8879  13.354  17.582   7.372  0.0084  0.0263 -0.0552
  647ERGO    R5 8880  13.158  17.504   7.321  0.0649 -0.1359 -0.0285
  647ERGO    C1 8881  13.085  17.642   7.669 -0.0500 -0.0167 -0.0994
  647ERGO    C2 8882  12.798  17.590   7.853  0.3209  0.0141  0.0391
  648ERGO   ROH 8883   7.578   9.402   6.305 -0.0543  0.0304 -0.0474
  648ERGO    R1 8884   7.687   9.480   6.555 -0.1345  0.0762 -0.0263
  648ERGO    R2 8885   7.594   9.698   6.696 -0.2133  0.0725 -0.0724
  648ERGO    R3 8886   7.567   9.516   6.896 -0.2310  0.0877 -0.0610
  648ERGO    R4 8887   7.540   9.776   7.028  0.0766  0.1095 -0.0314
  648ERGO    R5 8888   7.677   9.616   7.083 -0.0184 -0.0095 -0.1309
  648ERGO    C1 8889   7.483   9.651   7.410  0.2288  0.1453  0.0031
  648ERGO    C2 8890   7.394   9.812   7.650  0.2311  0.2727 -0.1022
  649ERGO   ROH 8891  16.948   2.951   6.455 -0.1312 -0.0423  0.1089
  649ERGO    R1 8892  16.769   3.026   6.661 -0.1217 -0.0941  0.1370
  649ERGO    R2 8893  16.749   2.887   6.899  0.0207 -0.0463  0.1805
  649ERGO    R3 8894  16.794   3.132   7.008 -0.0909  0.0085  0.1030
  649ERGO    R4 8895  16.672   2.975   7.225  0.1223 -0.0230  0.1979
  649ERGO    R5 8896  16.604   3.169   7.151 -0.0446 -0.0863  0.1875
  649ERGO    C1 8897  16.669   3.257   7.516  0.0765  0.0421  0.1353
  649ERGO    C2 8898  16.785   3.327   7.717 -0.5300 -0.0277 -0.1272
  650ERGO   ROH 8899   1.130   0.698   6.317  0.0734 -0.2303 -0.0251
  650ERGO    R1 8900   1.291   0.753   6.543  0.0528 -0.0985 -0.0417
  650ERGO    R2 8901   1.185   0.799   6.794  0.0319  0.0020 -0.0669
  650ERGO    R3 8902   1.355   0.600   6.867  0.0601  0.0623  0.0336
  650ERGO    R4 8903   1.299   0.744   7.116 -0.1068  0.0637 -0.0067
  650ERGO    R5 8904   1.496   0.699   7.033 -0.0527  0.1193  0.0943
  650ERGO    C1 8905   1.525   0.525   7.371 -0.1610  0.1562  0.1227
  650ERGO    C2 8906   1.551   0.327   7.620  0.1321 -0.0390  0.1529
  651ERGO   ROH 8907   7.121   8.180   9.663  0.0754  0.0129 -0.0079
  651ERGO    R1 8908   6.953   8.190   9.435 -0.0134 -0.0807  0.0524
  651ERGO    R2 8909   7.048   8.246   9.182 -0.1474  0.0555  0.0288
  651ERGO    R3 8910   6.925   8.012   9.119  0.0294 -0.0379  0.0249
  651ERGO    R4 8911   7.023   8.117   8.863 -0.2551  0.1595 -0.0051
  651ERGO    R5 8912   6.818   8.057   8.909 -0.1654 -0.0544  0.1196
  651ERGO    C1 8913   6.892   7.822   8.617 -0.1518  0.1323 -0.0284
  651ERGO    C2 8914   6.842   7.750   8.298 -0.0149  0.0581 -0.0367
  652ERGO   ROH 8915  17.073  12.354   9.484 -0.2972 -0.0210  0.1720
  652ERGO    R1 8916  17.102  12.383   9.204 -0.1595  0.0065  0.1904
  652ERGO    R2 8917  17.092  12.168   9.030 -0.1608  0.0407  0.1644
  652ERGO    R3 8918  16.899  12.316   8.910 -0.0485  0.1253  0.0816
  652ERGO    R4 8919  17.019  12.161   8.693 -0.3316 -0.3117  0.2027
  652ERGO    R5 8920  16.993  12.377   8.698 -0.0687 -0.2564 -0.0536
  652ERGO    C1 8921  16.795  12.296   8.383 -0.3258 -0.4374  0.1472
  652ERGO    C2 8922  16.657  12.422   7.912 -0.1140 -0.1880 -0.2774
  653ERGO   ROH 8923  10.610   7.684   9.615 -0.0460  0.1725  0.0555
  653ERGO    R1 8924  10.624   7.559   9.362 -0.0421  0.0335  0.1236
  653ERGO    R2 8925  10.400   7.507   9.209 -0.0267  0.0857  0.0835
  653ERGO    R3 8926  10.537   7.645   9.019  0.1112 -0.0913  0.0518
  653ERGO    R4 8927  10.346   7.481   8.869 -0.2609  0.2765  0.1035
  653ERGO    R5 8928  10.562   7.489   8.839 -0.2555 -0.0870 -0.0105
  653ERGO    C1 8929  10.444   7.596   8.492 -0.2677  0.2215  0.0853
  653ERGO    C2 8930  10.381   7.790   8.222  0.2904  0.0848 -0.1114
  654ERGO   ROH 8931   5.549  10.994   9.696  0.0235  0.0422  0.1351
  654ERGO    R1 8932   5.380  11.102   9.496  0.0247  0.0854  0.1579
  654ERGO    R2 8933   5.474  11.174   9.246  0.0137  0.0804  0.1535
  654ERGO    R3 8934   5.275  11.009   9.160 -0.0273  0.1239  0.1632
  654ERGO    R4 8935   5.378  11.135   8.916  0.0751  0.0054  0.1439
  654ERGO    R5 8936   5.170  11.130   8.982  0.0573  0.1036  0.0984
  654ERGO    C1 8937   5.136  10.957   8.644  0.0724  0.0027  0.1475
  654ERGO    C2 8938   4.948  10.928   8.270 -0.2459 -0.1831  0.0143
  655ERGO   ROH 8939   9.478   0.289   9.692  0.0108 -0.3066  0.1157
  655ERGO    R1 8940   9.500   0.289   9.409  0.0263 -0.0477  0.1145
  655ERGO    R2 8941   9.743   0.270   9.278  0.0330  0.0082  0.1065
  655ERGO    R3 8942   9.621   0.061   9.153 -0.0213  0.1556 -0.0898
  655ERGO    R4 8943   9.809   0.167   8.955  0.3126  0.0153  0.1598
  655ERGO    R5 8944   9.596   0.134   8.927  0.3171  0.2288 -0.1038
  655ERGO    C1 8945   9.734  -0.089   8.650  0.4246  0.1579  0.0065
  655ERGO    C2 8946   9.944  -0.099   8.358  0.1781 -0.0299 -0.1646
  656ERGO   ROH 8947   1.774   2.953   9.907 -0.0933 -0.0603 -0.1182
  656ERGO    R1 8948   1.896   2.845   9.676  0.0893  0.1277 -0.1141
  656ERGO    R2 8949   1.810   2.609   9.558  0.4982 -0.0469 -0.0842
  656ERGO    R3 8950   1.792   2.764   9.336  0.2066 -0.0950 -0.0982
  656ERGO    R4 8951   1.934   2.523   9.248  0.0738 -0.1211 -0.2387
  656ERGO    R5 8952   2.000   2.729   9.223  0.0535 -0.1313 -0.3742
  656ERGO    C1 8953   1.989   2.618   8.858 -0.4471 -0.2094 -0.3417
  656ERGO    C2 8954   1.904   2.709   8.605  0.1968  0.2029  0.1664
  657ERGO   ROH 8955   6.678  13.502   9.276  0.1162  0.0249  0.0449
  657ERGO    R1 8956   6.625  13.604   9.017  0.0887 -0.0441  0.0236
  657ERGO    R2 8957   6.789  13.551   8.800  0.0126 -0.1807  0.0006
  657ERGO    R3 8958   6.558  13.465   8.687 -0.0492 -0.1307  0.0867
  657ERGO    R4 8959   6.735  13.518   8.461 -0.1217 -0.1556  0.0187
  657ERGO    R5 8960   6.534  13.597   8.490 -0.0974 -0.1159  0.0999
  657ERGO    C1 8961   6.486  13.418   8.157 -0.2579 -0.0939  0.1102
  657ERGO    C2 8962   6.548  13.568   7.891  0.1125 -0.0864  0.2098
  658ERGO   ROH 8963   1.596   0.538   9.696  0.2935 -0.0338 -0.0861
  658ERGO    R1 8964   1.488   0.442   9.453  0.1015 -0.0866  0.0182
  658ERGO    R2 8965   1.283   0.571   9.320  0.1897  0.0447  0.0038
  658ERGO    R3 8966   1.457   0.562   9.111  0.1109 -0.2864 -0.0536
  658ERGO    R4 8967   1.193   0.582   8.986  0.0973  0.0535  0.0287
  658ERGO    R5 8968   1.345   0.431   8.945 -0.1351 -0.1849  0.0304
  658ERGO    C1 8969   1.304   0.580   8.596 -0.0305 -0.2522 -0.0105
  658ERGO    C2 8970   1.264   0.748   8.248 -0.0811 -0.4227 -0.0360
  659ERGO   ROH 8971   2.828  16.036   9.496  0.2545 -0.4326  0.2436
  659ERGO    R1 8972   2.748  16.075   9.227  0.2880 -0.1021  0.2767
  659ERGO    R2 8973   2.923  16.159   9.031  0.4217 -0.2726  0.3122
  659ERGO    R3 8974   2.835  15.936   8.902  0.0057 -0.0385  0.1732
  659ERGO    R4 8975   2.989  16.082   8.700  0.4515 -0.3016  0.3254
  659ERGO    R5 8976   2.784  16.011   8.681  0.3035  0.1558  0.1703
  659ERGO    C1 8977   2.945  15.828   8.387  0.0783 -0.0985  0.2025
  659ERGO    C2 8978   2.945  15.617   8.053  0.0547  0.0173  0.0235
  660ERGO   ROH 8979  16.863   6.448   9.887 -0.0761  0.1144 -0.0806
  660ERGO    R1 8980  16.910   6.534   9.622  0.0776  0.0368 -0.0799
  660ERGO    R2 8981  17.163   6.593   9.527  0.1414 -0.0459  0.0306
  660ERGO    R3 8982  17.097   6.413   9.334  0.1948 -0.0806  0.0454
  660ERGO    R4 8983  17.308   6.577   9.214  0.0296  0.0752 -0.0280
  660ERGO    R5 8984  17.111   6.537   9.130  0.0263 -0.0598  0.0471
  660ERGO    C1 8985  17.331   6.398   8.850  0.0145  0.1131 -0.0483
  660ERGO    C2 8986  17.301   6.084   8.509  0.0169  0.2227 -0.0931
  661ERGO   ROH 8987   0.304  16.305   9.956  0.0850 -0.0493  0.0876
  661ERGO    R1 8988   0.419  16.429   9.729 -0.0368  0.0394  0.0731
  661ERGO    R2 8989   0.627  16.316   9.586  0.0764  0.2254  0.0852
  661ERGO    R3 8990   0.458  16.351   9.376  0.0385  0.0366  0.0821
  661ERGO    R4 8991   0.708  16.256   9.255  0.0913  0.1518  0.1019
  661ERGO    R5 8992   0.598  16.436   9.201 -0.0287  0.0607  0.0403
  661ERGO    C1 8993   0.597  16.255   8.866  0.0643 -0.0680  0.1087
  661ERGO    C2 8994   0.679  16.177   8.550  0.0480  0.3494 -0.0307
  662ERGO   ROH 8995  14.393  16.328   6.372 -0.1075  0.0968 -0.1413
  662ERGO    R1 8996  14.432  16.473   6.612 -0.0144  0.0172 -0.1071
  662ERGO    R2 8997  14.240  16.486   6.811 -0.0694  0.2142 -0.1673
  662ERGO    R3 8998  14.444  16.398   6.968 -0.2219 -0.0527 -0.1137
  662ERGO    R4 8999  14.241  16.493   7.157 -0.0618  0.4223 -0.1710
  662ERGO    R5 9000  14.451  16.553   7.150  0.0491  0.0505 -0.2079
  662ERGO    C1 9001  14.433  16.415   7.505 -0.2006  0.2929 -0.1229
  662ERGO    C2 9002  14.450  16.460   7.840  0.1947 -0.1717  0.3472
  663ERGO   ROH 9003   4.224  10.326   9.472  0.1054 -0.0244  0.0589
  663ERGO    R1 9004   4.141  10.328   9.202  0.0863 -0.1856  0.0626
  663ERGO    R2 9005   4.038  10.553   9.080 -0.2679 -0.3515  0.0393
  663ERGO    R3 9006   4.234  10.504   8.898 -0.1968 -0.0756  0.0370
  663ERGO    R4 9007   4.013  10.617   8.741 -0.3599 -0.3895  0.0389
  663ERGO    R5 9008   4.116  10.428   8.703 -0.0919 -0.2452  0.0388
  663ERGO    C1 9009   4.181  10.607   8.373 -0.3468 -0.1527  0.0363
  663ERGO    C2 9010   4.185  10.545   7.960 -0.0235 -0.0822  0.1969
  664ERGO   ROH 9011  15.799  10.212   6.432  0.1853 -0.0159 -0.0460
  664ERGO    R1 9012  15.852  10.002   6.614  0.2234  0.0313 -0.0010
  664ERGO    R2 9013  16.108   9.939   6.698  0.2370  0.1158  0.0412
  664ERGO    R3 9014  16.000   9.971   6.946  0.1960  0.1374  0.0197
  664ERGO    R4 9015  16.230   9.792   6.986  0.0409 -0.0415  0.0456
  664ERGO    R5 9016  16.024   9.756   7.049  0.0019  0.1007 -0.0201
  664ERGO    C1 9017  16.199   9.737   7.387 -0.1117 -0.1128  0.0280
  664ERGO    C2 9018  16.439   9.700   7.609  0.0311  0.0985 -0.1028
  665ERGO   ROH 9019   1.678   3.825   6.240  0.0156  0.0014 -0.0098
  665ERGO    R1 9020   1.740   3.802   6.515 -0.0124 -0.0165 -0.0047
  665ERGO    R2 9021   1.545   3.781   6.710 -0.0314 -0.1235 -0.0329
  665ERGO    R3 9022   1.684   3.558   6.779  0.0478 -0.0796 -0.0506
  665ERGO    R4 9023   1.625   3.692   7.034  0.1823 -0.0166 -0.0549
  665ERGO    R5 9024   1.821   3.629   6.962  0.1483 -0.0045 -0.1552
  665ERGO    C1 9025   1.802   3.431   7.288  0.3812  0.0869 -0.0843
  665ERGO    C2 9026   1.860   3.479   7.571  0.0281  0.1486 -0.1306
  666ERGO   ROH 9027  18.211  15.029   6.414 -0.1860  0.0519  0.0848
  666ERGO    R1 9028  18.132  15.193   6.630  0.0269  0.0773  0.1438
  666ERGO    R2 9029  17.941  15.116   6.814 -0.0479  0.2443  0.1283
  666ERGO    R3 9030  18.137  15.174   6.994  0.0326 -0.0423  0.1395
  666ERGO    R4 9031  17.887  15.192   7.147  0.0097  0.5269  0.0771
  666ERGO    R5 9032  18.042  15.345   7.132  0.3238  0.2272  0.0274
  666ERGO    C1 9033  18.039  15.290   7.509  0.1190  0.4224  0.0578
  666ERGO    C2 9034  18.079  15.348   7.919  0.1878  0.1958  0.1337
  667ERGO   ROH 9035  14.052  10.214   6.774  0.0287 -0.0828 -0.1728
  667ERGO    R1 9036  14.216  10.168   7.001  0.2305  0.3250 -0.2248
  667ERGO    R2 9037  14.314  10.374   7.158 -0.4803  0.5941 -0.0814
  667ERGO    R3 9038  14.196  10.234   7.358  0.0124 -0.0012 -0.1725
  667ERGO    R4 9039  14.361  10.433   7.495 -0.5926  0.4280 -0.0364
  667ERGO    R5 9040  14.364  10.218   7.528  0.1198  0.3837 -0.2364
  667ERGO    C1 9041  14.277  10.336   7.880 -0.1954 -0.2276 -0.0957
  667ERGO    C2 9042  14.285  10.206   8.175  0.1249 -0.0250 -0.2351
  668ERGO   ROH 9043   8.054   3.479   9.776  0.1419  0.1257 -0.0302
  668ERGO    R1 9044   8.071   3.599   9.520  0.0539  0.0818 -0.0564
  668ERGO    R2 9045   8.151   3.459   9.296 -0.0012  0.0514 -0.0516
  668ERGO    R3 9046   7.916   3.552   9.194 -0.0385  0.0120 -0.0041
  668ERGO    R4 9047   8.087   3.507   8.960 -0.1355 -0.1428 -0.0558
  668ERGO    R5 9048   7.982   3.691   9.011 -0.0994 -0.0991 -0.1169
  668ERGO    C1 9049   7.829   3.622   8.669 -0.2487 -0.2929 -0.0137
  668ERGO    C2 9050   7.744   3.654   8.360 -0.1398  0.2058  0.2769
  669ERGO   ROH 9051  13.931   3.693   9.825  0.0726 -0.0571  0.0726
  669ERGO    R1 9052  13.914   3.556   9.578  0.0021  0.0435  0.0206
  669ERGO    R2 9053  13.822   3.677   9.347  0.1147  0.1940  0.0513
  669ERGO    R3 9054  14.059   3.590   9.246  0.0656  0.0599  0.0503
  669ERGO    R4 9055  13.882   3.611   9.013  0.1083  0.2652  0.0363
  669ERGO    R5 9056  13.997   3.436   9.073 -0.0231  0.1625 -0.0097
  669ERGO    C1 9057  14.139   3.491   8.724  0.0585  0.1806  0.0266
  669ERGO    C2 9058  14.368   3.326   8.453 -0.0907 -0.0348  0.2692
  670ERGO   ROH 9059  17.430  12.669   6.194  0.2497  0.1059  0.1180
  670ERGO    R1 9060  17.635  12.599   6.377  0.2222  0.1004  0.1464
  670ERGO    R2 9061  17.670  12.729   6.619  0.0668 -0.0316  0.2408
  670ERGO    R3 9062  17.653  12.478   6.719  0.1653 -0.1055  0.0786
  670ERGO    R4 9063  17.842  12.614   6.896 -0.0445 -0.0767  0.2918
  670ERGO    R5 9064  17.875  12.426   6.792  0.1540  0.0038  0.1996
  670ERGO    C1 9065  17.925  12.311   7.152 -0.0167 -0.1723  0.1691
  670ERGO    C2 9066  18.027  12.243   7.422 -0.1077 -0.1855 -0.1369
  671ERGO   ROH 9067  14.796  13.003   6.510 -0.3958  0.1728 -0.2359
  671ERGO    R1 9068  14.754  13.144   6.752 -0.1629  0.0400 -0.1140
  671ERGO    R2 9069  14.539  13.094   6.919 -0.1889  0.1771 -0.1077
  671ERGO    R3 9070  14.734  13.063   7.106 -0.1813 -0.2123 -0.1703
  671ERGO    R4 9071  14.493  13.131   7.259 -0.0053  0.2947 -0.0936
  671ERGO    R5 9072  14.686  13.232   7.269  0.2149 -0.0957 -0.1619
  671ERGO    C1 9073  14.648  13.124   7.633  0.1088 -0.0023 -0.1442
  671ERGO    C2 9074  14.414  13.155   7.867  0.4011 -0.0605  0.0351
  672ERGO   ROH 9075   6.752   3.991   9.908  0.0230 -0.0650 -0.0044
  672ERGO    R1 9076   6.606   3.967   9.666 -0.0165 -0.0799  0.0206
  672ERGO    R2 9077   6.604   4.165   9.473 -0.0299 -0.1021 -0.0022
  672ERGO    R3 9078   6.683   3.961   9.311 -0.0725 -0.1267  0.0090
  672ERGO    R4 9079   6.558   4.155   9.130  0.0901 -0.0425 -0.0203
  672ERGO    R5 9080   6.508   3.944   9.148 -0.0235 -0.0212 -0.0573
  672ERGO    C1 9081   6.604   3.959   8.779  0.1200 -0.0310 -0.0202
  672ERGO    C2 9082   6.507   4.130   8.525  0.0280 -0.1529  0.3148
  673ERGO   ROH 9083  16.058  12.733   9.823  0.1993 -0.3006  0.0360
  673ERGO    R1 9084  16.149  12.707   9.557  0.1624 -0.1902  0.0132
  673ERGO    R2 9085  16.063  12.504   9.389  0.0593 -0.0549 -0.0903
  673ERGO    R3 9086  16.000  12.711   9.225  0.1359  0.0628  0.0244
  673ERGO    R4 9087  15.996  12.475   9.051 -0.1262  0.1216 -0.0713
  673ERGO    R5 9088  16.109  12.659   9.018  0.0017  0.0557 -0.0513
  673ERGO    C1 9089  15.898  12.653   8.700 -0.1622  0.3348  0.0473
  673ERGO    C2 9090  15.742  12.531   8.414  0.2666 -0.1094 -0.2032
  674ERGO   ROH 9091   9.392   3.999   6.331  0.0189  0.0644  0.0020
  674ERGO    R1 9092   9.406   4.037   6.611 -0.0397  0.2369 -0.0171
  674ERGO    R2 9093   9.222   4.189   6.751 -0.2549  0.0645 -0.1037
  674ERGO    R3 9094   9.197   3.963   6.900  0.0507  0.1052  0.0149
  674ERGO    R4 9095   9.166   4.183   7.091 -0.1401  0.1609 -0.0827
  674ERGO    R5 9096   9.305   4.016   7.106  0.0555  0.3279 -0.0440
  674ERGO    C1 9097   9.109   3.967   7.430  0.2136  0.2552  0.0409
  674ERGO    C2 9098   8.867   3.934   7.677 -0.1095  0.0508  0.1219
  675PSPI    C1 9099  18.130   7.976   5.250  0.0063  0.1226 -0.0485
  675PSPI    C2 9100  18.011   7.594   5.264  0.0148  0.1277  0.2051
  675PSPI    C3 9101  17.770   7.874   5.111  0.0549  0.0044 -0.0897
  675PSPI   PO4 9102  18.333   7.949   5.450 -0.2078 -0.1538 -0.0121
  675PSPI   GL1 9103  18.203   7.810   5.876  0.0512 -0.1168  0.2179
  675PSPI   GL2 9104  17.998   7.620   5.779 -0.1762 -0.1065  0.1532
  675PSPI   C1A 9105  18.180   8.052   6.222  0.1128 -0.0208  0.0663
  675PSPI   C2A 9106  18.076   8.026   6.685 -0.0142  0.0441  0.1447
  675PSPI   C3A 9107  18.097   7.789   7.147  0.1706  0.0360  0.0033
  675PSPI   C4A 9108  18.468   7.881   7.451 -0.0265 -0.0398  0.0628
  675PSPI   C1B 9109  18.032   7.502   6.204  0.1354 -0.1924  0.0682
  675PSPI   C2B 9110  17.799   7.692   6.495 -0.2086 -0.0666 -0.1336
  675PSPI   C3B 9111  17.491   7.734   6.877 -0.0506  0.0252  0.2044
  675PSPI   C4B 9112  17.490   7.487   7.354 -0.0618  0.2013  0.0435
  676PSPI    C1 9113  14.895   4.991   5.528  0.0183  0.1279 -0.0717
  676PSPI    C2 9114  15.249   4.927   5.353  0.0322  0.0525 -0.0163
  676PSPI    C3 9115  14.914   4.923   5.134  0.0409 -0.1282 -0.0280
  676PSPI   PO4 9116  14.932   4.805   5.727  0.1437 -0.1398 -0.3745
  676PSPI   GL1 9117  15.093   4.657   6.118 -0.0909  0.1202 -0.3466
  676PSPI   GL2 9118  15.370   4.695   6.310 -0.0996 -0.1738  0.0341
  676PSPI   C1A 9119  14.899   4.787   6.475  0.2524  0.0891  0.4401
  676PSPI   C2A 9120  15.015   4.765   6.916  0.0146 -0.0328  0.0804
  676PSPI   C3A 9121  14.946   4.885   7.292 -0.2429  0.2033  0.0696
  676PSPI   C4A 9122  15.119   5.136   7.620  0.0124 -0.1062 -0.1898
  676PSPI   C1B 9123  15.169   4.386   6.478  0.2377 -0.2970  0.3619
  676PSPI   C2B 9124  14.802   4.299   6.715  0.2573 -0.2053  0.1077
  676PSPI   C3B 9125  14.690   4.400   7.122 -0.0453  0.1617  0.2280
  676PSPI   C4B 9126  14.663   4.334   7.561  0.1231 -0.0628  0.1451
  677PSPI    C1 9127   5.255   6.918   5.319 -0.0614  0.2821 -0.0080
  677PSPI    C2 9128   5.065   7.209   5.121 -0.0704 -0.0075 -0.4398
  677PSPI    C3 9129   5.060   6.835   4.979 -0.0282 -0.2164  0.0873
  677PSPI   PO4 9130   5.328   7.038   5.509  0.0487 -0.1258  0.0925
  677PSPI   GL1 9131   5.170   6.976   5.876  0.2186 -0.0124  0.0688
  677PSPI   GL2 9132   5.278   7.334   5.967 -0.2194  0.2692 -0.3181
  677PSPI   C1A 9133   4.927   7.011   6.240  0.1089 -0.2216  0.2436
  677PSPI   C2A 9134   4.711   6.795   6.644 -0.1959 -0.2181  0.0221
  677PSPI   C3A 9135   4.859   6.811   7.061  0.0285 -0.0812  0.0172
  677PSPI   C4A 9136   4.745   7.018   7.447 -0.2229  0.0550 -0.0685
  677PSPI   C1B 9137   5.339   7.292   6.411 -0.0255  0.0079 -0.0114
  677PSPI   C2B 9138   5.266   7.532   6.819 -0.1748  0.1361 -0.2752
  677PSPI   C3B 9139   5.401   7.890   7.053  0.0267  0.1761  0.0978
  677PSPI   C4B 9140   5.552   8.372   7.154 -0.1345  0.0469  0.2900
  678PSPI    C1 9141   2.096  18.052   5.793 -0.0895  0.0013 -0.0926
  678PSPI    C2 9142   1.886  18.388   5.847  0.0561  0.1272 -0.2955
  678PSPI    C3 9143   1.897  18.214   5.486  0.0199 -0.0703 -0.2026
  678PSPI   PO4 9144   2.329  18.093   5.927 -0.0988 -0.0876  0.0781
  678PSPI   GL1 9145   2.236  18.170   6.343  0.1076  0.2076 -0.0072
  678PSPI   GL2 9146   1.892  18.362   6.374  0.0464 -0.0654  0.1595
  678PSPI   C1A 9147   2.512  18.497   6.602  0.0018 -0.1942  0.1022
  678PSPI   C2A 9148   2.610  18.380   6.991 -0.0841 -0.2815 -0.4058
  678PSPI   C3A 9149   2.351  18.519   7.357  0.4069 -0.2647  0.2685
  678PSPI   C4A 9150   2.128  18.419   7.708  0.0171 -0.0582  0.4086
  678PSPI   C1B 9151   1.628  18.103   6.728 -0.0064 -0.1320 -0.2799
  678PSPI   C2B 9152   1.692  17.823   7.034 -0.1241  0.3628 -0.1913
  678PSPI   C3B 9153   1.789  17.507   7.328 -0.3440  0.1745  0.1087
  678PSPI   C4B 9154   1.840  17.267   7.693 -0.1272  0.1293  0.0884
  679PSPI    C1 9155  10.211   3.822   5.963  0.0965 -0.0317  0.7261
  679PSPI    C2 9156  10.486   3.532   5.944 -0.1073 -0.2008  0.0905
  679PSPI    C3 9157  10.106   3.441   6.029 -0.2106 -0.1563 -0.3070
  679PSPI   PO4 9158  10.325   3.998   6.055 -0.0210  0.3323 -0.0508
  679PSPI   GL1 9159  10.596   3.943   6.408  0.1088  0.1756  0.0030
  679PSPI   GL2 9160  10.469   3.641   6.409 -0.1058 -0.3721 -0.1347
  679PSPI   C1A 9161  10.689   3.949   6.895 -0.0648 -0.0519 -0.2409
  679PSPI   C2A 9162  10.593   4.060   7.339 -0.2021 -0.1991  0.0368
  679PSPI   C3A 9163  10.606   3.755   7.749 -0.0685 -0.0303  0.3867
  679PSPI   C4A 9164  11.044   3.633   7.849  0.2419 -0.4165  0.1136
  679PSPI   C1B 9165  10.582   3.484   6.883 -0.1397  0.2399  0.0982
  679PSPI   C2B 9166  10.555   3.469   7.344  0.2791  0.0625  0.1043
  679PSPI   C3B 9167  10.623   3.273   7.823  0.1425 -0.1218 -0.0056
  679PSPI   C4B 9168  10.994   3.016   7.952 -0.2382  0.0563 -0.0702
  680PSPI    C1 9169   0.985  16.942   5.919 -0.3507 -0.0014 -0.0399
  680PSPI    C2 9170   0.785  16.598   5.877 -0.1307 -0.1058 -0.2601
  680PSPI    C3 9171   1.148  16.639   5.714 -0.0857  0.1756 -0.0958
  680PSPI   PO4 9172   1.031  17.026   6.177  0.0599  0.1504  0.1272
  680PSPI   GL1 9173   0.769  17.180   6.619  0.1543  0.1101 -0.1051
  680PSPI   GL2 9174   0.886  17.590   6.667 -0.3724 -0.2136 -0.1682
  680PSPI   C1A 9175   0.563  17.207   6.982  0.0209  0.2686  0.1033
  680PSPI   C2A 9176   0.634  17.039   7.432 -0.1400 -0.0298 -0.2943
  680PSPI   C3A 9177   0.873  17.021   7.905  0.3202 -0.2099  0.0379
  680PSPI   C4A 9178   0.668  17.060   8.352  0.1183  0.0847  0.0160
  680PSPI   C1B 9179   1.148  17.694   7.047 -0.0091  0.2845  0.0623
  680PSPI   C2B 9180   1.379  17.768   7.411  0.2598  0.2690 -0.2228
  680PSPI   C3B 9181   1.608  17.887   7.778 -0.2518  0.0374  0.0616
  680PSPI   C4B 9182   1.990  17.879   7.944 -0.1675  0.0015 -0.0303
  681PSPI    C1 9183   9.557  15.487   5.553 -0.0598  0.3454  0.0166
  681PSPI    C2 9184   9.357  15.264   5.287  0.0817  0.1612  0.0621
  681PSPI    C3 9185   9.173  15.567   5.474 -0.1655 -0.0287  0.1320
  681PSPI   PO4 9186   9.797  15.329   5.602 -0.1126  0.0798 -0.1732
  681PSPI   GL1 9187   9.954  15.229   5.945 -0.1296 -0.0743 -0.0338
  681PSPI   GL2 9188   9.621  15.289   6.068  0.2204 -0.0420 -0.1653
  681PSPI   C1A 9189  10.058  15.255   6.396  0.2409  0.1222 -0.1096
  681PSPI   C2A 9190  10.330  15.136   6.731  0.3083  0.0026 -0.0454
  681PSPI   C3A 9191  10.457  15.285   7.174 -0.2099  0.3063  0.2294
  681PSPI   C4A 9192  10.564  15.401   7.643 -0.0199 -0.0136  0.2109
  681PSPI   C1B 9193   9.652  15.535   6.408  0.0698  0.0077  0.3045
  681PSPI   C2B 9194   9.622  15.769   6.777 -0.1356  0.0187 -0.2655
  681PSPI   C3B 9195   9.404  16.099   7.039  0.0568 -0.0555  0.0374
  681PSPI   C4B 9196   9.318  16.323   7.328  0.2421  0.2776 -0.3358
  682PSPI    C1 9197  13.791  12.815   5.826  0.0721 -0.1857  0.1010
  682PSPI    C2 9198  13.780  12.879   5.431 -0.3562 -0.2121  0.1044
  682PSPI    C3 9199  14.031  12.606   5.583 -0.1241 -0.1371 -0.1378
  682PSPI   PO4 9200  13.598  12.778   5.980  0.3927 -0.2575  0.2330
  682PSPI   GL1 9201  13.247  12.987   6.200 -0.0808  0.2531 -0.0460
  682PSPI   GL2 9202  12.959  13.079   6.259  0.3109 -0.1716  0.1179
  682PSPI   C1A 9203  13.181  13.011   6.666 -0.0204  0.0059  0.0602
  682PSPI   C2A 9204  13.022  13.144   7.004  0.0125  0.0151 -0.0729
  682PSPI   C3A 9205  12.770  13.252   7.334 -0.0032  0.1560 -0.1898
  682PSPI   C4A 9206  12.747  12.899   7.728 -0.0789  0.0637  0.1026
  682PSPI   C1B 9207  12.707  13.160   6.556 -0.1698  0.0583  0.1228
  682PSPI   C2B 9208  12.758  13.459   6.708  0.1829  0.4221 -0.2111
  682PSPI   C3B 9209  12.532  13.658   7.032 -0.0900 -0.1230  0.1360
  682PSPI   C4B 9210  12.524  13.714   7.514 -0.0399 -0.1119 -0.0171
  683PSPI    C1 9211   0.754  12.570   5.282 -0.0430  0.1612 -0.0199
  683PSPI    C2 9212   0.408  12.477   5.105 -0.0615  0.0428  0.0774
  683PSPI    C3 9213   0.754  12.414   4.914 -0.0935  0.1713 -0.0241
  683PSPI   PO4 9214   0.604  12.768   5.477 -0.0785  0.0799 -0.0981
  683PSPI   GL1 9215   0.538  12.775   5.923 -0.2608 -0.4617  0.2873
  683PSPI   GL2 9216   0.819  12.750   5.985  0.1888  0.0197  0.2042
  683PSPI   C1A 9217   0.726  13.153   6.173 -0.0328 -0.1422 -0.1110
  683PSPI   C2A 9218   0.627  13.278   6.616  0.3695 -0.1427  0.0129
  683PSPI   C3A 9219   0.576  13.250   7.123 -0.1845 -0.1562 -0.0726
  683PSPI   C4A 9220   0.815  13.075   7.494  0.0479 -0.1441 -0.0611
  683PSPI   C1B 9221   0.926  12.383   6.254  0.1273  0.0379  0.0360
  683PSPI   C2B 9222   0.896  12.294   6.761 -0.0227 -0.1356  0.0587
  683PSPI   C3B 9223   1.041  12.237   7.185 -0.2718  0.1398 -0.2712
  683PSPI   C4B 9224   1.100  12.080   7.646 -0.5060  0.0299  0.0101
  684PSPI    C1 9225   6.303   8.210   5.388  0.1000 -0.0938  0.3934
  684PSPI    C2 9226   6.684   8.331   5.405  0.1221 -0.0278 -0.2838
  684PSPI    C3 9227   6.592   7.983   5.230 -0.1377 -0.0113 -0.1849
  684PSPI   PO4 9228   6.158   8.358   5.632 -0.0326 -0.2057 -0.1197
  684PSPI   GL1 9229   5.965   8.333   6.073 -0.0364  0.0848  0.0323
  684PSPI   GL2 9230   6.025   8.532   6.283 -0.0440 -0.1073 -0.1278
  684PSPI   C1A 9231   5.531   8.291   6.066  0.1371  0.0713 -0.0146
  684PSPI   C2A 9232   5.222   8.360   6.342  0.0744 -0.0354  0.2178
  684PSPI   C3A 9233   5.054   8.317   6.797 -0.0220 -0.0606 -0.5371
  684PSPI   C4A 9234   4.779   8.300   7.184  0.1876 -0.1226 -0.4466
  684PSPI   C1B 9235   5.889   8.778   6.637 -0.1386  0.0261 -0.0187
  684PSPI   C2B 9236   5.852   8.706   6.999  0.1022  0.3084  0.1333
  684PSPI   C3B 9237   5.714   8.908   7.259  0.0005 -0.4228 -0.0682
  684PSPI   C4B 9238   5.632   9.027   7.705  0.1289  0.1953 -0.0859
  685PSPI    C1 9239   8.893   1.430   5.739  0.2806  0.0107 -0.0512
  685PSPI    C2 9240   9.287   1.403   5.803  0.2902 -0.2864 -0.2126
  685PSPI    C3 9241   9.134   1.289   5.452  0.0940  0.1222 -0.2658
  685PSPI   PO4 9242   8.821   1.373   5.986  0.4084 -0.0732 -0.3396
  685PSPI   GL1 9243   8.738   1.209   6.362 -0.1410  0.0374 -0.0210
  685PSPI   GL2 9244   8.580   0.932   6.599  0.3741  0.2840 -0.0060
  685PSPI   C1A 9245   8.621   1.383   6.835  0.1689 -0.0090  0.2295
  685PSPI   C2A 9246   8.404   1.435   7.280 -0.2087  0.2083 -0.3210
  685PSPI   C3A 9247   8.196   1.469   7.679  0.0886  0.0999  0.3851
  685PSPI   C4A 9248   7.951   1.185   7.861 -0.1221  0.1481  0.1013
  685PSPI   C1B 9249   8.376   1.004   6.999  0.0017 -0.0525  0.3599
  685PSPI   C2B 9250   7.932   0.969   7.190 -0.4691 -0.1869  0.0212
  685PSPI   C3B 9251   7.713   0.818   7.564 -0.0556  0.1486 -0.0022
  685PSPI   C4B 9252   8.015   0.710   7.877  0.0954 -0.2077  0.1947
  686PSPI    C1 9253   9.448   9.191   5.581 -0.1060  0.0645 -0.1165
  686PSPI    C2 9254   9.237   9.503   5.716 -0.1908 -0.1024  0.1448
  686PSPI    C3 9255   9.144   9.336   5.365 -0.1068  0.2006 -0.0250
  686PSPI   PO4 9256   9.444   9.056   5.879 -0.2436 -0.5054 -0.0547
  686PSPI   GL1 9257   9.547   9.091   6.270  0.0767 -0.1312 -0.1973
  686PSPI   GL2 9258   9.701   9.181   6.516  0.0466  0.0310 -0.3948
  686PSPI   C1A 9259   9.249   9.087   6.617 -0.0604 -0.0562  0.2642
  686PSPI   C2A 9260   9.001   8.902   6.922  0.2827 -0.1486 -0.1455
  686PSPI   C3A 9261   8.805   8.939   7.396 -0.0837 -0.0560 -0.1528
  686PSPI   C4A 9262   8.446   9.095   7.529  0.1245  0.0800 -0.0235
  686PSPI   C1B 9263   9.630   9.037   6.945  0.2824 -0.3218  0.3346
  686PSPI   C2B 9264   9.346   8.868   7.284 -0.1006  0.1731 -0.2408
  686PSPI   C3B 9265   9.224   8.761   7.629 -0.0500 -0.3336  0.4400
  686PSPI   C4B 9266   9.096   8.315   7.719  0.3501  0.0556 -0.0027
  687PSPI    C1 9267   9.072   6.526   5.442  0.1245  0.2566 -0.0242
  687PSPI    C2 9268   8.706   6.661   5.351 -0.0217 -0.2094 -0.1534
  687PSPI    C3 9269   9.019   6.767   5.127 -0.0809  0.1524 -0.0713
  687PSPI   PO4 9270   9.048   6.502   5.729  0.1085  0.2480  0.1498
  687PSPI   GL1 9271   8.806   6.476   6.088  0.0950 -0.0546  0.0999
  687PSPI   GL2 9272   8.793   6.239   6.178 -0.5145 -0.0922 -0.0980
  687PSPI   C1A 9273   8.817   6.616   6.561 -0.0743 -0.0257  0.1022
  687PSPI   C2A 9274   8.787   6.711   6.967  0.1632  0.0379  0.2602
  687PSPI   C3A 9275   8.665   6.847   7.339  0.2574  0.0446  0.3227
  687PSPI   C4A 9276   8.780   7.212   7.432  0.0262 -0.0419  0.3420
  687PSPI   C1B 9277   8.750   6.106   6.553 -0.0209 -0.0371  0.1490
  687PSPI   C2B 9278   8.854   6.166   6.961  0.3812 -0.1680 -0.0421
  687PSPI   C3B 9279   8.936   6.312   7.446  0.3359 -0.5143  0.0952
  687PSPI   C4B 9280   8.681   6.589   7.737 -0.0573  0.2854 -0.0773
  688PSPI    C1 9281  17.592  17.921   6.327 -0.1586  0.2470 -0.0122
  688PSPI    C2 9282  17.890  18.060   6.100  0.0137 -0.0221  0.0437
  688PSPI    C3 9283  17.547  17.943   5.931  0.0698 -0.0409 -0.0578
  688PSPI   PO4 9284  17.768  17.715   6.467 -0.0830  0.2165  0.0827
  688PSPI   GL1 9285  18.005  17.518   6.751  0.0854  0.2636 -0.2213
  688PSPI   GL2 9286  17.759  17.326   6.777  0.0673 -0.2328 -0.1099
  688PSPI   C1A 9287  18.036  17.480   7.190 -0.1755  0.1151  0.1275
  688PSPI   C2A 9288  18.051  17.384   7.614  0.3353 -0.0249 -0.2438
  688PSPI   C3A 9289  17.867  17.621   8.091  0.0411  0.0265 -0.0731
  688PSPI   C4A 9290  18.169  17.797   8.295  0.0881  0.0782  0.1890
  688PSPI   C1B 9291  18.172  17.081   6.922  0.2307 -0.4509 -0.3759
  688PSPI   C2B 9292  18.415  17.065   7.353 -0.0121 -0.1105  0.0772
  688PSPI   C3B 9293  18.526  17.028   7.782  0.0212  0.6769  0.1318
  688PSPI   C4B 9294  18.860  17.295   7.966 -0.2110  0.0752  0.2308
  689PSPI    C1 9295  15.632  12.266   5.865  0.0048  0.3680 -0.0645
  689PSPI    C2 9296  15.769  12.042   5.563  0.1542  0.1480  0.1623
  689PSPI    C3 9297  15.401  12.198   5.546  0.1901  0.2025 -0.1657
  689PSPI   PO4 9298  15.695  12.165   6.065 -0.0471 -0.0807 -0.0249
  689PSPI   GL1 9299  15.667  12.360   6.369  0.0228 -0.0631 -0.2925
  689PSPI   GL2 9300  15.392  12.507   6.250  0.0177 -0.0989  0.0379
  689PSPI   C1A 9301  15.945  12.322   6.646 -0.0402 -0.1247 -0.2830
  689PSPI   C2A 9302  15.882  12.517   7.053 -0.1105 -0.1587 -0.1643
  689PSPI   C3A 9303  15.868  12.382   7.464 -0.0408 -0.4190 -0.1100
  689PSPI   C4A 9304  15.787  12.409   7.944  0.0273  0.1197 -0.1907
  689PSPI   C1B 9305  15.391  12.556   6.711  0.1531 -0.0225  0.1309
  689PSPI   C2B 9306  15.374  12.615   7.183 -0.0472  0.2808  0.1275
  689PSPI   C3B 9307  15.496  12.668   7.636  0.0108  0.0707 -0.1120
  689PSPI   C4B 9308  15.181  13.020   7.853  0.1151 -0.0904 -0.2383
  690PSPI    C1 9309   3.310  14.760   5.966  0.3157 -0.0596  0.0574
  690PSPI    C2 9310   3.554  14.465   5.847  0.3190 -0.0452  0.0283
  690PSPI    C3 9311   3.607  14.837   5.709  0.2236 -0.0600 -0.0499
  690PSPI   PO4 9312   3.022  14.854   5.956 -0.0666 -0.0343  0.1377
  690PSPI   GL1 9313   2.742  14.679   6.148  0.0451  0.0630 -0.1706
  690PSPI   GL2 9314   2.529  14.457   6.105 -0.0062 -0.4560 -0.6293
  690PSPI   C1A 9315   2.599  14.803   6.522  0.1928 -0.0481 -0.2743
  690PSPI   C2A 9316   2.515  14.764   7.058 -0.0578 -0.0451 -0.0934
  690PSPI   C3A 9317   2.613  14.512   7.397 -0.1694  0.0702  0.1473
  690PSPI   C4A 9318   2.499  14.324   7.759  0.0814  0.1723  0.1851
  690PSPI   C1B 9319   2.718  14.344   6.539 -0.1536  0.1107  0.2162
  690PSPI   C2B 9320   2.662  14.268   6.955  0.0106  0.1356 -0.2941
  690PSPI   C3B 9321   2.569  14.059   7.315 -0.0413  0.1720  0.1316
  690PSPI   C4B 9322   2.573  13.785   7.719 -0.1670 -0.3578 -0.0177
  691PSPI    C1 9323   5.833   7.124   4.999  0.2835  0.0737  0.1088
  691PSPI    C2 9324   5.528   7.359   5.109 -0.1010 -0.2063 -0.3236
  691PSPI    C3 9325   5.828   7.510   4.892 -0.0390  0.0199 -0.0852
  691PSPI   PO4 9326   5.815   6.870   5.306 -0.0379 -0.1400  0.1463
  691PSPI   GL1 9327   5.804   6.935   5.733  0.2880 -0.0338 -0.1963
  691PSPI   GL2 9328   5.697   6.619   5.866  0.0371  0.0503  0.0002
  691PSPI   C1A 9329   5.786   7.316   5.906 -0.0358 -0.0778 -0.0611
  691PSPI   C2A 9330   5.760   7.597   6.156  0.0690 -0.0180 -0.1358
  691PSPI   C3A 9331   5.518   7.906   6.477  0.1868 -0.0759  0.2326
  691PSPI   C4A 9332   5.614   8.361   6.627  0.2253  0.2220  0.2612
  691PSPI   C1B 9333   5.629   6.953   6.185  0.0346 -0.1387 -0.3797
  691PSPI   C2B 9334   5.682   6.938   6.746 -0.1402 -0.1399  0.0299
  691PSPI   C3B 9335   5.650   7.161   7.117 -0.2557  0.0507  0.2076
  691PSPI   C4B 9336   5.462   7.358   7.411 -0.2846  0.1595  0.0879
  692PSPI    C1 9337  11.381   1.904   5.942 -0.0621  0.0720  0.0261
  692PSPI    C2 9338  11.103   1.963   5.660  0.0546 -0.0529 -0.1172
  692PSPI    C3 9339  11.486   1.912   5.556  0.1637  0.3074  0.0898
  692PSPI   PO4 9340  11.235   2.003   6.160  0.1834  0.1458  0.0907
  692PSPI   GL1 9341  10.959   1.823   6.425 -0.0188  0.0668 -0.0007
  692PSPI   GL2 9342  10.682   1.855   6.368 -0.0400  0.0130 -0.1678
  692PSPI   C1A 9343  11.028   2.078   6.840  0.0334 -0.1299 -0.2469
  692PSPI   C2A 9344  11.161   2.313   7.317 -0.1715  0.0488  0.4646
  692PSPI   C3A 9345  11.120   1.977   7.568  0.0700  0.2737 -0.1356
  692PSPI   C4A 9346  11.221   1.565   7.797 -0.0177 -0.0221 -0.3669
  692PSPI   C1B 9347  10.550   1.795   6.765 -0.1902  0.0123  0.1601
  692PSPI   C2B 9348  10.268   1.895   7.006 -0.0446  0.0759 -0.2480
  692PSPI   C3B 9349   9.941   1.705   7.242 -0.0993  0.0497 -0.1469
  692PSPI   C4B 9350   9.622   1.876   7.543  0.0620 -0.1383 -0.1261
  693PSPI    C1 9351   7.345   0.858   5.916  0.0613 -0.3431 -0.3605
  693PSPI    C2 9352   7.351   1.163   5.658  0.0595 -0.2079 -0.2025
  693PSPI    C3 9353   7.674   1.082   5.878 -0.1586  0.1114  0.2510
  693PSPI   PO4 9354   7.175   0.923   6.070 -0.2887  0.0800 -0.0863
  693PSPI   GL1 9355   7.482   1.057   6.443  0.3874  0.2467  0.0715
  693PSPI   GL2 9356   7.732   1.006   6.588  0.2351  0.3045  0.0616
  693PSPI   C1A 9357   7.176   1.097   6.799 -0.0877 -0.0651  0.4283
  693PSPI   C2A 9358   6.877   1.254   6.921 -0.2413 -0.0346  0.0177
  693PSPI   C3A 9359   6.723   1.212   7.334  0.1441 -0.0121 -0.0548
  693PSPI   C4A 9360   6.839   1.390   7.725 -0.0366  0.0333 -0.1841
  693PSPI   C1B 9361   7.676   1.525   6.522  0.1399 -0.2535  0.0880
  693PSPI   C2B 9362   7.666   1.875   6.897 -0.0540 -0.0979  0.1680
  693PSPI   C3B 9363   7.472   2.009   7.270  0.1158  0.1237  0.2331
  693PSPI   C4B 9364   7.535   2.083   7.698 -0.0012 -0.1643  0.0289
  694PSPI    C1 9365   3.524   0.265   6.022  0.0642 -0.1426  0.4137
  694PSPI    C2 9366   3.826   0.027   5.912  0.1165  0.1726 -0.1645
  694PSPI    C3 9367   3.634   0.247   5.638 -0.4225  0.2343  0.2448
  694PSPI   PO4 9368   3.613   0.348   6.306  0.3325 -0.0879  0.0087
  694PSPI   GL1 9369   3.507   0.400   6.686 -0.2291 -0.0183 -0.2677
  694PSPI   GL2 9370   3.394   0.698   6.709  0.1188 -0.0283  0.0913
  694PSPI   C1A 9371   3.078   0.244   6.964  0.0403 -0.0116 -0.1158
  694PSPI   C2A 9372   3.039   0.138   7.369 -0.0456  0.0133 -0.1147
  694PSPI   C3A 9373   3.018  -0.009   7.840 -0.0314  0.0432  0.3477
  694PSPI   C4A 9374   3.036  -0.012   8.253  0.0667 -0.0091 -0.2634
  694PSPI   C1B 9375   3.409   0.622   7.137  0.2362  0.2066  0.3526
  694PSPI   C2B 9376   3.399   0.748   7.523  0.0169  0.1172 -0.0434
  694PSPI   C3B 9377   3.705   0.859   7.675 -0.1207  0.2916  0.0702
  694PSPI   C4B 9378   3.630   0.847   8.071 -0.2135 -0.0319  0.0001
  695POPI    C1 9379  14.151   1.188   5.961 -0.0125  0.0747 -0.0428
  695POPI    C2 9380  14.348   1.376   5.668  0.1526  0.0796  0.0700
  695POPI    C3 9381  13.984   1.226   5.600  0.2533 -0.0561 -0.1827
  695POPI   PO4 9382  14.256   1.363   6.161 -0.1786  0.0398  0.0838
  695POPI   GL1 9383  14.273   1.663   6.422 -0.0311 -0.1267  0.0258
  695POPI   GL2 9384  14.218   1.912   6.413  0.0386 -0.0299  0.0641
  695POPI   C1A 9385  14.431   1.515   6.768  0.3679  0.1623 -0.1536
  695POPI   D2A 9386  14.525   1.291   7.166 -0.1326 -0.2244 -0.1262
  695POPI   C3A 9387  14.742   1.389   7.564  0.4908 -0.0318 -0.2287
  695POPI   C4A 9388  14.529   1.230   7.784  0.0741  0.1565 -0.0156
  695POPI   C1B 9389  14.504   2.052   6.854 -0.0129 -0.0308  0.1755
  695POPI   C2B 9390  14.496   2.337   7.173  0.0082  0.1128 -0.1097
  695POPI   C3B 9391  14.432   2.366   7.553  0.0420  0.1033  0.3357
  695POPI   C4B 9392  14.267   2.476   7.951  0.2665 -0.1872 -0.2022
  696POPI    C1 9393   0.444   0.419   5.624 -0.1258 -0.0775  0.0624
  696POPI    C2 9394   0.213   0.481   5.303  0.0588  0.2139 -0.0175
  696POPI    C3 9395   0.593   0.608   5.305  0.1762 -0.1260  0.1712
  696POPI   PO4 9396   0.385   0.441   5.875 -0.1809 -0.2516 -0.2266
  696POPI   GL1 9397   0.405   0.578   6.386  0.2327  0.0065  0.0714
  696POPI   GL2 9398   0.557   0.800   6.214 -0.1725  0.2744 -0.2347
  696POPI   C1A 9399   0.331   0.474   6.750  0.2904  0.0871 -0.1013
  696POPI   D2A 9400   0.246   0.196   7.116 -0.3481 -0.2041 -0.2361
  696POPI   C3A 9401   0.390   0.227   7.528 -0.0485 -0.0329  0.2998
  696POPI   C4A 9402   0.564   0.504   7.798 -0.2951 -0.0940  0.2503
  696POPI   C1B 9403   0.486   0.959   6.660  0.2006 -0.1622  0.2405
  696POPI   C2B 9404   0.552   1.020   7.074  0.1920  0.1512  0.2233
  696POPI   C3B 9405   0.629   1.072   7.616 -0.1095  0.2388 -0.1436
  696POPI   C4B 9406   1.070   1.038   7.802  0.1779 -0.1318  0.1386
  697POPI    C1 9407   7.916  13.949   5.067  0.2424 -0.1773 -0.0767
  697POPI    C2 9408   7.640  14.091   4.814  0.1907 -0.0314  0.0606
  697POPI    C3 9409   7.712  13.698   4.831  0.0026 -0.0689  0.0121
  697POPI   PO4 9410   7.830  14.100   5.301 -0.1761 -0.0396 -0.3476
  697POPI   GL1 9411   7.858  13.915   5.823 -0.1928  0.0468 -0.0785
  697POPI   GL2 9412   7.742  14.219   6.073 -0.0211 -0.0697 -0.2816
  697POPI   C1A 9413   8.147  13.915   6.222  0.1149  0.0106  0.1629
  697POPI   D2A 9414   8.147  14.010   6.617 -0.5992  0.2486  0.1843
  697POPI   C3A 9415   7.892  13.742   6.894  0.0579  0.0857 -0.2361
  697POPI   C4A 9416   7.946  13.323   7.158  0.2976  0.1929  0.1606
  697POPI   C1B 9417   7.858  14.364   6.395 -0.0667 -0.2865 -0.2515
  697POPI   C2B 9418   7.842  14.387   6.795 -0.2675  0.1790 -0.1983
  697POPI   C3B 9419   8.120  14.166   7.123  0.0157 -0.0544  0.2063
  697POPI   C4B 9420   8.427  13.826   7.148 -0.3946 -0.0933  0.2876
  698POPI    C1 9421  10.255  18.034   5.876 -0.0951 -0.2334 -0.0584
  698POPI    C2 9422  10.101  17.916   5.526  0.0116 -0.1453 -0.1358
  698POPI    C3 9423  10.394  18.188   5.534  0.2291 -0.3794  0.0041
  698POPI   PO4 9424  10.033  17.960   6.039  0.0249  0.3789  0.3656
  698POPI   GL1 9425  10.069  17.647   6.384  0.0779 -0.0303  0.0130
  698POPI   GL2 9426  10.268  17.621   6.283  0.0037 -0.1538  0.0657
  698POPI   C1A 9427  10.052  17.595   6.918  0.1378 -0.3272  0.0484
  698POPI   D2A 9428  10.146  17.447   7.327 -0.1425 -0.0264 -0.4011
  698POPI   C3A 9429   9.962  17.156   7.636  0.2859 -0.0428 -0.0773
  698POPI   C4A 9430   9.684  16.727   7.470 -0.1391  0.0237 -0.1176
  698POPI   C1B 9431  10.537  17.770   6.664  0.1661  0.0812 -0.0742
  698POPI   C2B 9432  10.500  17.791   7.014 -0.2954 -0.0736 -0.1088
  698POPI   C3B 9433  10.585  17.731   7.398  0.2688  0.0505 -0.1155
  698POPI   C4B 9434  10.443  17.950   7.732 -0.1523 -0.1204 -0.3952
  699POPI    C1 9435   7.615   0.276   5.861 -0.3113 -0.0832 -0.0860
  699POPI    C2 9436   7.934   0.133   5.666 -0.1065  0.0382  0.1534
  699POPI    C3 9437   7.577   0.145   5.485  0.0769  0.1498 -0.2128
  699POPI   PO4 9438   7.615   0.111   6.069 -0.0506 -0.1804 -0.0513
  699POPI   GL1 9439   7.866  -0.077   6.358  0.1558  0.0016 -0.2412
  699POPI   GL2 9440   7.585  -0.313   6.433 -0.1512 -0.3675  0.0605
  699POPI   C1A 9441   7.829  -0.026   6.837 -0.2159  0.0055  0.0348
  699POPI   D2A 9442   7.901   0.138   7.171  0.2166 -0.1921 -0.0756
  699POPI   C3A 9443   7.562   0.388   7.409  0.1986 -0.1568 -0.1979
  699POPI   C4A 9444   7.332   0.532   7.801  0.2169 -0.4401 -0.0093
  699POPI   C1B 9445   7.592  -0.510   6.840  0.2420 -0.2002  0.1581
  699POPI   C2B 9446   7.520  -0.882   7.112 -0.2913 -0.1421 -0.2729
  699POPI   C3B 9447   7.701  -0.985   7.341 -0.0230 -0.3850  0.1352
  699POPI   C4B 9448   8.016  -1.085   7.651  0.4280 -0.0605  0.2400
  700POPI    C1 9449   0.751   7.514   5.481  0.0197 -0.0467 -0.0173
  700POPI    C2 9450   0.891   7.539   5.107 -0.1112 -0.0792 -0.0690
  700POPI    C3 9451   0.510   7.434   5.171 -0.1329  0.0793  0.0675
  700POPI   PO4 9452   0.868   7.778   5.624  0.2728  0.0684  0.2566
  700POPI   GL1 9453   1.044   7.978   5.795  0.1326  0.0570  0.0363
  700POPI   GL2 9454   1.274   8.172   5.909 -0.1228 -0.0171  0.0403
  700POPI   C1A 9455   0.978   8.061   6.284  0.0843  0.1303  0.1142
  700POPI   D2A 9456   0.823   8.063   6.676  0.0933  0.1882  0.0018
  700POPI   C3A 9457   1.043   8.084   7.058  0.2261 -0.1293 -0.1466
  700POPI   C4A 9458   1.247   7.888   7.273 -0.3340 -0.2355  0.0143
  700POPI   C1B 9459   1.236   8.483   6.350 -0.0864  0.3273  0.3524
  700POPI   C2B 9460   1.039   8.548   6.700  0.0482 -0.0861 -0.0940
  700POPI   C3B 9461   0.770   8.572   7.062  0.0167  0.1446 -0.1180
  700POPI   C4B 9462   0.732   8.878   7.333  0.0841 -0.1168 -0.0636
  701POPI    C1 9463  14.702   7.667   5.710  0.0139  0.1388 -0.2881
  701POPI    C2 9464  14.961   7.611   5.410 -0.0928  0.2076 -0.3941
  701POPI    C3 9465  14.761   7.955   5.439 -0.2923  0.0942 -0.4060
  701POPI   PO4 9466  14.815   7.532   5.881 -0.4008 -0.0615  0.1621
  701POPI   GL1 9467  14.936   7.536   6.306 -0.1862  0.1508  0.0864
  701POPI   GL2 9468  14.582   7.625   6.438 -0.0127  0.0870 -0.2210
  701POPI   C1A 9469  15.185   7.548   6.697 -0.0226 -0.2022  0.4274
  701POPI   D2A 9470  15.447   7.838   7.029  0.0296 -0.2249 -0.1867
  701POPI   C3A 9471  15.732   7.793   7.473  0.1405  0.1333 -0.1728
  701POPI   C4A 9472  15.667   7.483   7.821  0.1277  0.0852 -0.1773
  701POPI   C1B 9473  14.726   7.588   6.832 -0.3100 -0.0548 -0.1438
  701POPI   C2B 9474  15.004   7.644   7.167  0.1617  0.0668  0.0542
  701POPI   C3B 9475  15.079   7.420   7.519 -0.3408 -0.2001 -0.1936
  701POPI   C4B 9476  15.154   7.376   8.015  0.0953  0.1102  0.0231
  702POPI    C1 9477   4.684  11.787   5.584 -0.0497  0.2149 -0.0762
  702POPI    C2 9478   4.930  12.043   5.401  0.1761 -0.1274 -0.2640
  702POPI    C3 9479   4.722  11.778   5.186  0.0948 -0.2326 -0.0584
  702POPI   PO4 9480   4.799  11.698   5.780  0.4059  0.2382 -0.1153
  702POPI   GL1 9481   4.707  11.348   6.133  0.2951  0.0518 -0.0343
  702POPI   GL2 9482   4.389  11.415   6.043 -0.2689  0.2733 -0.0946
  702POPI   C1A 9483   4.556  11.077   6.472  0.1071 -0.2960  0.0140
  702POPI   D2A 9484   4.698  11.076   6.828  0.0766 -0.0494 -0.0787
  702POPI   C3A 9485   4.463  11.177   7.184 -0.1211 -0.0164 -0.0135
  702POPI   C4A 9486   4.297  10.830   7.518  0.3621 -0.2947  0.1914
  702POPI   C1B 9487   4.127  11.225   6.307  0.2363  0.0936  0.1271
  702POPI   C2B 9488   3.752  11.438   6.383 -0.1123  0.1603 -0.2128
  702POPI   C3B 9489   3.492  11.586   6.610  0.1971  0.1109 -0.0376
  702POPI   C4B 9490   3.505  11.922   6.851 -0.1419 -0.1374  0.2126
  703POPI    C1 9491   6.040  16.837   5.632  0.1283  0.0224 -0.2414
  703POPI    C2 9492   5.827  16.567   5.428  0.1818 -0.1069 -0.1276
  703POPI    C3 9493   5.711  16.949   5.434 -0.1177 -0.1976  0.0333
  703POPI   PO4 9494   6.182  16.726   5.860  0.1401  0.0539 -0.0337
  703POPI   GL1 9495   6.244  16.593   6.296 -0.1834 -0.3185 -0.0875
  703POPI   GL2 9496   6.613  16.531   6.324  0.0263 -0.2529  0.0839
  703POPI   C1A 9497   6.120  16.559   6.575 -0.1265  0.3656  0.0209
  703POPI   D2A 9498   5.863  16.674   6.907  0.0162 -0.1459 -0.0707
  703POPI   C3A 9499   5.502  16.839   6.865 -0.0654  0.1656  0.0000
  703POPI   C4A 9500   5.276  17.153   6.739 -0.0072 -0.2526 -0.0504
  703POPI   C1B 9501   6.761  16.381   6.732 -0.0469  0.0015  0.0313
  703POPI   C2B 9502   6.826  16.572   7.056 -0.2490 -0.1537  0.0273
  703POPI   C3B 9503   6.614  16.482   7.465  0.4446 -0.3976 -0.2305
  703POPI   C4B 9504   6.655  16.274   7.905  0.1528  0.0810  0.1642
  704POPI    C1 9505  15.423   6.427   5.379 -0.2737  0.0908 -0.1006
  704POPI    C2 9506  15.708   6.364   5.106 -0.2321 -0.2829  0.0232
  704POPI    C3 9507  15.423   6.636   5.038  0.0246 -0.0632 -0.1985
  704POPI   PO4 9508  15.608   6.381   5.610  0.0409  0.1694  0.1065
  704POPI   GL1 9509  15.694   6.330   6.065  0.1869 -0.0431  0.1725
  704POPI   GL2 9510  15.860   6.231   6.247 -0.0083  0.2245  0.0578
  704POPI   C1A 9511  15.616   6.601   6.388 -0.1111 -0.1202 -0.1247
  704POPI   D2A 9512  15.736   6.643   6.836  0.3403  0.3322  0.0919
  704POPI   C3A 9513  15.621   6.321   7.137 -0.0064 -0.1126  0.1751
  704POPI   C4A 9514  15.645   6.281   7.588 -0.1039  0.1933 -0.1389
  704POPI   C1B 9515  15.846   6.025   6.606 -0.1064  0.0764  0.1856
  704POPI   C2B 9516  16.056   5.882   7.045  0.2772  0.0990  0.2594
  704POPI   C3B 9517  16.459   5.614   7.149 -0.1825  0.0712  0.2505
  704POPI   C4B 9518  16.351   5.187   7.225 -0.0264  0.1465 -0.0204
  705POPI    C1 9519   0.744   8.727   5.270  0.0894 -0.0327 -0.3998
  705POPI    C2 9520   1.090   8.798   5.084  0.1043  0.0055 -0.3575
  705POPI    C3 9521   0.746   8.822   4.882  0.1146  0.1254 -0.3615
  705POPI   PO4 9522   0.864   8.890   5.559  0.0135 -0.0438  0.3056
  705POPI   GL1 9523   0.949   8.728   5.969 -0.4094  0.0993  0.0285
  705POPI   GL2 9524   0.818   8.475   5.911 -0.3030 -0.1452  0.0731
  705POPI   C1A 9525   0.696   8.797   6.402 -0.3337 -0.1481  0.2451
  705POPI   D2A 9526   0.730   8.922   6.722 -0.4077 -0.0890 -0.4901
  705POPI   C3A 9527   0.778   9.283   6.825 -0.3186 -0.0560 -0.0100
  705POPI   C4A 9528   1.116   9.640   6.639  0.0391  0.1174 -0.0346
  705POPI   C1B 9529   0.578   8.334   6.278  0.3042 -0.4504 -0.1192
  705POPI   C2B 9530   0.445   8.507   6.746 -0.0283  0.0972  0.1114
  705POPI   C3B 9531   0.291   8.597   7.011 -0.1350  0.1646 -0.0161
  705POPI   C4B 9532   0.199   8.684   7.418 -0.3382 -0.0054 -0.1121
  706POPI    C1 9533   2.740   9.573   5.529 -0.0980 -0.1717  0.1164
  706POPI    C2 9534   2.650   9.268   5.285 -0.0119 -0.2136  0.1366
  706POPI    C3 9535   2.662   9.642   5.142 -0.1731 -0.2125  0.1242
  706POPI   PO4 9536   2.529   9.482   5.747  0.0275  0.1762  0.0484
  706POPI   GL1 9537   2.440   9.366   6.194  0.0244 -0.2439  0.1639
  706POPI   GL2 9538   2.509   9.049   6.103 -0.0957 -0.2313  0.2225
  706POPI   C1A 9539   2.391   9.354   6.604  0.3123  0.1091  0.2224
  706POPI   D2A 9540   2.090   9.619   6.829 -0.2216 -0.1413 -0.1528
  706POPI   C3A 9541   1.932   9.629   7.142  0.4734 -0.1218 -0.0727
  706POPI   C4A 9542   1.862   9.634   7.629  0.1136 -0.3170 -0.0156
  706POPI   C1B 9543   2.751   8.976   6.366 -0.0811  0.0967 -0.3653
  706POPI   C2B 9544   2.889   8.827   6.781 -0.0030 -0.2499 -0.0343
  706POPI   C3B 9545   2.908   8.926   7.280 -0.2889 -0.1309  0.0556
  706POPI   C4B 9546   3.038   9.069   7.626  0.1121 -0.1202  0.1572
  707POPI    C1 9547   2.541   2.501   5.871  0.1878 -0.1006 -0.1485
  707POPI    C2 9548   2.462   2.850   5.691 -0.0108  0.0002  0.1276
  707POPI    C3 9549   2.570   2.532   5.473  0.0420  0.1975 -0.1384
  707POPI   PO4 9550   2.664   2.628   6.084 -0.0925  0.1575 -0.0191
  707POPI   GL1 9551   2.724   2.489   6.462  0.0853  0.2008 -0.2038
  707POPI   GL2 9552   2.479   2.091   6.446 -0.1327  0.3063 -0.2114
  707POPI   C1A 9553   2.728   2.744   6.882 -0.1100  0.0570 -0.1736
  707POPI   D2A 9554   2.494   2.622   7.302 -0.2573  0.0361  0.2564
  707POPI   C3A 9555   2.577   2.309   7.724  0.1625 -0.0689  0.1627
  707POPI   C4A 9556   2.222   2.181   8.044 -0.0296 -0.1220  0.0193
  707POPI   C1B 9557   2.584   2.213   6.886  0.4319  0.0863  0.0350
  707POPI   C2B 9558   2.971   2.277   7.266 -0.3722 -0.1877 -0.0440
  707POPI   C3B 9559   3.120   2.252   7.681 -0.2480  0.0186  0.1904
  707POPI   C4B 9560   3.135   1.973   8.050  0.2325  0.2472 -0.0523
  708POPI    C1 9561  18.319  10.245   5.101 -0.0014  0.1602  0.2081
  708POPI    C2 9562  18.042  10.527   5.033 -0.1413 -0.0667 -0.1970
  708POPI    C3 9563  18.429  10.605   4.967 -0.1244  0.1822  0.1650
  708POPI   PO4 9564  18.318  10.119   5.297 -0.0478  0.2993 -0.0029
  708POPI   GL1 9565  18.326   9.970   5.805 -0.3219 -0.0996  0.0605
  708POPI   GL2 9566  18.098   9.939   6.009 -0.1115  0.0643  0.4333
  708POPI   C1A 9567  18.522  10.119   6.156  0.1830  0.1202  0.1339
  708POPI   D2A 9568  18.618  10.108   6.597  0.4084 -0.0130  0.0532
  708POPI   C3A 9569  18.340   9.924   6.851 -0.0325 -0.0699 -0.1650
  708POPI   C4A 9570  18.465   9.799   7.220  0.1648 -0.0891  0.1054
  708POPI   C1B 9571  18.103  10.196   6.454  0.1793  0.2510  0.0115
  708POPI   C2B 9572  18.065  10.368   6.858  0.0441  0.2949 -0.1799
  708POPI   C3B 9573  17.964  10.358   7.306 -0.3870 -0.0969 -0.1704
  708POPI   C4B 9574  17.783  10.567   7.737 -0.2491  0.1450  0.0312
  709POPI    C1 9575  10.996   8.805   6.054  0.2299  0.1535 -0.1089
  709POPI    C2 9576  10.986   8.657   5.683 -0.0507 -0.1206  0.0036
  709POPI    C3 9577  10.993   9.053   5.740  0.2657 -0.0777 -0.2946
  709POPI   PO4 9578  10.957   8.519   6.252  0.0956 -0.1064  0.0877
  709POPI   GL1 9579  10.826   8.289   6.572 -0.2694  0.0772  0.1125
  709POPI   GL2 9580  10.706   8.656   6.634 -0.1051  0.0528 -0.0464
  709POPI   C1A 9581  10.697   7.851   6.715 -0.2466 -0.2093  0.5806
  709POPI   D2A 9582  10.598   7.754   7.169  0.2070 -0.0758  0.1127
  709POPI   C3A 9583  10.309   7.989   7.369 -0.0821 -0.4035  0.0300
  709POPI   C4A 9584  10.029   7.809   7.674  0.1322  0.1549 -0.1133
  709POPI   C1B 9585  10.462   8.732   6.937  0.1738  0.0540 -0.0038
  709POPI   C2B 9586  10.429   8.595   7.229  0.1294 -0.2634 -0.1065
  709POPI   C3B 9587  10.433   8.751   7.682  0.2628  0.0653 -0.0338
  709POPI   C4B 9588  10.239   9.079   8.054  0.0571 -0.2210  0.2102
  710POPI    C1 9589   5.826   0.122   6.031  0.0060 -0.0877  0.0292
  710POPI    C2 9590   5.806   0.167   5.634  0.1298 -0.2325  0.0058
  710POPI    C3 9591   6.105  -0.043   5.797  0.1912 -0.0065  0.1900
  710POPI   PO4 9592   5.761   0.407   6.114 -0.0230  0.2758 -0.1136
  710POPI   GL1 9593   5.334   0.246   6.387 -0.3856  0.0311  0.0257
  710POPI   GL2 9594   5.394   0.521   6.528  0.2851 -0.2028 -0.1726
  710POPI   C1A 9595   5.513  -0.005   6.670  0.2889 -0.0287 -0.0031
  710POPI   D2A 9596   5.796  -0.177   7.073 -0.1486 -0.3271  0.0693
  710POPI   C3A 9597   5.938  -0.331   7.517 -0.0987  0.0084  0.1707
  710POPI   C4A 9598   6.321  -0.501   7.700 -0.2769  0.2106  0.0665
  710POPI   C1B 9599   5.639   0.638   6.849  0.2028  0.1879 -0.0896
  710POPI   C2B 9600   5.956   0.737   7.200  0.0772  0.1072 -0.0501
  710POPI   C3B 9601   6.021   0.768   7.646 -0.1861 -0.2060  0.0735
  710POPI   C4B 9602   6.518   0.647   7.957 -0.0876 -0.0250  0.0810
  711POPI    C1 9603  10.890   2.868   6.094 -0.3152  0.0245 -0.2828
  711POPI    C2 9604  11.043   2.502   6.041 -0.0574  0.0876 -0.0021
  711POPI    C3 9605  11.255   2.824   5.936 -0.1055  0.1684  0.1457
  711POPI   PO4 9606  10.810   2.831   6.365 -0.1185  0.0015 -0.1901
  711POPI   GL1 9607  10.887   2.803   6.813 -0.3611  0.0628 -0.1799
  711POPI   GL2 9608  11.176   2.686   6.699  0.2013  0.0327  0.1510
  711POPI   C1A 9609  10.751   2.657   7.255 -0.0746  0.1079 -0.0583
  711POPI   D2A 9610  10.679   2.895   7.524 -0.0030  0.1721  0.1810
  711POPI   C3A 9611  10.279   3.097   7.490 -0.3655 -0.0467  0.1779
  711POPI   C4A 9612   9.998   3.286   7.300 -0.4258 -0.0804 -0.2418
  711POPI   C1B 9613  11.265   2.788   7.125  0.5810 -0.0107 -0.0105
  711POPI   C2B 9614  11.243   2.770   7.539 -0.0750 -0.3976 -0.4173
  711POPI   C3B 9615  11.402   3.207   7.775 -0.0988 -0.1996  0.1122
  711POPI   C4B 9616  11.541   3.400   7.978 -0.1069  0.2602  0.1397
  712POPI    C1 9617   3.423   2.129   5.849  0.0549 -0.0222 -0.0534
  712POPI    C2 9618   3.770   2.061   5.662  0.0045 -0.4860  0.0096
  712POPI    C3 9619   3.449   1.839   5.574 -0.3027 -0.0123 -0.1024
  712POPI   PO4 9620   3.482   2.205   6.070  0.1429  0.1711 -0.0958
  712POPI   GL1 9621   3.243   2.083   6.440  0.1124  0.0255  0.0297
  712POPI   GL2 9622   3.528   1.997   6.548  0.1969 -0.1865  0.1334
  712POPI   C1A 9623   3.032   1.981   6.853 -0.2247 -0.2857  0.2571
  712POPI   D2A 9624   2.852   1.748   7.106  0.1287  0.1328 -0.3333
  712POPI   C3A 9625   2.681   1.912   7.477 -0.0746  0.1022  0.0950
  712POPI   C4A 9626   2.634   1.790   7.939 -0.0709  0.2811 -0.1016
  712POPI   C1B 9627   3.423   2.252   7.003  0.0555  0.1256  0.0919
  712POPI   C2B 9628   3.488   2.474   7.388  0.1905  0.0694 -0.3023
  712POPI   C3B 9629   3.486   2.568   7.887  0.0903  0.1024 -0.1568
  712POPI   C4B 9630   3.649   2.431   8.209 -0.0321 -0.2063  0.1495
  713POPI    C1 9631  11.246  12.140   5.839 -0.1795 -0.0086 -0.1582
  713POPI    C2 9632  11.451  12.132   5.496  0.0444  0.1034 -0.0290
  713POPI    C3 9633  11.251  11.808   5.616  0.1670 -0.0160 -0.1444
  713POPI   PO4 9634  11.413  12.384   5.952 -0.4251  0.0657 -0.0748
  713POPI   GL1 9635  11.686  12.501   6.331 -0.0336 -0.2455 -0.0173
  713POPI   GL2 9636  11.933  12.264   6.462 -0.0714 -0.0212 -0.0690
  713POPI   C1A 9637  11.317  12.490   6.650  0.0843 -0.0970  0.4218
  713POPI   D2A 9638  10.968  12.246   6.789 -0.0973 -0.5214 -0.0952
  713POPI   C3A 9639  10.830  12.608   7.016  0.3976 -0.0755  0.0305
  713POPI   C4A 9640  10.663  12.532   7.432 -0.1818  0.0980 -0.1427
  713POPI   C1B 9641  11.667  12.218   6.840 -0.0091  0.1877 -0.2092
  713POPI   C2B 9642  11.494  12.320   7.153 -0.2335 -0.1240  0.5217
  713POPI   C3B 9643  11.121  12.415   7.414 -0.1410 -0.0094  0.0935
  713POPI   C4B 9644  10.964  12.581   7.858 -0.0318  0.0177 -0.0848
  714POPI    C1 9645   3.593   6.543   5.400  0.2331  0.1259 -0.3016
  714POPI    C2 9646   3.611   6.515   5.001 -0.0810 -0.1348 -0.3021
  714POPI    C3 9647   3.299   6.362   5.198  0.0672 -0.0005  0.0458
  714POPI   PO4 9648   3.825   6.470   5.450 -0.3560  0.1703  0.0197
  714POPI   GL1 9649   3.995   6.396   5.889  0.0785 -0.1584  0.3639
  714POPI   GL2 9650   3.642   6.290   6.119  0.0664 -0.0535 -0.0451
  714POPI   C1A 9651   3.894   6.809   6.078 -0.3341  0.1445 -0.3417
  714POPI   D2A 9652   3.782   7.046   6.462 -0.0739  0.0460 -0.1807
  714POPI   C3A 9653   3.880   7.224   6.823  0.2205  0.0434  0.1473
  714POPI   C4A 9654   3.931   7.568   7.201 -0.1235 -0.1424 -0.1365
  714POPI   C1B 9655   3.820   6.420   6.516  0.1519  0.1641 -0.1351
  714POPI   C2B 9656   3.749   6.654   6.889 -0.1721 -0.2443 -0.2397
  714POPI   C3B 9657   3.750   6.949   7.191  0.0555 -0.0393 -0.0130
  714POPI   C4B 9658   3.719   7.205   7.532  0.1718 -0.2399  0.2321
  715POPI    C1 9659   0.446  10.278   5.276  0.2233  0.2249  0.2083
  715POPI    C2 9660   0.765  10.121   5.093  0.1403  0.2841  0.0100
  715POPI    C3 9661   0.397  10.029   4.966  0.0787  0.2466  0.2131
  715POPI   PO4 9662   0.517  10.529   5.334 -0.0620  0.2652  0.0350
  715POPI   GL1 9663   0.565  10.710   5.725  0.1848  0.0887  0.1200
  715POPI   GL2 9664   0.384  10.399   5.865  0.4541  0.0242 -0.2140
  715POPI   C1A 9665   0.645  10.759   6.143 -0.1029  0.1362  0.2522
  715POPI   D2A 9666   0.692  10.914   6.433  0.1137  0.0033 -0.2957
  715POPI   C3A 9667   0.780  10.649   6.760  0.0983 -0.1158  0.0733
  715POPI   C4A 9668   0.728  10.311   6.928  0.0382 -0.0841 -0.2883
  715POPI   C1B 9669   0.294  10.529   6.400 -0.0354 -0.1076 -0.0139
  715POPI   C2B 9670   0.135  10.521   6.821 -0.1338  0.2652  0.1850
  715POPI   C3B 9671   0.116  10.343   7.194 -0.1053  0.1228 -0.1451
  715POPI   C4B 9672   0.349  10.221   7.583  0.0016 -0.0903  0.0194
  716POPI    C1 9673   1.602   4.704   5.922  0.0786 -0.0320  0.0469
  716POPI    C2 9674   1.713   5.037   5.731  0.1626  0.0464  0.2304
  716POPI    C3 9675   1.836   4.680   5.598  0.1112  0.0906  0.0611
  716POPI   PO4 9676   1.672   4.763   6.162  0.0397 -0.1294  0.3321
  716POPI   GL1 9677   1.841   4.845   6.509  0.0880  0.0735 -0.2359
  716POPI   GL2 9678   2.226   4.951   6.510 -0.0080  0.1698 -0.1241
  716POPI   C1A 9679   1.882   4.773   6.967 -0.0363 -0.1941  0.3469
  716POPI   D2A 9680   1.602   4.609   7.331  0.1191  0.4999 -0.1824
  716POPI   C3A 9681   1.546   4.843   7.709 -0.0486  0.0817  0.5983
  716POPI   C4A 9682   1.160   4.768   7.960 -0.2132 -0.1202 -0.3952
  716POPI   C1B 9683   2.222   5.263   6.845  0.0516 -0.1701  0.1120
  716POPI   C2B 9684   2.177   5.172   7.164 -0.1609  0.0790 -0.0922
  716POPI   C3B 9685   2.356   5.145   7.605 -0.0971  0.0685  0.2735
  716POPI   C4B 9686   2.247   4.819   7.939  0.1259  0.2176 -0.0220
  717POPI    C1 9687   5.898  13.118   5.765  0.1528  0.1882  0.0757
  717POPI    C2 9688   5.865  13.142   5.367  0.2489  0.2007  0.0682
  717POPI    C3 9689   6.173  12.946   5.530  0.0890  0.0018  0.1358
  717POPI   PO4 9690   5.857  13.407   5.869 -0.2448  0.0552 -0.1347
  717POPI   GL1 9691   5.663  13.377   6.243 -0.0804  0.0099  0.0420
  717POPI   GL2 9692   5.901  13.296   6.466  0.4685 -0.1159 -0.0150
  717POPI   C1A 9693   5.437  13.406   6.674 -0.2385 -0.1347  0.1048
  717POPI   D2A 9694   5.512  13.424   7.120  0.0705 -0.0327  0.1053
  717POPI   C3A 9695   5.259  13.626   7.385  0.0664  0.0181 -0.2866
  717POPI   C4A 9696   4.956  13.886   7.333 -0.0777  0.0081 -0.0233
  717POPI   C1B 9697   5.876  13.137   6.859 -0.0353 -0.0541  0.1505
  717POPI   C2B 9698   5.936  13.180   7.239  0.0947 -0.1259 -0.0106
  717POPI   C3B 9699   5.791  13.293   7.600  0.1135 -0.0706 -0.1983
  717POPI   C4B 9700   6.023  13.584   7.877  0.2006 -0.0348  0.0348
  718POPI    C1 9701  17.212  12.718   5.413  0.1705  0.0151 -0.1713
  718POPI    C2 9702  17.169  13.111   5.476 -0.0653 -0.0277 -0.0542
  718POPI    C3 9703  17.490  12.974   5.280 -0.0092  0.2271 -0.1444
  718POPI   PO4 9704  17.088  12.619   5.679 -0.0252 -0.0578 -0.0869
  718POPI   GL1 9705  17.024  12.397   6.108 -0.2591  0.0527  0.3152
  718POPI   GL2 9706  16.933  12.063   6.190  0.2431 -0.0060 -0.1245
  718POPI   C1A 9707  16.589  12.449   6.326  0.2632  0.0525 -0.1377
  718POPI   D2A 9708  16.195  12.634   6.440 -0.2978 -0.3907 -0.3069
  718POPI   C3A 9709  16.307  12.892   6.842 -0.1975  0.1458  0.1707
  718POPI   C4A 9710  16.331  12.592   7.236 -0.2528 -0.0773  0.0152
  718POPI   C1B 9711  16.932  12.076   6.658 -0.2703  0.1566  0.0158
  718POPI   C2B 9712  17.130  12.136   6.987 -0.1252  0.0175 -0.1016
  718POPI   C3B 9713  17.404  12.373   7.121  0.2550 -0.1541 -0.4034
  718POPI   C4B 9714  17.632  12.550   7.491 -0.2653 -0.3214 -0.3179
  719POPI    C1 9715  14.355   3.007   5.673  0.1833 -0.0932 -0.1651
  719POPI    C2 9716  14.466   2.655   5.827  0.0688 -0.0555  0.0064
  719POPI    C3 9717  14.290   2.670   5.468 -0.0208 -0.1832  0.0446
  719POPI   PO4 9718  14.246   3.112   5.836 -0.0348 -0.3564 -0.0783
  719POPI   GL1 9719  14.378   3.113   6.234  0.1775  0.0178 -0.1072
  719POPI   GL2 9720  14.036   2.989   6.337  0.1714 -0.0291 -0.2091
  719POPI   C1A 9721  14.168   3.432   6.476  0.1495  0.1993  0.4268
  719POPI   D2A 9722  14.217   3.505   6.951 -0.1013  0.2588  0.1429
  719POPI   C3A 9723  13.953   3.267   7.174 -0.1740 -0.0017 -0.0450
  719POPI   C4A 9724  13.710   3.398   7.599  0.1861 -0.0759  0.1026
  719POPI   C1B 9725  14.094   2.995   6.711 -0.0215 -0.1863 -0.1955
  719POPI   C2B 9726  14.222   2.807   7.170 -0.0950  0.3154 -0.0330
  719POPI   C3B 9727  14.391   3.019   7.598  0.4614  0.3691  0.1339
  719POPI   C4B 9728  14.107   3.298   7.860 -0.1109 -0.1980 -0.0968
  720POPI    C1 9729  11.376   6.030   5.925  0.0376  0.0185 -0.0477
  720POPI    C2 9730  11.129   6.342   5.882 -0.0102 -0.0134 -0.0060
  720POPI    C3 9731  11.441   6.299   5.636 -0.0370  0.0357 -0.0489
  720POPI   PO4 9732  11.352   6.030   6.235  0.1238 -0.0390 -0.1122
  720POPI   GL1 9733  11.268   5.671   6.530  0.0660 -0.0363 -0.2308
  720POPI   GL2 9734  11.683   5.626   6.497 -0.1885  0.0032  0.3537
  720POPI   C1A 9735  11.198   5.529   6.938  0.1488 -0.0461 -0.0834
  720POPI   D2A 9736  10.904   5.308   7.172  0.2962 -0.0963  0.0729
  720POPI   C3A 9737  11.049   5.316   7.548 -0.1940  0.2005 -0.0406
  720POPI   C4A 9738  10.986   5.210   7.918 -0.0200  0.1101 -0.1166
  720POPI   C1B 9739  11.654   5.474   6.897  0.1815 -0.3721  0.0546
  720POPI   C2B 9740  11.515   5.333   7.252 -0.3124 -0.0404 -0.2126
  720POPI   C3B 9741  11.786   5.483   7.548 -0.1174 -0.0100 -0.2348
  720POPI   C4B 9742  11.761   5.817   7.871  0.1978 -0.3065 -0.0792
  721POPI    C1 9743   8.797   8.540   5.169 -0.0233  0.0141  0.1467
  721POPI    C2 9744   9.020   8.805   4.967 -0.1448  0.1503  0.1896
  721POPI    C3 9745   8.686   8.658   4.803 -0.0548 -0.0109  0.1480
  721POPI   PO4 9746   8.963   8.422   5.371 -0.2067  0.1264 -0.1024
  721POPI   GL1 9747   9.039   8.604   5.864  0.2245 -0.1498  0.3527
  721POPI   GL2 9748   8.726   8.704   5.757 -0.1641  0.1916  0.0438
  721POPI   C1A 9749   9.314   8.386   6.221 -0.0649  0.1795  0.1291
  721POPI   D2A 9750   9.633   8.012   6.435 -0.0568 -0.2026 -0.0051
  721POPI   C3A 9751   9.824   7.955   6.893 -0.0387 -0.1230 -0.0036
  721POPI   C4A 9752   9.613   7.793   7.426  0.2181  0.1205  0.2797
  721POPI   C1B 9753   8.618   8.420   6.077  0.1293 -0.1282 -0.1253
  721POPI   C2B 9754   8.652   8.075   6.277 -0.0204  0.2346  0.2084
  721POPI   C3B 9755   9.046   7.910   6.526  0.1274  0.1821  0.0447
  721POPI   C4B 9756   9.263   7.746   6.814  0.0612  0.1599  0.0896
  722POPI    C1 9757  16.492   9.514   5.449  0.1117 -0.0615 -0.0189
  722POPI    C2 9758  16.315   9.384   5.114 -0.1311  0.1131  0.0394
  722POPI    C3 9759  16.318   9.775   5.200  0.1820  0.0997  0.0994
  722POPI   PO4 9760  16.312   9.371   5.728  0.0818  0.1451 -0.2229
  722POPI   GL1 9761  16.277   9.461   6.241 -0.1927 -0.4259  0.2768
  722POPI   GL2 9762  16.464   9.804   6.284 -0.0579  0.1056 -0.0194
  722POPI   C1A 9763  16.336   9.387   6.636 -0.1850  0.2957 -0.3026
  722POPI   D2A 9764  16.465   9.352   7.096 -0.3439 -0.1633  0.2279
  722POPI   C3A 9765  16.539   8.995   7.381 -0.0269 -0.2453 -0.0497
  722POPI   C4A 9766  16.402   8.617   7.501  0.0693  0.0626  0.1772
  722POPI   C1B 9767  16.572   9.962   6.686 -0.0218  0.1269  0.1983
  722POPI   C2B 9768  16.756   9.730   6.951 -0.0631  0.1164 -0.0886
  722POPI   C3B 9769  16.892   9.412   7.327  0.0211  0.1540  0.2544
  722POPI   C4B 9770  16.872   9.109   7.719 -0.1089 -0.5448  0.2625
  723POPI    C1 9771  11.005  18.031   5.835 -0.1205  0.0241 -0.0443
  723POPI    C2 9772  11.157  18.120   5.476 -0.0421 -0.1255 -0.0488
  723POPI    C3 9773  11.374  18.181   5.806 -0.1837  0.1885 -0.0102
  723POPI   PO4 9774  10.753  18.202   5.904 -0.0061  0.1818 -0.0083
  723POPI   GL1 9775  10.439  18.163   6.334  0.0419 -0.0215  0.2357
  723POPI   GL2 9776  10.812  18.318   6.415  0.1017 -0.1493 -0.0951
  723POPI   C1A 9777  10.272  18.545   6.631 -0.1449 -0.1632  0.1953
  723POPI   D2A 9778  10.305  18.720   7.031  0.1498 -0.0469 -0.3608
  723POPI   C3A 9779  10.017  18.975   7.117 -0.1233 -0.1761 -0.3889
  723POPI   C4A 9780   9.965  19.168   7.483 -0.3830  0.2895 -0.2473
  723POPI   C1B 9781  10.627  18.206   6.819 -0.0783  0.0904 -0.1392
  723POPI   C2B 9782  10.562  18.291   7.268 -0.2587  0.1798 -0.2604
  723POPI   C3B 9783  10.568  18.529   7.533 -0.2306 -0.0566 -0.1247
  723POPI   C4B 9784  10.709  18.363   7.906  0.2602  0.2985  0.2542
  724POPI    C1 9785   5.652   5.888   5.238  0.0150  0.0955  0.0201
  724POPI    C2 9786   5.720   6.218   5.022  0.1262 -0.1568 -0.3410
  724POPI    C3 9787   6.012   6.062   5.246  0.0903 -0.0441 -0.2143
  724POPI   PO4 9788   5.340   6.003   5.262  0.2243  0.1729 -0.1622
  724POPI   GL1 9789   5.128   6.048   5.672 -0.1434  0.1691 -0.1009
  724POPI   GL2 9790   5.427   5.881   5.776 -0.0702 -0.0709 -0.1514
  724POPI   C1A 9791   5.107   6.489   5.792 -0.0548 -0.1658  0.1605
  724POPI   D2A 9792   4.749   6.740   5.913  0.1276 -0.1123  0.0750
  724POPI   C3A 9793   4.402   6.659   6.082 -0.3974  0.5450 -0.2255
  724POPI   C4A 9794   4.290   6.636   6.506  0.1127 -0.1986 -0.2524
  724POPI   C1B 9795   5.338   6.068   6.140 -0.3071 -0.0349  0.0440
  724POPI   C2B 9796   5.336   6.486   6.236 -0.2991 -0.0285 -0.1027
  724POPI   C3B 9797   5.201   6.795   6.572  0.0377 -0.0874 -0.1516
  724POPI   C4B 9798   5.202   7.061   6.870 -0.3196 -0.0730  0.0361
  725POPI    C1 9799  12.805  14.622   5.666 -0.1918 -0.0090  0.2365
  725POPI    C2 9800  12.581  14.338   5.495  0.1670 -0.1591  0.0044
  725POPI    C3 9801  12.948  14.250   5.627  0.1865  0.1409  0.1566
  725POPI   PO4 9802  12.605  14.750   5.823 -0.0788  0.2162 -0.0267
  725POPI   GL1 9803  12.619  14.827   6.230  0.1161 -0.0979  0.0164
  725POPI   GL2 9804  12.992  14.707   6.229 -0.0406  0.2474  0.0746
  725POPI   C1A 9805  12.552  14.917   6.638  0.1462  0.1120 -0.1136
  725POPI   D2A 9806  12.575  15.212   6.906  0.2963 -0.0118  0.0101
  725POPI   C3A 9807  12.365  15.181   7.287 -0.1302  0.1616  0.1910
  725POPI   C4A 9808  12.463  14.964   7.589 -0.0170 -0.0450 -0.3032
  725POPI   C1B 9809  13.034  14.897   6.630 -0.3278 -0.2342 -0.0068
  725POPI   C2B 9810  13.421  14.903   6.846 -0.0028 -0.3707  0.2593
  725POPI   C3B 9811  13.490  14.714   7.122  0.0888 -0.0427 -0.1156
  725POPI   C4B 9812  13.416  14.853   7.608  0.2701  0.1606 -0.0155
  726POPI    C1 9813   1.011   1.099   5.873 -0.2175 -0.0573 -0.0288
  726POPI    C2 9814   0.894   1.405   5.644 -0.1246  0.1052  0.1379
  726POPI    C3 9815   1.258   1.407   5.810 -0.1575 -0.0533  0.2138
  726POPI   PO4 9816   0.907   1.089   6.030  0.1743  0.2453  0.1801
  726POPI   GL1 9817   0.855   1.177   6.417 -0.0378 -0.1488 -0.1279
  726POPI   GL2 9818   1.222   1.220   6.350 -0.0432  0.1248  0.0059
  726POPI   C1A 9819   0.962   1.218   6.833  0.0026  0.0582 -0.0031
  726POPI   D2A 9820   1.000   1.151   7.264 -0.5152 -0.1671 -0.0067
  726POPI   C3A 9821   1.064   1.429   7.509 -0.0083 -0.1051 -0.1716
  726POPI   C4A 9822   0.833   1.525   7.929 -0.0214 -0.3496 -0.4492
  726POPI   C1B 9823   1.472   1.148   6.776 -0.2280  0.1368 -0.1433
  726POPI   C2B 9824   1.498   1.216   7.189 -0.0446  0.0098  0.0465
  726POPI   C3B 9825   1.448   0.995   7.523  0.0304  0.0779  0.1357
  726POPI   C4B 9826   1.605   0.876   7.917 -0.2576 -0.0799 -0.2341
  727POPI    C1 9827  15.169   5.447   5.537  0.0136 -0.2900  0.1596
  727POPI    C2 9828  14.921   5.420   5.224 -0.2362 -0.2372  0.3503
  727POPI    C3 9829  15.092   5.770   5.315  0.4346 -0.4080 -0.1726
  727POPI   PO4 9830  14.999   5.405   5.744 -0.2991  0.1604  0.0638
  727POPI   GL1 9831  15.106   5.434   6.119  0.2441  0.2489  0.0444
  727POPI   GL2 9832  15.361   5.629   5.958 -0.1299  0.2406 -0.0704
  727POPI   C1A 9833  14.936   5.736   6.413 -0.0736  0.1248 -0.0771
  727POPI   D2A 9834  14.773   5.650   6.833 -0.1551 -0.1431  0.3535
  727POPI   C3A 9835  14.620   5.183   6.929 -0.0236 -0.0384  0.0762
  727POPI   C4A 9836  14.515   4.780   6.799 -0.1438  0.3953 -0.1968
  727POPI   C1B 9837  15.525   5.574   6.366  0.0278  0.2565  0.3288
  727POPI   C2B 9838  15.649   5.547   6.773  0.1434  0.1988 -0.2392
  727POPI   C3B 9839  15.637   5.130   6.823  0.0193 -0.1186  0.3872
  727POPI   C4B 9840  15.959   4.886   7.002  0.0123 -0.0623 -0.5477
  728POPI    C1 9841   9.142  17.764   5.588  0.1347  0.0225  0.0516
  728POPI    C2 9842   9.333  17.504   5.352  0.0410 -0.0994  0.1086
  728POPI    C3 9843   8.936  17.548   5.322  0.1108  0.3852 -0.2326
  728POPI   PO4 9844   9.256  17.623   5.816  0.0527 -0.0591 -0.3030
  728POPI   GL1 9845   9.369  17.575   6.113  0.0835  0.1169  0.1283
  728POPI   GL2 9846   9.567  17.840   6.228  0.0511 -0.0902  0.2328
  728POPI   C1A 9847   9.511  17.398   6.474  0.0517  0.2812 -0.2399
  728POPI   D2A 9848   9.837  17.167   6.722 -0.0295  0.3365  0.3554
  728POPI   C3A 9849  10.153  17.110   6.641  0.1398 -0.0385 -0.0850
  728POPI   C4A 9850  10.602  17.269   6.633  0.0521  0.1274 -0.2428
  728POPI   C1B 9851   9.610  17.869   6.629  0.0535 -0.0600  0.2798
  728POPI   C2B 9852   9.540  17.621   6.914 -0.0171 -0.2286 -0.0662
  728POPI   C3B 9853   9.712  17.623   7.426  0.0048  0.0321  0.0636
  728POPI   C4B 9854   9.690  17.474   7.959 -0.0921  0.0317  0.1041
  729POPI    C1 9855   1.330   2.397   5.675  0.0747 -0.1113 -0.0799
  729POPI    C2 9856   1.098   2.475   5.358 -0.1045 -0.1149  0.0488
  729POPI    C3 9857   1.108   2.106   5.513 -0.0083 -0.1160  0.0409
  729POPI   PO4 9858   1.532   2.513   5.698  0.1367  0.0491  0.0682
  729POPI   GL1 9859   1.985   2.524   5.951 -0.1628 -0.0677  0.2249
  729POPI   GL2 9860   1.621   2.347   6.163  0.0465 -0.5351  0.0614
  729POPI   C1A 9861   2.115   2.363   6.328  0.1451  0.1180  0.1357
  729POPI   D2A 9862   2.258   2.566   6.750 -0.0657  0.2372 -0.0820
  729POPI   C3A 9863   2.053   2.483   7.171  0.0585 -0.0395 -0.3124
  729POPI   C4A 9864   2.076   2.604   7.682 -0.1143  0.3335  0.3595
  729POPI   C1B 9865   1.684   2.524   6.542 -0.2106  0.0704 -0.0326
  729POPI   C2B 9866   1.739   2.766   6.943 -0.1769  0.1643  0.0925
  729POPI   C3B 9867   1.640   2.805   7.348 -0.0437  0.1097  0.2521
  729POPI   C4B 9868   1.773   3.049   7.707  0.0187 -0.1770  0.2931
  730POPI    C1 9869  17.990   4.453   5.541 -0.2451  0.0909  0.0453
  730POPI    C2 9870  18.135   4.098   5.425 -0.3522 -0.0210  0.2481
  730POPI    C3 9871  17.844   4.274   5.214 -0.2874 -0.0451  0.1377
  730POPI   PO4 9872  17.984   4.397   5.806  0.2581  0.0727  0.3211
  730POPI   GL1 9873  18.304   4.489   6.083 -0.0630  0.1090  0.0144
  730POPI   GL2 9874  18.352   4.135   6.102 -0.3537 -0.1197 -0.0840
  730POPI   C1A 9875  18.236   4.652   6.534  0.0674 -0.0513  0.0733
  730POPI   D2A 9876  18.270   4.959   6.699  0.3239 -0.2652  0.0669
  730POPI   C3A 9877  18.193   5.093   7.150 -0.3401 -0.2390 -0.2904
  730POPI   C4A 9878  18.168   4.789   7.470  0.0404 -0.2393  0.0330
  730POPI   C1B 9879  18.274   4.152   6.543 -0.2133 -0.1049 -0.0789
  730POPI   C2B 9880  18.070   4.277   6.834 -0.2615 -0.2955  0.1807
  730POPI   C3B 9881  17.949   4.666   6.967  0.1057  0.3274 -0.2576
  730POPI   C4B 9882  17.720   4.977   7.253 -0.1724  0.1034  0.0750
  731POPI    C1 9883  17.258   3.253   5.697  0.0459  0.2650  0.1874
  731POPI    C2 9884  17.317   2.984   5.406 -0.1534  0.0387  0.3516
  731POPI    C3 9885  17.408   3.369   5.345 -0.0108 -0.0386  0.0595
  731POPI   PO4 9886  17.277   3.040   5.944 -0.3560  0.5658 -0.0767
  731POPI   GL1 9887  17.331   3.236   6.356 -0.0413  0.1574  0.0855
  731POPI   GL2 9888  17.689   3.134   6.297  0.0346  0.3686  0.2224
  731POPI   C1A 9889  17.172   3.355   6.659 -0.1521 -0.0452 -0.0243
  731POPI   D2A 9890  17.312   3.463   7.141 -0.0478 -0.4915 -0.1740
  731POPI   C3A 9891  17.246   3.339   7.560 -0.0001  0.0410  0.0200
  731POPI   C4A 9892  17.196   3.257   8.024  0.0901 -0.1175  0.2408
  731POPI   C1B 9893  17.696   3.246   6.735  0.1353 -0.1587 -0.1468
  731POPI   C2B 9894  17.779   3.451   7.188 -0.3937 -0.2269  0.0630
  731POPI   C3B 9895  17.736   3.481   7.577  0.0472 -0.0268 -0.0552
  731POPI   C4B 9896  18.022   3.612   7.896  0.0487  0.1977  0.0535
  732POPI    C1 9897  13.370   4.188   5.471 -0.0969 -0.1705 -0.0872
  732POPI    C2 9898  13.201   4.519   5.323 -0.1951 -0.0892  0.2011
  732POPI    C3 9899  13.289   4.214   5.080 -0.0249  0.1796 -0.0821
  732POPI   PO4 9900  13.332   4.271   5.779 -0.0926  0.3652  0.1035
  732POPI   GL1 9901  13.109   4.380   6.188 -0.3150  0.2591  0.0420
  732POPI   GL2 9902  13.443   4.585   6.177  0.0038  0.0134  0.0164
  732POPI   C1A 9903  13.025   4.238   6.614 -0.1147  0.0853  0.3691
  732POPI   D2A 9904  12.960   4.177   7.026  0.0985 -0.1405  0.0527
  732POPI   C3A 9905  13.180   4.442   7.446  0.3116  0.1064  0.2291
  732POPI   C4A 9906  13.249   4.327   7.877 -0.1486  0.2544  0.0180
  732POPI   C1B 9907  13.495   4.605   6.542 -0.1853  0.1874 -0.2481
  732POPI   C2B 9908  13.164   4.623   6.832  0.0801 -0.1382  0.2033
  732POPI   C3B 9909  13.033   4.773   7.111  0.2430  0.1155 -0.1386
  732POPI   C4B 9910  12.806   4.989   7.353  0.0946 -0.1990 -0.0260
  733POPI    C1 9911   5.760  11.250   5.873 -0.1841  0.0606  0.1545
  733POPI    C2 9912   5.442  11.018   5.949 -0.1085 -0.0747  0.0613
  733POPI    C3 9913   5.526  11.128   5.573 -0.1619  0.1314  0.1083
  733POPI   PO4 9914   6.013  11.162   5.948 -0.1318  0.0709 -0.6006
  733POPI   GL1 9915   6.178  11.026   6.273  0.0461  0.1241  0.0971
  733POPI   GL2 9916   6.480  11.191   6.100  0.1857 -0.2325 -0.0081
  733POPI   C1A 9917   6.173  11.294   6.571  0.2658  0.0390 -0.2413
  733POPI   D2A 9918   6.425  11.413   6.925 -0.3211 -0.0334  0.0743
  733POPI   C3A 9919   6.147  11.515   7.278 -0.1822  0.2907 -0.0803
  733POPI   C4A 9920   6.069  11.698   7.660 -0.0440 -0.2145  0.1869
  733POPI   C1B 9921   6.645  11.049   6.517  0.0441 -0.0427 -0.0587
  733POPI   C2B 9922   6.840  11.114   6.970 -0.0442 -0.1516  0.0978
  733POPI   C3B 9923   7.205  11.017   7.355 -0.1737 -0.0087 -0.0372
  733POPI   C4B 9924   7.170  11.128   7.809  0.1430  0.2498  0.0045
  734POPI    C1 9925  13.639  15.254   5.457  0.0075  0.1917 -0.2311
  734POPI    C2 9926  13.952  15.014   5.526 -0.2340 -0.0522  0.0412
  734POPI    C3 9927  13.754  14.990   5.179  0.0556  0.1154 -0.1394
  734POPI   PO4 9928  13.636  15.332   5.773  0.2406  0.3453  0.0854
  734POPI   GL1 9929  13.805  15.128   6.063 -0.2142 -0.2331 -0.0619
  734POPI   GL2 9930  14.172  15.358   6.183 -0.0788  0.1952 -0.3587
  734POPI   C1A 9931  13.884  15.063   6.568 -0.0523  0.1190  0.0857
  734POPI   D2A 9932  13.816  15.143   7.025 -0.0386  0.0578 -0.1917
  734POPI   C3A 9933  13.494  15.265   7.340  0.1450 -0.0022  0.0143
  734POPI   C4A 9934  13.446  15.368   7.711 -0.2742  0.1631 -0.5575
  734POPI   C1B 9935  14.204  15.400   6.679 -0.0447  0.1572  0.2346
  734POPI   C2B 9936  14.214  15.447   7.250 -0.0107  0.3390 -0.0032
  734POPI   C3B 9937  14.227  15.626   7.676 -0.0568  0.1076 -0.2973
  734POPI   C4B 9938  13.953  15.782   7.903  0.3020  0.6017  0.2713
  735POPI    C1 9939   4.665   0.578   6.133  0.0286 -0.0104 -0.2776
  735POPI    C2 9940   4.475   0.756   5.830 -0.0902  0.3718  0.0142
  735POPI    C3 9941   4.293   0.715   6.185  0.2010  0.3170  0.1602
  735POPI   PO4 9942   4.918   0.785   6.167  0.1880  0.4319 -0.1943
  735POPI   GL1 9943   5.108   0.961   6.425  0.1976  0.2471 -0.2300
  735POPI   GL2 9944   5.380   1.230   6.560 -0.1913 -0.1374  0.6574
  735POPI   C1A 9945   5.174   0.874   6.836  0.1766  0.1140 -0.1707
  735POPI   D2A 9946   5.216   0.808   7.253 -0.0010  0.1995  0.1128
  735POPI   C3A 9947   5.479   0.660   7.611 -0.1066 -0.1355 -0.0669
  735POPI   C4A 9948   5.453   0.727   8.051 -0.4755  0.1852 -0.0705
  735POPI   C1B 9949   5.623   1.120   6.937 -0.0162  0.0554  0.3263
  735POPI   C2B 9950   5.500   1.161   7.334  0.3101  0.0155  0.2238
  735POPI   C3B 9951   5.684   1.113   7.783 -0.1576  0.1297  0.1937
  735POPI   C4B 9952   6.004   0.821   8.109 -0.2121 -0.0073 -0.3794
  736POPI    C1 9953  16.449  14.038   5.280 -0.1988  0.1152  0.1606
  736POPI    C2 9954  16.129  13.829   5.164 -0.2772  0.2712  0.0936
  736POPI    C3 9955  16.268  14.126   4.935  0.2080 -0.1060 -0.1177
  736POPI   PO4 9956  16.426  13.997   5.521 -0.0101 -0.0337 -0.0683
  736POPI   GL1 9957  16.521  13.864   5.973  0.0950  0.1748 -0.1451
  736POPI   GL2 9958  16.746  13.863   6.058  0.1684  0.1003 -0.0988
  736POPI   C1A 9959  16.266  13.925   6.393  0.2413  0.4156  0.1914
  736POPI   D2A 9960  16.144  13.665   6.745 -0.3056 -0.2019 -0.0479
  736POPI   C3A 9961  16.265  13.908   7.181  0.0857  0.2271  0.0635
  736POPI   C4A 9962  16.311  14.025   7.533  0.0000 -0.2206 -0.2347
  736POPI   C1B 9963  16.668  13.669   6.394  0.1182  0.1721  0.0218
  736POPI   C2B 9964  16.603  13.681   6.877  0.0518 -0.2066  0.1362
  736POPI   C3B 9965  16.329  13.422   7.172 -0.3627 -0.2067  0.1046
  736POPI   C4B 9966  16.161  13.303   7.576  0.0323 -0.1287 -0.1407
  737POPI    C1 9967   9.720   5.934   5.658  0.0494  0.2625  0.2395
  737POPI    C2 9968   9.462   6.231   5.586 -0.2949 -0.0807  0.0188
  737POPI    C3 9969   9.657   6.058   5.283  0.0724  0.0622  0.1683
  737POPI   PO4 9970   9.573   5.789   5.819  0.2568  0.1963 -0.4228
  737POPI   GL1 9971   9.627   6.066   6.234  0.0517  0.2545 -0.0402
  737POPI   GL2 9972   9.897   6.097   6.400 -0.1690  0.1533 -0.1578
  737POPI   C1A 9973   9.253   6.070   6.502 -0.0955  0.2608  0.3097
  737POPI   D2A 9974   9.255   5.964   6.940 -0.2337  0.3332 -0.1794
  737POPI   C3A 9975   9.366   6.121   7.371  0.2548  0.0876 -0.2901
  737POPI   C4A 9976   9.410   6.456   7.735 -0.0077  0.1850  0.2789
  737POPI   C1B 9977   9.767   6.270   6.772 -0.1366 -0.0540  0.1114
  737POPI   C2B 9978   9.770   6.390   7.147 -0.0419 -0.0289 -0.3232
  737POPI   C3B 9979   9.824   6.187   7.506 -0.2001 -0.0635 -0.0820
  737POPI   C4B 9980   9.831   5.769   7.651  0.1609 -0.1003 -0.0353
  738POPI    C1 9981   1.007  17.885   5.625 -0.1720  0.0977  0.0171
  738POPI    C2 9982   1.075  18.256   5.490 -0.1435  0.0552 -0.0866
  738POPI    C3 9983   0.916  17.980   5.247  0.1837 -0.1052 -0.1245
  738POPI   PO4 9984   0.949  17.850   5.861 -0.3310 -0.2475  0.2361
  738POPI   GL1 9985   1.140  18.084   6.215  0.3310 -0.0292  0.2453
  738POPI   GL2 9986   1.388  18.075   6.289  0.0670 -0.1560  0.1716
  738POPI   C1A 9987   1.108  18.006   6.678 -0.2528  0.0531 -0.1958
  738POPI   D2A 9988   1.245  18.293   6.978 -0.0535  0.1608  0.0104
  738POPI   C3A 9989   1.168  18.602   7.197  0.1339 -0.2179  0.1168
  738POPI   C4A 9990   0.971  18.586   7.500 -0.3356 -0.0685 -0.2097
  738POPI   C1B 9991   1.507  17.676   6.549 -0.0520  0.1230  0.1792
  738POPI   C2B 9992   1.618  17.352   6.924 -0.1019  0.1554 -0.2220
  738POPI   C3B 9993   1.768  17.031   7.161 -0.0305 -0.2112  0.2144
  738POPI   C4B 9994   2.070  16.855   7.582 -0.0174  0.0054 -0.2536
  739POPI    C1 9995   4.768   1.695   5.893 -0.0361  0.1038 -0.0391
  739POPI    C2 9996   4.640   1.723   5.515 -0.0464 -0.1514 -0.0563
  739POPI    C3 9997   4.420   1.528   5.787 -0.1055  0.1484  0.1154
  739POPI   PO4 9998   4.982   1.645   5.905 -0.0347 -0.0939 -0.0798
  739POPI   GL1 9999   5.232   1.959   6.060 -0.1635  0.2423 -0.0026
  739POPI   GL210000   5.353   1.661   6.265 -0.1565  0.0346 -0.1064
  739POPI   C1A10001   4.957   2.008   6.463 -0.0860 -0.0998  0.0185
  739POPI   D2A10002   4.602   1.967   6.760 -0.0915 -0.0998 -0.0699
  739POPI   C3A10003   4.781   1.804   7.148  0.2458  0.0908  0.0124
  739POPI   C4A10004   5.006   2.102   7.477  0.7188 -0.1784  0.3580
  739POPI   C1B10005   5.231   1.723   6.750 -0.0159  0.1774 -0.1921
  739POPI   C2B10006   5.143   2.122   6.984 -0.0670  0.0966  0.1019
  739POPI   C3B10007   4.682   2.312   7.131  0.2067 -0.1453  0.0762
  739POPI   C4B10008   4.393   2.112   7.359  0.2294 -0.1472 -0.3682
  740POPI    C110009  14.133   9.957   5.636 -0.1669 -0.1431 -0.0757
  740POPI    C210010  14.133  10.265   5.382  0.0747  0.0198  0.1175
  740POPI    C310011  14.169   9.892   5.242  0.0897  0.0991 -0.0952
  740POPI   PO410012  14.258  10.107   5.906 -0.2240  0.0344  0.1783
  740POPI   GL110013  14.408  10.084   6.363  0.0448  0.2627 -0.0927
  740POPI   GL210014  14.257   9.808   6.605 -0.0387 -0.0870  0.1412
  740POPI   C1A10015  14.640  10.173   6.780  0.0332 -0.0797  0.0100
  740POPI   D2A10016  14.757  10.130   7.243  0.0981 -0.2463 -0.1063
  740POPI   C3A10017  14.721   9.932   7.680 -0.1174  0.0250 -0.1602
  740POPI   C4A10018  15.072   9.901   8.004  0.1098 -0.1864  0.3169
  740POPI   C1B10019  14.488   9.701   6.993 -0.0414 -0.1036  0.0113
  740POPI   C2B10020  14.320   9.740   7.379  0.1339 -0.2126 -0.0350
  740POPI   C3B10021  14.301   9.698   7.788  0.4146 -0.2863 -0.1562
  740POPI   C4B10022  14.185   9.524   8.179  0.1760 -0.1396  0.0892
  741POPI    C110023  16.557   2.141   6.133  0.0843 -0.0247 -0.0821
  741POPI    C210024  16.327   1.847   6.276 -0.0445  0.0694 -0.0944
  741POPI    C310025  16.269   2.223   6.398  0.2775  0.0579  0.1049
  741POPI   PO410026  16.837   2.069   6.164  0.1411  0.3182  0.1474
  741POPI   GL110027  17.198   1.974   6.583 -0.0228  0.3393 -0.2651
  741POPI   GL210028  17.076   1.586   6.742  0.4204 -0.1492  0.0465
  741POPI   C1A10029  17.060   2.029   7.069 -0.3887  0.0646  0.1352
  741POPI   D2A10030  17.027   2.346   7.409  0.2897  0.1657 -0.2642
  741POPI   C3A10031  16.984   2.334   7.862  0.0513  0.1033 -0.2037
  741POPI   C4A10032  17.148   2.347   8.292 -0.0637  0.2888  0.1922
  741POPI   C1B10033  17.373   1.472   7.061 -0.1786 -0.1386 -0.0957
  741POPI   C2B10034  17.242   1.386   7.423 -0.0483 -0.1084  0.0542
  741POPI   C3B10035  17.339   1.440   7.844 -0.0389  0.0558 -0.0491
  741POPI   C4B10036  17.049   1.410   8.235  0.2258 -0.2205  0.2448
  742POPS   CNO10037   7.846  13.644   5.424  0.0753  0.2797 -0.2393
  742POPS   PO410038   7.603  13.338   5.246 -0.0865  0.3108 -0.0643
  742POPS   GL110039   7.639  13.306   5.771  0.2200  0.1285 -0.0208
  742POPS   GL210040   7.675  12.967   5.853 -0.0049  0.0563  0.4664
  742POPS   C1A10041   7.682  13.421   6.189  0.0399  0.1714 -0.3984
  742POPS   D2A10042   7.709  13.265   6.608  0.3361 -0.2070  0.0930
  742POPS   C3A10043   7.452  13.207   7.044 -0.0136  0.0126  0.3880
  742POPS   C4A10044   7.410  13.615   7.283 -0.2216  0.0209  0.3666
  742POPS   C1B10045   7.648  12.944   6.220 -0.1684 -0.0648 -0.0002
  742POPS   C2B10046   7.653  12.756   6.606 -0.2281 -0.1334 -0.2751
  742POPS   C3B10047   7.816  12.870   6.970 -0.0254  0.0938 -0.0019
  742POPS   C4B10048   7.677  12.947   7.407  0.0668 -0.1271 -0.0294
  743POPS   CNO10049   4.161  17.330   5.766 -0.3702  0.1407  0.0556
  743POPS   PO410050   4.594  17.268   5.856 -0.0087  0.0030 -0.0497
  743POPS   GL110051   4.763  17.256   6.310 -0.0986 -0.0988 -0.2528
  743POPS   GL210052   4.559  16.876   6.445  0.3355  0.0075  0.0628
  743POPS   C1A10053   4.818  17.189   6.825  0.1385  0.2619 -0.1742
  743POPS   D2A10054   4.902  17.114   7.232  0.0052 -0.1812 -0.1464
  743POPS   C3A10055   5.349  16.847   7.337  0.0050 -0.1490 -0.0937
  743POPS   C4A10056   5.809  16.961   7.303  0.2218  0.0362  0.0417
  743POPS   C1B10057   4.488  16.726   6.872 -0.2595 -0.2442  0.1814
  743POPS   C2B10058   4.497  16.858   7.338  0.0183 -0.5167 -0.0999
  743POPS   C3B10059   4.649  17.014   7.761 -0.0427 -0.1508  0.2376
  743POPS   C4B10060   4.506  17.272   8.184  0.1641 -0.1109  0.1878
  744POPS   CNO10061   2.992  13.859   5.800 -0.4320  0.2099  0.0675
  744POPS   PO410062   2.563  14.090   5.771  0.3636 -0.0199 -0.3860
  744POPS   GL110063   2.653  14.006   6.178  0.0215  0.0361 -0.3367
  744POPS   GL210064   2.936  13.723   6.288  0.1428 -0.0238 -0.1593
  744POPS   C1A10065   2.571  13.903   6.596 -0.1157  0.4351 -0.0019
  744POPS   D2A10066   2.107  13.703   6.746  0.0168  0.0188 -0.2405
  744POPS   C3A10067   2.132  13.379   6.899 -0.1691  0.0666  0.1321
  744POPS   C4A10068   2.124  13.123   7.289  0.0274 -0.1117 -0.1008
  744POPS   C1B10069   2.975  13.560   6.701  0.4407 -0.0541 -0.2472
  744POPS   C2B10070   3.170  13.264   6.873 -0.2787 -0.2206  0.0768
  744POPS   C3B10071   3.337  13.317   7.221 -0.1073 -0.1419 -0.2068
  744POPS   C4B10072   3.271  13.382   7.666  0.0468  0.0898 -0.3602
  745POPS   CNO10073  13.722  17.535   5.991  0.1152  0.2566  0.1639
  745POPS   PO410074  13.943  17.925   6.060 -0.0946  0.0936 -0.2975
  745POPS   GL110075  13.872  17.833   6.539 -0.0867  0.1531 -0.1042
  745POPS   GL210076  13.845  17.434   6.521  0.4458 -0.0459  0.0016
  745POPS   C1A10077  13.872  17.779   6.891 -0.0550 -0.2549  0.0026
  745POPS   D2A10078  13.737  17.953   7.298 -0.1980  0.4802 -0.1480
  745POPS   C3A10079  13.724  17.726   7.785 -0.0169  0.1624  0.1826
  745POPS   C4A10080  13.482  17.435   8.040  0.0983 -0.1979 -0.4100
  745POPS   C1B10081  13.917  17.246   6.903  0.2802  0.2523  0.0212
  745POPS   C2B10082  13.820  17.326   7.395 -0.0922 -0.0288  0.0364
  745POPS   C3B10083  13.994  17.299   7.698 -0.1085  0.0128 -0.1943
  745POPS   C4B10084  14.357  17.459   7.946 -0.0872 -0.1406 -0.0624
  746POPS   CNO10085  14.711   9.892   5.973  0.0041 -0.2940 -0.0992
  746POPS   PO410086  14.960   9.678   6.097  0.1045  0.4363 -0.0147
  746POPS   GL110087  14.807   9.698   6.542  0.1454 -0.3785  0.0471
  746POPS   GL210088  14.593   9.363   6.561 -0.0393 -0.1488 -0.2522
  746POPS   C1A10089  14.979   9.633   6.973  0.3989  0.4009  0.0533
  746POPS   D2A10090  15.112   9.681   7.438 -0.2047 -0.0883  0.1807
  746POPS   C3A10091  15.199   9.449   7.737  0.0362 -0.0999 -0.0799
  746POPS   C4A10092  15.198   9.422   8.191 -0.2207 -0.0145  0.0100
  746POPS   C1B10093  14.703   9.237   6.989 -0.1192  0.0954  0.2891
  746POPS   C2B10094  14.616   9.383   7.472 -0.0526 -0.3204  0.0155
  746POPS   C3B10095  14.749   9.200   7.813 -0.0700 -0.1077  0.0207
  746POPS   C4B10096  14.661   9.412   8.199 -0.1745  0.2370 -0.0058
  747POPS   CNO10097  13.272   2.175   5.801  0.0109  0.2863  0.1232
  747POPS   PO410098  13.185   1.756   6.076 -0.2151  0.0564 -0.2041
  747POPS   GL110099  13.319   1.738   6.516  0.0093  0.0679 -0.1301
  747POPS   GL210100  13.602   1.651   6.555  0.0556  0.3205 -0.1760
  747POPS   C1A10101  13.389   1.835   6.954  0.0955  0.0061 -0.0924
  747POPS   D2A10102  13.694   1.759   7.244  0.1413  0.1366 -0.1362
  747POPS   C3A10103  13.598   2.130   7.409  0.0083 -0.0591 -0.1479
  747POPS   C4A10104  13.431   2.517   7.472 -0.2106  0.0216  0.1354
  747POPS   C1B10105  13.937   1.666   6.791 -0.2881 -0.1192 -0.1535
  747POPS   C2B10106  14.183   1.693   7.136  0.1441  0.2456  0.0733
  747POPS   C3B10107  14.263   1.918   7.497  0.0599 -0.0074  0.6067
  747POPS   C4B10108  14.011   1.966   7.847 -0.1263  0.2616  0.3689
  748POPS   CNO10109   5.258  17.889   6.128  0.2267 -0.0941 -0.0267
  748POPS   PO410110   5.007  17.592   5.940  0.2036 -0.2563 -0.2645
  748POPS   GL110111   4.788  17.743   6.280 -0.0753 -0.2266 -0.1600
  748POPS   GL210112   4.742  17.961   6.324 -0.5104 -0.0724  0.1614
  748POPS   C1A10113   4.864  17.672   6.727  0.3663  0.0192  0.2252
  748POPS   D2A10114   5.211  17.547   7.022 -0.2349  0.1143 -0.0801
  748POPS   C3A10115   5.066  17.640   7.387 -0.0717 -0.0313 -0.0835
  748POPS   C4A10116   5.153  17.733   7.751 -0.0687  0.1164 -0.1463
  748POPS   C1B10117   5.083  18.111   6.590  0.1303 -0.0903 -0.1436
  748POPS   C2B10118   5.253  18.088   7.005 -0.0795  0.1891  0.0387
  748POPS   C3B10119   5.084  18.179   7.431 -0.1582  0.2217 -0.0044
  748POPS   C4B10120   4.901  18.279   7.764 -0.2219  0.0550 -0.0014
  749POPS   CNO10121   6.994  17.088   5.474  0.1923 -0.0037  0.2780
  749POPS   PO410122   6.589  16.814   5.472 -0.0160 -0.1641 -0.0057
  749POPS   GL110123   6.699  16.919   5.864 -0.0953  0.1068  0.2365
  749POPS   GL210124   6.417  17.110   6.096  0.0167  0.1541 -0.2609
  749POPS   C1A10125   6.990  17.155   6.097  0.0110 -0.6645  0.1801
  749POPS   D2A10126   7.337  17.112   6.337 -0.0308 -0.3507  0.1308
  749POPS   C3A10127   7.417  16.650   6.484  0.2612  0.1365  0.4677
  749POPS   C4A10128   7.238  16.301   6.809  0.3057  0.3145 -0.0026
  749POPS   C1B10129   6.448  16.999   6.482  0.0551  0.0115  0.0800
  749POPS   C2B10130   6.427  16.804   6.895  0.3438  0.2569  0.2157
  749POPS   C3B10131   6.246  16.379   7.128  0.2758 -0.1286 -0.0227
  749POPS   C4B10132   6.274  16.070   7.391  0.1894  0.0575  0.3316
  750POPS   CNO10133  12.794  13.218   5.668  0.0737  0.1207  0.0078
  750POPS   PO410134  12.740  12.816   5.643 -0.3057  0.1451 -0.0968
  750POPS   GL110135  12.682  12.750   6.029 -0.1583  0.1105  0.1569
  750POPS   GL210136  12.823  12.628   6.148 -0.1277 -0.1409  0.0876
  750POPS   C1A10137  12.441  12.753   6.429  0.1549  0.1286  0.1576
  750POPS   D2A10138  12.363  12.355   6.697 -0.0555 -0.0775  0.2450
  750POPS   C3A10139  12.180  12.341   6.949 -0.1707  0.1105 -0.4027
  750POPS   C4A10140  12.026  12.254   7.361  0.1344 -0.0731  0.0787
  750POPS   C1B10141  12.939  12.626   6.490 -0.1635  0.0821  0.0267
  750POPS   C2B10142  12.836  12.639   6.786  0.2318 -0.0116  0.0353
  750POPS   C3B10143  12.717  12.663   7.216 -0.4470 -0.1412 -0.1795
  750POPS   C4B10144  12.495  12.430   7.534 -0.0448 -0.0062  0.0967
  751POPS   CNO10145   5.427  14.223   5.688 -0.2297 -0.1099 -0.0184
  751POPS   PO410146   5.739  14.361   5.940  0.1242 -0.2347  0.1852
  751POPS   GL110147   5.900  14.310   6.304  0.0471  0.1276  0.0409
  751POPS   GL210148   5.611  14.309   6.541 -0.0376  0.5319 -0.1380
  751POPS   C1A10149   6.180  14.415   6.709  0.0467  0.0542  0.3656
  751POPS   D2A10150   6.184  14.696   7.041 -0.0835 -0.2036  0.0753
  751POPS   C3A10151   6.506  14.580   7.342  0.2725  0.0914 -0.1116
  751POPS   C4A10152   6.832  14.623   7.543 -0.2197  0.0641  0.0674
  751POPS   C1B10153   5.681  14.553   6.980  0.0762  0.0851  0.0030
  751POPS   C2B10154   5.589  14.594   7.365 -0.1267  0.0799  0.0084
  751POPS   C3B10155   5.829  14.440   7.767 -0.0183 -0.1196 -0.0836
  751POPS   C4B10156   5.873  14.177   8.070 -0.0847 -0.0415 -0.6504
  752POPS   CNO10157   3.441   0.851   6.135  0.0149  0.0904 -0.1921
  752POPS   PO410158   3.628   1.191   6.104  0.1196  0.0197 -0.1410
  752POPS   GL110159   3.478   1.180   6.547 -0.3411 -0.0635 -0.1940
  752POPS   GL210160   3.350   1.528   6.565  0.0247 -0.1982 -0.1242
  752POPS   C1A10161   3.406   1.122   6.993  0.2721  0.0582  0.3263
  752POPS   D2A10162   3.356   1.278   7.352 -0.1717 -0.1498  0.1696
  752POPS   C3A10163   3.608   1.462   7.672  0.0979  0.0788 -0.0365
  752POPS   C4A10164   3.846   1.348   8.169  0.2053 -0.2241  0.1406
  752POPS   C1B10165   3.411   1.674   7.046 -0.0609 -0.2093 -0.0538
  752POPS   C2B10166   3.537   1.946   7.475 -0.0773 -0.0250  0.1142
  752POPS   C3B10167   3.664   1.950   7.906 -0.1643 -0.2763  0.0855
  752POPS   C4B10168   3.468   1.995   8.394 -0.6009 -0.2461 -0.0328
  753POPS   CNO10169   4.202  13.391   5.415 -0.2902 -0.1482  0.2775
  753POPS   PO410170   4.020  13.594   5.877  0.2174  0.0864 -0.0615
  753POPS   GL110171   3.684  13.643   6.145 -0.1620  0.0214  0.1842
  753POPS   GL210172   3.413  13.846   6.026 -0.0698 -0.0289  0.1368
  753POPS   C1A10173   3.453  13.607   6.527 -0.0257  0.0967  0.2550
  753POPS   D2A10174   3.626  13.659   6.940  0.2752 -0.0535 -0.0599
  753POPS   C3A10175   3.967  13.711   7.191  0.0495  0.1123 -0.1971
  753POPS   C4A10176   4.418  14.032   7.197  0.0791 -0.0030 -0.3364
  753POPS   C1B10177   3.672  14.062   6.463 -0.1789 -0.2777  0.0596
  753POPS   C2B10178   3.722  14.180   6.818 -0.2203 -0.0493  0.1171
  753POPS   C3B10179   3.578  14.092   7.269  0.0454 -0.2474 -0.2648
  753POPS   C4B10180   3.563  13.720   7.431  0.0893 -0.3421 -0.0112
  754POPS   CNO10181  14.073   8.304   5.952  0.1745  0.0032  0.0579
  754POPS   PO410182  13.597   8.304   5.763 -0.3977  0.1608 -0.0466
  754POPS   GL110183  13.597   8.334   6.270  0.2315  0.1109  0.1602
  754POPS   GL210184  13.834   8.084   6.406 -0.2354  0.1867 -0.0791
  754POPS   C1A10185  13.472   8.580   6.566 -0.1011 -0.1539 -0.0867
  754POPS   D2A10186  13.349   8.491   6.911  0.1264 -0.1524  0.0196
  754POPS   C3A10187  13.236   8.065   7.045 -0.0367  0.0944  0.0968
  754POPS   C4A10188  13.297   7.658   7.095  0.1583 -0.0132 -0.1912
  754POPS   C1B10189  13.776   8.266   6.752  0.0775 -0.2235 -0.0099
  754POPS   C2B10190  13.700   8.253   7.161  0.1149 -0.2500  0.0876
  754POPS   C3B10191  13.806   8.244   7.590 -0.3296  0.1948 -0.3785
  754POPS   C4B10192  13.759   8.202   8.072 -0.1402 -0.0572 -0.1447
  755POPS   CNO10193  15.074   0.096   5.903 -0.2678  0.3418  0.2036
  755POPS   PO410194  15.389  -0.037   6.141 -0.2114  0.3049 -0.2845
  755POPS   GL110195  15.499   0.058   6.564  0.4212  0.0938  0.2227
  755POPS   GL210196  15.210   0.256   6.660  0.0927  0.2328  0.0821
  755POPS   C1A10197  15.356  -0.075   6.983 -0.0216  0.2056 -0.1223
  755POPS   D2A10198  15.521   0.060   7.407  0.1180  0.1882 -0.1828
  755POPS   C3A10199  15.655  -0.150   7.698 -0.3795 -0.0334 -0.0805
  755POPS   C4A10200  15.929  -0.472   7.727  0.1409 -0.3230 -0.3677
  755POPS   C1B10201  15.196   0.325   7.148 -0.0810 -0.1662  0.1701
  755POPS   C2B10202  15.205   0.337   7.665 -0.0611 -0.0295 -0.1185
  755POPS   C3B10203  15.103   0.578   7.959  0.1598 -0.0306 -0.4047
  755POPS   C4B10204  14.960   0.532   8.318  0.0808 -0.1815  0.2261
  756POPS   CNO10205   0.037   3.396   5.271 -0.1635 -0.3271  0.2753
  756POPS   PO410206  -0.219   3.334   5.665 -0.0384  0.2249 -0.0907
  756POPS   GL110207  -0.284   3.376   6.140 -0.2211  0.1878  0.1401
  756POPS   GL210208  -0.193   3.085   6.335 -0.0116  0.1548  0.0246
  756POPS   C1A10209  -0.303   3.666   6.526 -0.3346  0.1859  0.1960
  756POPS   D2A10210  -0.169   3.803   6.964  0.3329 -0.1807  0.0190
  756POPS   C3A10211  -0.110   3.512   7.285  0.1323 -0.0733 -0.2423
  756POPS   C4A10212   0.004   3.317   7.694  0.2075 -0.3335 -0.0321
  756POPS   C1B10213  -0.066   3.233   6.697  0.0314  0.1673 -0.1766
  756POPS   C2B10214   0.169   3.190   6.965 -0.2632  0.0645  0.0852
  756POPS   C3B10215   0.262   3.107   7.261  0.1956 -0.0132 -0.0613
  756POPS   C4B10216   0.229   2.888   7.609 -0.0443  0.2425  0.1661
  757POPS   CNO10217  16.273   8.110   5.428  0.0344 -0.1821 -0.3263
  757POPS   PO410218  16.259   7.758   5.823  0.1477  0.1973 -0.1403
  757POPS   GL110219  16.521   7.990   6.057  0.4317 -0.1171  0.1244
  757POPS   GL210220  16.516   7.983   6.372  0.0000 -0.0865  0.0490
  757POPS   C1A10221  16.933   8.188   6.131  0.0598 -0.0096 -0.0322
  757POPS   D2A10222  17.307   8.444   6.143 -0.0998  0.0379 -0.2649
  757POPS   C3A10223  17.395   8.560   6.641 -0.3928 -0.0417  0.0688
  757POPS   C4A10224  17.572   8.781   6.962  0.0790  0.2596 -0.2984
  757POPS   C1B10225  16.514   8.024   6.798 -0.0487  0.0553 -0.2675
  757POPS   C2B10226  16.683   8.177   7.153  0.0820  0.1551  0.2688
  757POPS   C3B10227  16.553   8.656   7.027  0.2662  0.3346 -0.0453
  757POPS   C4B10228  16.350   8.913   6.674 -0.4638  0.0963 -0.1393
  758POPS   CNO10229   1.547   5.335   5.388  0.1157  0.3775 -0.1778
  758POPS   PO410230   1.470   5.464   5.885 -0.0610 -0.3741  0.4232
  758POPS   GL110231   1.558   5.743   6.212 -0.0556 -0.1026  0.2246
  758POPS   GL210232   1.322   5.775   6.339  0.1022  0.2395  0.2137
  758POPS   C1A10233   1.802   5.852   6.537  0.0414  0.1192 -0.0804
  758POPS   D2A10234   2.050   5.779   7.000  0.0180 -0.3185 -0.2908
  758POPS   C3A10235   2.244   6.012   7.290  0.1308  0.1292  0.0096
  758POPS   C4A10236   2.551   6.192   7.579  0.0065 -0.2032  0.0619
  758POPS   C1B10237   1.385   5.802   6.901 -0.1723 -0.0502 -0.0870
  758POPS   C2B10238   1.452   5.733   7.414  0.1565 -0.0351 -0.0613
  758POPS   C3B10239   1.882   5.808   7.641  0.1750  0.1172 -0.1273
  758POPS   C4B10240   2.271   5.639   7.707  0.0599  0.2534 -0.2331
  759POPS   CNO10241  17.366  13.909   5.400 -0.1959 -0.1872 -0.1975
  759POPS   PO410242  17.328  14.154   5.755 -0.3666  0.1451  0.0136
  759POPS   GL110243  17.590  14.346   6.081  0.1368 -0.1584  0.1043
  759POPS   GL210244  17.971  14.151   6.214  0.1358 -0.2180 -0.0489
  759POPS   C1A10245  17.434  14.270   6.595  0.0708 -0.2190 -0.0114
  759POPS   D2A10246  17.287  14.317   6.988 -0.1666 -0.0266  0.2369
  759POPS   C3A10247  17.544  14.377   7.351  0.1633 -0.1713 -0.1104
  759POPS   C4A10248  17.658  14.456   7.776 -0.0220  0.1165  0.1457
  759POPS   C1B10249  17.962  14.187   6.606  0.0391  0.0598 -0.0057
  759POPS   C2B10250  17.932  14.197   7.043  0.0953  0.2028 -0.2486
  759POPS   C3B10251  17.888  14.027   7.540 -0.2191 -0.0782 -0.0794
  759POPS   C4B10252  18.064  13.797   7.831  0.1217 -0.0994  0.1993
  760POPS   CNO10253   8.560  14.622   5.613  0.0976  0.2115 -0.0308
  760POPS   PO410254   8.485  14.986   5.451 -0.1934  0.0874  0.1691
  760POPS   GL110255   8.555  15.177   5.791  0.1240  0.0031 -0.0870
  760POPS   GL210256   8.260  15.434   5.806 -0.2358  0.1074  0.2023
  760POPS   C1A10257   8.583  15.366   6.176 -0.1396  0.0104 -0.1664
  760POPS   D2A10258   8.621  15.655   6.581 -0.1965  0.1970 -0.2373
  760POPS   C3A10259   8.659  15.842   7.005 -0.1352 -0.1132  0.1027
  760POPS   C4A10260   8.533  15.617   7.334 -0.0871 -0.0924 -0.1411
  760POPS   C1B10261   8.095  15.218   6.219  0.0319 -0.1141 -0.0502
  760POPS   C2B10262   7.783  15.180   6.464 -0.2258  0.3130 -0.0052
  760POPS   C3B10263   7.657  15.504   6.676 -0.0442 -0.1214  0.0427
  760POPS   C4B10264   7.464  15.945   6.442  0.4642 -0.0085  0.0279
  761POPS   CNO10265  12.925   9.328   6.096  0.1606 -0.0048 -0.1148
  761POPS   PO410266  12.965   8.843   6.201 -0.0677 -0.2333 -0.0103
  761POPS   GL110267  12.845   8.989   6.542 -0.1123 -0.2024  0.0890
  761POPS   GL210268  12.612   9.007   6.811 -0.2798  0.0540  0.0390
  761POPS   C1A10269  13.050   8.863   7.019 -0.0396 -0.0133  0.0446
  761POPS   D2A10270  13.254   8.852   7.361 -0.0257  0.0270  0.1532
  761POPS   C3A10271  13.130   9.066   7.864 -0.0353 -0.1092  0.2265
  761POPS   C4A10272  13.305   9.044   8.296 -0.3403 -0.0201  0.0388
  761POPS   C1B10273  12.567   9.295   7.118  0.2637 -0.1134 -0.3213
  761POPS   C2B10274  12.744   9.690   7.362 -0.1794  0.0649  0.0804
  761POPS   C3B10275  12.726  10.195   7.593 -0.2871  0.0953  0.1784
  761POPS   C4B10276  12.628  10.276   7.930 -0.4520  0.3820  0.1027
  762POPS   CNO10277  12.319  10.007   5.479 -0.0645  0.0974  0.4180
  762POPS   PO410278  12.364   9.916   5.839  0.2318 -0.1004  0.1875
  762POPS   GL110279  12.258  10.137   6.132 -0.0926  0.4507  0.0907
  762POPS   GL210280  12.409  10.086   6.331  0.1889  0.2496  0.0260
  762POPS   C1A10281  12.503  10.548   6.322  0.2382  0.0155  0.1939
  762POPS   D2A10282  12.363  10.966   6.496 -0.0880  0.0001 -0.1711
  762POPS   C3A10283  12.471  11.052   6.951 -0.0310 -0.2786 -0.1614
  762POPS   C4A10284  12.220  11.073   7.311 -0.1607 -0.0996 -0.1807
  762POPS   C1B10285  12.472  10.192   6.696  0.5232  0.0680  0.0052
  762POPS   C2B10286  12.259  10.543   6.972 -0.1832  0.0119  0.1628
  762POPS   C3B10287  12.162  10.581   7.377  0.0910 -0.0583 -0.1000
  762POPS   C4B10288  12.158  10.425   7.728  0.1124  0.2440 -0.0302
  763POPS   CNO10289   8.164   1.097   5.721 -0.2102  0.0057 -0.0788
  763POPS   PO410290   8.071   1.210   6.139  0.1010  0.1428 -0.1240
  763POPS   GL110291   8.182   1.344   6.552 -0.4828 -0.2045  0.0919
  763POPS   GL210292   8.379   1.650   6.399  0.2046  0.1624 -0.0996
  763POPS   C1A10293   8.085   1.477   6.901  0.0295  0.1476  0.1163
  763POPS   D2A10294   8.041   1.782   7.196  0.2495  0.1855  0.1687
  763POPS   C3A10295   7.976   1.885   7.594 -0.3013 -0.0154 -0.1031
  763POPS   C4A10296   7.851   1.718   8.025  0.1432  0.0965 -0.1950
  763POPS   C1B10297   8.155   1.900   6.651 -0.1636 -0.0507  0.1614
  763POPS   C2B10298   8.081   2.154   6.896  0.0403 -0.1195 -0.0668
  763POPS   C3B10299   7.923   2.270   7.253 -0.1414 -0.2324  0.0698
  763POPS   C4B10300   7.744   2.517   7.534  0.2145  0.1932  0.2001
  764POPS   CNO10301   8.257  18.047   6.145 -0.3412 -0.1851  0.0546
  764POPS   PO410302   8.695  18.221   6.121  0.0081 -0.2626 -0.2233
  764POPS   GL110303   8.418  18.343   6.520 -0.0255 -0.0531  0.1400
  764POPS   GL210304   8.580  18.140   6.714 -0.0280  0.1156 -0.1985
  764POPS   C1A10305   8.285  18.504   6.857 -0.3510 -0.4113 -0.3050
  764POPS   D2A10306   8.388  18.438   7.324 -0.1691  0.1319  0.0326
  764POPS   C3A10307   8.555  18.037   7.365  0.0735  0.2122  0.0200
  764POPS   C4A10308   8.699  17.835   7.808 -0.4123 -0.1649  0.1000
  764POPS   C1B10309   8.772  18.317   7.034 -0.0056  0.1623  0.3776
  764POPS   C2B10310   9.025  18.310   7.307 -0.1249 -0.1293 -0.0066
  764POPS   C3B10311   8.933  18.210   7.654 -0.3249 -0.1158 -0.2496
  764POPS   C4B10312   9.159  18.143   8.018 -0.3845  0.1694  0.3476
  765POPS   CNO10313  13.692  17.041   5.597 -0.0365  0.0062 -0.0297
  765POPS   PO410314  13.368  17.133   5.983 -0.1722 -0.1759 -0.3330
  765POPS   GL110315  13.364  17.150   6.365  0.1906 -0.1162 -0.0031
  765POPS   GL210316  12.990  17.288   6.358  0.1920  0.2339  0.0541
  765POPS   C1A10317  13.396  17.042   6.764 -0.0882  0.2253 -0.1625
  765POPS   D2A10318  13.401  17.090   7.268  0.2860  0.0764  0.0628
  765POPS   C3A10319  13.611  17.002   7.721  0.1167  0.1437 -0.5204
  765POPS   C4A10320  13.636  16.631   7.981 -0.1049  0.1237  0.1671
  765POPS   C1B10321  12.555  17.250   6.534  0.2921 -0.1939 -0.0576
  765POPS   C2B10322  12.361  17.160   6.992 -0.0471 -0.2236 -0.1882
  765POPS   C3B10323  12.511  16.871   7.313 -0.0382  0.3652 -0.2011
  765POPS   C4B10324  12.521  16.549   7.611 -0.1890  0.4106  0.2875
  766POPS   CNO10325   8.194   6.119   5.020  0.0084 -0.1032  0.1875
  766POPS   PO410326   8.301   5.897   5.401 -0.1169 -0.3576 -0.0674
  766POPS   GL110327   8.189   5.720   5.836 -0.1126 -0.0522 -0.1430
  766POPS   GL210328   8.319   5.904   6.061  0.1034  0.1179 -0.1939
  766POPS   C1A10329   8.052   5.372   6.071  0.1217 -0.2006  0.2193
  766POPS   D2A10330   8.233   5.105   6.348  0.2292 -0.0162  0.1311
  766POPS   C3A10331   8.552   4.792   6.453  0.0558 -0.0860 -0.5440
  766POPS   C4A10332   8.797   4.715   6.701 -0.1871  0.0129  0.2519
  766POPS   C1B10333   8.683   5.713   6.260  0.1542  0.4194  0.1763
  766POPS   C2B10334   8.712   5.677   6.765  0.1185  0.0312  0.1422
  766POPS   C3B10335   8.896   5.804   7.309 -0.2044  0.2429  0.0429
  766POPS   C4B10336   8.950   5.606   7.625  0.1233 -0.3470 -0.1627
  767POPS   CNO10337   3.430  10.598   5.234 -0.2541  0.0921  0.2358
  767POPS   PO410338   3.170  10.898   5.307  0.2458 -0.0536 -0.4775
  767POPS   GL110339   2.984  10.837   5.746  0.0543 -0.1604  0.1748
  767POPS   GL210340   2.855  11.136   5.963  0.0288 -0.2872 -0.0292
  767POPS   C1A10341   3.051  10.791   6.192 -0.1916 -0.1124 -0.2085
  767POPS   D2A10342   2.972  10.613   6.602 -0.4102  0.0876 -0.1353
  767POPS   C3A10343   3.254  10.755   6.905 -0.0437  0.0561 -0.0090
  767POPS   C4A10344   3.613  10.934   7.231  0.2158 -0.1054 -0.1070
  767POPS   C1B10345   2.818  11.248   6.402 -0.0144  0.1333  0.4808
  767POPS   C2B10346   2.849  11.204   6.883  0.1324  0.1879  0.1221
  767POPS   C3B10347   3.070  11.048   7.329 -0.2624 -0.3943  0.3656
  767POPS   C4B10348   3.221  10.649   7.684  0.3703  0.2130  0.1841
  768POPS   CNO10349   0.239  17.061   6.618 -0.0080 -0.1462 -0.0119
  768POPS   PO410350   0.249  17.389   6.275 -0.0267  0.0152  0.1217
  768POPS   GL110351   0.183  17.569   6.702 -0.0802 -0.4639  0.0222
  768POPS   GL210352   0.429  17.719   6.751  0.0313 -0.2644  0.1762
  768POPS   C1A10353   0.161  17.477   7.079 -0.0263 -0.2763  0.0657
  768POPS   D2A10354   0.316  17.434   7.479 -0.4989  0.0541  0.0286
  768POPS   C3A10355   0.097  17.585   7.903  0.2748 -0.2272  0.0407
  768POPS   C4A10356   0.236  17.537   8.324 -0.0517 -0.0187 -0.0462
  768POPS   C1B10357   0.600  17.700   7.120  0.1080  0.0719 -0.1094
  768POPS   C2B10358   0.768  17.544   7.547  0.4584  0.2237 -0.2995
  768POPS   C3B10359   0.938  17.539   7.904  0.1594 -0.0377  0.0468
  768POPS   C4B10360   1.041  17.356   8.277  0.2444 -0.2395  0.0441
  769POPS   CNO10361  15.066   1.179   5.870  0.1588 -0.1993  0.2379
  769POPS   PO410362  14.724   1.141   5.957  0.1514 -0.1138 -0.1844
  769POPS   GL110363  14.703   1.268   6.431 -0.1693 -0.0784 -0.1225
  769POPS   GL210364  15.049   1.324   6.457 -0.1641  0.0333  0.1377
  769POPS   C1A10365  14.504   0.973   6.773  0.1946 -0.0623 -0.0547
  769POPS   D2A10366  14.342   0.738   7.138  0.1227  0.1954  0.0149
  769POPS   C3A10367  14.266   0.884   7.449  0.0007  0.1066 -0.3510
  769POPS   C4A10368  14.141   0.870   7.923  0.0502  0.0835 -0.1229
  769POPS   C1B10369  14.917   1.258   6.878 -0.2067 -0.4057  0.1048
  769POPS   C2B10370  15.132   1.243   7.293 -0.1150 -0.2780 -0.0481
  769POPS   C3B10371  15.067   1.089   7.754 -0.1646  0.0007 -0.4529
  769POPS   C4B10372  14.852   0.994   8.088 -0.0992  0.1510  0.3185
  770POPS   CNO10373  15.162   7.075   6.134  0.1967 -0.3941  0.1050
  770POPS   PO410374  15.531   7.274   5.829 -0.1685  0.1485  0.2738
  770POPS   GL110375  15.621   7.074   6.274  0.1443 -0.1260  0.0185
  770POPS   GL210376  15.973   7.217   6.403  0.1255  0.0530 -0.2483
  770POPS   C1A10377  15.558   7.149   6.731  0.1634  0.1497  0.0365
  770POPS   D2A10378  15.457   7.350   7.210  0.0956 -0.1359 -0.2990
  770POPS   C3A10379  15.426   7.066   7.643 -0.0663 -0.0376  0.0314
  770POPS   C4A10380  15.256   6.739   7.777  0.2451 -0.0813 -0.1591
  770POPS   C1B10381  16.071   7.001   6.629 -0.0809 -0.0730 -0.1058
  770POPS   C2B10382  16.224   6.917   7.011 -0.1282  0.0849  0.3748
  770POPS   C3B10383  16.305   6.864   7.474  0.0680 -0.1982  0.3857
  770POPS   C4B10384  16.391   6.798   7.937  0.1399  0.3108  0.1607
  771POPS   CNO10385   9.371   0.661   6.106  0.0964  0.0140  0.2982
  771POPS   PO410386   8.978   0.706   6.342  0.0183 -0.0682  0.2433
  771POPS   GL110387   9.173   0.481   6.655  0.0871 -0.0297 -0.2459
  771POPS   GL210388   9.348   0.634   6.899  0.3844  0.0771 -0.0957
  771POPS   C1A10389   9.237   0.110   6.823 -0.1057  0.0853 -0.3550
  771POPS   D2A10390   9.461  -0.205   6.994  0.3393 -0.1899  0.1408
  771POPS   C3A10391   9.428  -0.329   7.466  0.1779 -0.2595 -0.3433
  771POPS   C4A10392   9.314  -0.662   7.713 -0.0246 -0.0385  0.0851
  771POPS   C1B10393   9.373   0.539   7.315 -0.2766  0.0112 -0.2050
  771POPS   C2B10394   9.464   0.160   7.619  0.0341  0.1975 -0.0774
  771POPS   C3B10395   9.540   0.164   8.093 -0.0058  0.3256  0.1686
  771POPS   C4B10396   9.415   0.235   8.500 -0.5657 -0.0017 -0.1866
  772POPS   CNO10397   1.883   6.618   5.287  0.0225  0.0074  0.0671
  772POPS   PO410398   2.246   6.775   5.277 -0.0598  0.0589  0.0530
  772POPS   GL110399   2.397   6.801   5.781 -0.1323 -0.1507  0.3416
  772POPS   GL210400   2.671   6.981   5.833 -0.1550  0.0020 -0.1318
  772POPS   C1A10401   2.324   6.685   6.229  0.1759  0.1961  0.2132
  772POPS   D2A10402   2.402   6.714   6.642 -0.0547 -0.2211 -0.0949
  772POPS   C3A10403   2.341   6.556   7.093 -0.1105 -0.1314  0.2610
  772POPS   C4A10404   2.284   6.820   7.415 -0.0401  0.2608 -0.1767
  772POPS   C1B10405   3.010   7.061   6.061 -0.1463  0.1931  0.0352
  772POPS   C2B10406   3.246   7.174   6.373 -0.0830 -0.2133  0.2238
  772POPS   C3B10407   3.348   7.020   6.769  0.0019 -0.1040  0.0417
  772POPS   C4B10408   3.253   6.818   7.188 -0.2266  0.0658  0.1813
  773POPS   CNO10409  11.788   9.208   5.718 -0.0688  0.1491  0.0096
  773POPS   PO410410  11.732   9.484   5.968  0.2016  0.1138  0.0649
  773POPS   GL110411  11.714   9.346   6.422  0.2351 -0.4062  0.1018
  773POPS   GL210412  11.654   8.948   6.483  0.0898 -0.1050 -0.4090
  773POPS   C1A10413  11.550   9.689   6.855 -0.5343  0.0199  0.2001
  773POPS   D2A10414  11.508   9.863   7.217  0.2713  0.3272  0.2150
  773POPS   C3A10415  11.210  10.059   7.478  0.0800  0.1116 -0.0034
  773POPS   C4A10416  11.095  10.189   7.871 -0.0639  0.1460  0.3456
  773POPS   C1B10417  11.723   8.932   6.990  0.1569  0.0736 -0.2459
  773POPS   C2B10418  11.414   8.718   7.247 -0.1861 -0.2799 -0.0559
  773POPS   C3B10419  11.295   8.541   7.609 -0.0507  0.0500  0.1088
  773POPS   C4B10420  11.581   8.254   7.806  0.0178  0.0191 -0.1841
  774POPS   CNO10421  11.271   9.860   5.292  0.0949  0.0584 -0.2891
  774POPS   PO410422  10.998  10.131   5.536 -0.2320 -0.1763 -0.0383
  774POPS   GL110423  10.837  10.108   5.886 -0.1287 -0.2527  0.1865
  774POPS   GL210424  10.895   9.793   6.105  0.1348 -0.0204 -0.2153
  774POPS   C1A10425  10.680  10.265   6.336  0.1665  0.4438 -0.0301
  774POPS   D2A10426  10.542  10.163   6.800  0.1846 -0.0867 -0.0944
  774POPS   C3A10427  10.727  10.321   7.100 -0.1755 -0.3479 -0.1467
  774POPS   C4A10428  10.689  10.383   7.398  0.1676  0.0599 -0.3150
  774POPS   C1B10429  10.993   9.700   6.628  0.2354  0.0417 -0.0687
  774POPS   C2B10430  10.890   9.675   7.064  0.3860 -0.2409 -0.0152
  774POPS   C3B10431  10.754   9.874   7.363  0.0691 -0.4165  0.0351
  774POPS   C4B10432  10.583  10.003   7.758 -0.1151 -0.0457  0.0108
  775POPS   CNO10433   9.898  13.245   5.904 -0.3859 -0.0112  0.2734
  775POPS   PO410434   9.637  13.059   5.572  0.1879  0.0931  0.0078
  775POPS   GL110435   9.436  13.037   5.991 -0.4329 -0.3571 -0.2117
  775POPS   GL210436   9.235  12.863   6.102  0.1860  0.0235  0.2595
  775POPS   C1A10437   9.701  12.743   6.270  0.1917  0.3451 -0.1012
  775POPS   D2A10438   9.563  12.377   6.528 -0.1417  0.0269  0.0431
  775POPS   C3A10439   9.475  12.327   6.963  0.0287 -0.1693  0.1534
  775POPS   C4A10440   9.688  12.495   7.311 -0.0544  0.0860 -0.0129
  775POPS   C1B10441   9.360  13.012   6.510  0.1624 -0.0317  0.1921
  775POPS   C2B10442   9.322  12.816   6.879  0.2421 -0.0308 -0.1733
  775POPS   C3B10443   9.253  12.789   7.341  0.0906  0.3344 -0.0721
  775POPS   C4B10444   9.187  12.371   7.431 -0.0651  0.2697 -0.0913
  776POPS   CNO10445   9.307  11.984   5.723 -0.0601 -0.2387 -0.0147
  776POPS   PO410446   9.668  11.752   5.585  0.1325  0.0222  0.0137
  776POPS   GL110447   9.779  11.551   5.991 -0.0025  0.0880  0.1956
  776POPS   GL210448  10.005  11.690   6.242 -0.0243  0.1401 -0.2499
  776POPS   C1A10449   9.542  11.362   6.368 -0.2029  0.0940 -0.0020
  776POPS   D2A10450   9.802  11.567   6.747  0.2366  0.0000 -0.1774
  776POPS   C3A10451   9.678  11.477   7.246  0.1224 -0.2834  0.1502
  776POPS   C4A10452   9.975  11.431   7.720 -0.2239 -0.1444 -0.2924
  776POPS   C1B10453   9.938  12.016   6.564 -0.3473 -0.5322  0.0914
  776POPS   C2B10454   9.840  11.990   7.024  0.2032 -0.2173 -0.4649
  776POPS   C3B10455   9.916  11.887   7.503 -0.0539 -0.2136  0.0549
  776POPS   C4B10456  10.173  11.863   7.864 -0.4249  0.1086 -0.0842
  777POPS   CNO10457  11.617  17.365   6.131  0.0576 -0.0292  0.1828
  777POPS   PO410458  11.241  17.110   6.056  0.0002  0.1428 -0.0147
  777POPS   GL110459  11.071  17.241   6.423  0.0111 -0.0900  0.2414
  777POPS   GL210460  10.974  17.544   6.467  0.0903  0.1631  0.4124
  777POPS   C1A10461  11.021  16.895   6.740 -0.2545 -0.0108 -0.3379
  777POPS   D2A10462  10.970  16.527   6.912 -0.1848  0.2276  0.2165
  777POPS   C3A10463  10.735  16.344   7.307  0.4319 -0.1094  0.1639
  777POPS   C4A10464  10.204  16.426   7.485  0.3122  0.1468  0.1177
  777POPS   C1B10465  10.997  17.472   6.884  0.2730  0.1025 -0.0811
  777POPS   C2B10466  11.143  17.535   7.278  0.0157  0.1650  0.2052
  777POPS   C3B10467  10.971  17.340   7.593  0.3134 -0.3146  0.4490
  777POPS   C4B10468  10.926  16.843   7.820  0.2012  0.0071  0.1301
  778POPS   CNO10469  14.977  13.675   5.883 -0.0115 -0.1865  0.0845
  778POPS   PO410470  14.804  14.030   6.103  0.2020  0.2977 -0.4915
  778POPS   GL110471  14.756  14.182   6.557 -0.0262 -0.0310 -0.1479
  778POPS   GL210472  14.872  13.984   6.689 -0.0123 -0.0479  0.0746
  778POPS   C1A10473  14.514  14.471   6.849  0.0022 -0.0887 -0.0680
  778POPS   D2A10474  14.465  14.580   7.239  0.0378  0.3335  0.2411
  778POPS   C3A10475  14.802  14.568   7.509 -0.3216  0.2456  0.1421
  778POPS   C4A10476  15.233  14.331   7.540  0.0948  0.1494 -0.0679
  778POPS   C1B10477  14.830  14.185   7.170 -0.1381 -0.0844 -0.2135
  778POPS   C2B10478  14.893  13.980   7.624  0.3478 -0.2328  0.0922
  778POPS   C3B10479  14.945  14.231   7.964 -0.0076  0.1414  0.2180
  778POPS   C4B10480  15.360  14.490   8.100  0.0142  0.0084  0.0293
  779POPS   CNO10481  16.661  15.962   5.417  0.1501  0.0970 -0.2178
  779POPS   PO410482  16.900  16.190   5.845 -0.1631  0.0073 -0.0625
  779POPS   GL110483  16.910  16.247   6.221 -0.1092 -0.1617 -0.0778
  779POPS   GL210484  17.254  16.288   6.271  0.3509 -0.0465  0.2082
  779POPS   C1A10485  16.915  16.174   6.577  0.2565  0.0723  0.1572
  779POPS   D2A10486  16.805  16.204   7.016 -0.2481 -0.0583  0.1275
  779POPS   C3A10487  16.492  16.157   7.374 -0.2202  0.1816  0.3714
  779POPS   C4A10488  16.498  15.848   7.643 -0.2710 -0.0089 -0.1800
  779POPS   C1B10489  17.383  16.213   6.662 -0.2539 -0.1808 -0.3232
  779POPS   C2B10490  17.209  16.437   6.973 -0.2101 -0.0028  0.2645
  779POPS   C3B10491  17.254  16.691   7.271  0.2234  0.2161  0.2041
  779POPS   C4B10492  17.059  16.754   7.591  0.2224 -0.0365 -0.0438
  780POPS   CNO10493  12.217   7.994   5.593 -0.3753  0.1221  0.0410
  780POPS   PO410494  12.157   8.269   5.906  0.0252 -0.3708  0.1558
  780POPS   GL110495  12.265   8.589   6.228  0.0083  0.0009  0.1305
  780POPS   GL210496  11.979   8.565   6.344  0.1963  0.0258 -0.1723
  780POPS   C1A10497  12.459   8.469   6.640  0.0787 -0.3516  0.0489
  780POPS   D2A10498  12.974   8.389   6.607 -0.0083 -0.1070  0.2180
  780POPS   C3A10499  13.251   8.120   6.542 -0.0408  0.0125  0.2647
  780POPS   C4A10500  13.491   7.765   6.591  0.1856 -0.0517  0.0996
  780POPS   C1B10501  11.939   8.496   6.734  0.0667 -0.4194  0.0611
  780POPS   C2B10502  11.838   8.405   7.084 -0.3652 -0.0283 -0.3865
  780POPS   C3B10503  11.951   8.479   7.496 -0.1858 -0.1521  0.0607
  780POPS   C4B10504  11.989   8.487   7.917 -0.0205 -0.1316 -0.1006
  781POPS   CNO10505   3.529  17.705   5.857  0.1992  0.0114 -0.1596
  781POPS   PO410506   3.225  17.542   5.747  0.0229 -0.0850  0.1258
  781POPS   GL110507   3.115  17.665   6.199 -0.2377 -0.2082  0.1247
  781POPS   GL210508   2.886  17.769   6.140  0.0665 -0.0467  0.0284
  781POPS   C1A10509   2.967  17.436   6.524 -0.0164 -0.2292 -0.1572
  781POPS   D2A10510   2.761  17.664   6.920 -0.3388  0.2620  0.0950
  781POPS   C3A10511   2.735  17.578   7.285  0.1973  0.4095 -0.0531
  781POPS   C4A10512   2.361  17.598   7.549  0.0874  0.3963  0.0799
  781POPS   C1B10513   2.606  17.757   6.428 -0.1380 -0.2760  0.3188
  781POPS   C2B10514   2.462  17.996   6.689 -0.1843  0.0659 -0.2372
  781POPS   C3B10515   2.338  18.025   7.153 -0.1130 -0.0001  0.1059
  781POPS   C4B10516   1.963  17.952   7.435 -0.1356  0.0878  0.3162
  782POPS   CNO10517   8.065   0.284   6.101  0.1106 -0.1852 -0.0084
  782POPS   PO410518   8.023   0.717   6.061  0.1848  0.0570 -0.2323
  782POPS   GL110519   8.121   0.694   6.518 -0.0616 -0.0402 -0.0010
  782POPS   GL210520   7.908   0.386   6.549  0.1142 -0.0110  0.0527
  782POPS   C1A10521   8.104   0.589   6.970  0.0539  0.1455 -0.1767
  782POPS   D2A10522   8.160   0.557   7.348 -0.1109  0.0591 -0.1774
  782POPS   C3A10523   7.970   0.249   7.671  0.2657  0.3502  0.0649
  782POPS   C4A10524   7.987  -0.157   7.865  0.0819  0.2328  0.2153
  782POPS   C1B10525   7.618   0.457   6.793 -0.0376 -0.0045 -0.1256
  782POPS   C2B10526   7.494   0.843   7.119  0.0044 -0.0971  0.0143
  782POPS   C3B10527   7.345   1.103   7.289 -0.1002 -0.2208  0.0610
  782POPS   C4B10528   7.136   1.449   7.308 -0.0760 -0.1082  0.1191
  783POPS   CNO10529   9.797   0.933   6.013 -0.0145  0.0198  0.0175
  783POPS   PO410530   9.849   0.462   5.986 -0.0376 -0.2199  0.0905
  783POPS   GL110531   9.714   0.441   6.369  0.2069 -0.3152 -0.3980
  783POPS   GL210532   9.695   0.744   6.533 -0.0513 -0.0341 -0.2751
  783POPS   C1A10533   9.786   0.217   6.778 -0.0037  0.0692 -0.1754
  783POPS   D2A10534   9.658   0.178   7.178  0.0756  0.2341 -0.1371
  783POPS   C3A10535   9.998   0.228   7.479 -0.0268  0.1289  0.3293
  783POPS   C4A10536  10.175  -0.005   7.839  0.0324 -0.0335 -0.1987
  783POPS   C1B10537  10.030   0.904   6.726 -0.0749  0.0317 -0.0692
  783POPS   C2B10538  10.417   0.873   7.137  0.0322  0.1871 -0.5052
  783POPS   C3B10539  10.400   0.614   7.471  0.1441  0.0934  0.4023
  783POPS   C4B10540  10.558   0.552   7.836 -0.0777 -0.0743  0.0488
  784POPS   CNO10541  12.168   3.982   5.142 -0.1418 -0.0723  0.0804
  784POPS   PO410542  12.018   3.950   5.570 -0.0922  0.1047 -0.1348
  784POPS   GL110543  12.212   3.786   5.890  0.1117 -0.0058 -0.0465
  784POPS   GL210544  12.346   3.447   5.982  0.0508 -0.0746  0.2067
  784POPS   C1A10545  11.987   4.074   6.276 -0.1069 -0.2293  0.1567
  784POPS   D2A10546  11.932   4.389   6.453  0.3936 -0.1904  0.1459
  784POPS   C3A10547  11.632   4.372   6.871  0.2770 -0.1658  0.0152
  784POPS   C4A10548  11.397   4.472   7.259 -0.1054 -0.2610  0.1912
  784POPS   C1B10549  12.372   3.576   6.400  0.1319  0.0119 -0.2276
  784POPS   C2B10550  12.468   3.560   6.925 -0.0383  0.1873 -0.0446
  784POPS   C3B10551  12.365   3.325   7.285 -0.0154 -0.1669  0.1445
  784POPS   C4B10552  12.355   3.300   7.698 -0.0745 -0.1590  0.0730
  785POPS   CNO10553  17.131  17.767   5.654 -0.0091  0.1578  0.0371
  785POPS   PO410554  16.803  17.754   5.873  0.1363 -0.1959  0.4072
  785POPS   GL110555  16.631  17.774   6.299  0.2622  0.0752  0.3134
  785POPS   GL210556  16.783  17.958   6.478  0.1274 -0.2691  0.0242
  785POPS   C1A10557  16.470  17.600   6.614 -0.0659  0.2615  0.1378
  785POPS   D2A10558  16.333  17.683   7.025 -0.2555 -0.1524 -0.0866
  785POPS   C3A10559  16.226  17.980   7.135 -0.1162  0.3242  0.0840
  785POPS   C4A10560  16.016  18.254   7.383 -0.3786 -0.2214  0.2576
  785POPS   C1B10561  16.728  18.034   6.905  0.0626  0.3109 -0.0416
  785POPS   C2B10562  16.656  18.122   7.390  0.1722  0.3541  0.0728
  785POPS   C3B10563  16.774  18.151   7.904  0.2397 -0.0834 -0.1530
  785POPS   C4B10564  16.724  18.023   8.358  0.4603  0.0221 -0.0695
  786POPS   CNO10565   0.870  14.899   6.077  0.1940 -0.1653 -0.0965
  786POPS   PO410566   1.088  15.315   6.054  0.2046  0.2060 -0.1501
  786POPS   GL110567   1.291  15.335   6.427  0.2075  0.1890 -0.0098
  786POPS   GL210568   1.561  15.501   6.467 -0.2430 -0.1617 -0.0387
  786POPS   C1A10569   1.259  15.279   6.823  0.2122  0.0490  0.0723
  786POPS   D2A10570   1.400  15.169   7.226 -0.0502  0.1568 -0.2021
  786POPS   C3A10571   1.519  14.759   7.449 -0.2060 -0.0692 -0.1440
  786POPS   C4A10572   1.540  14.550   7.795  0.0133 -0.1980 -0.0917
  786POPS   C1B10573   1.864  15.510   6.852 -0.1569  0.3760 -0.2289
  786POPS   C2B10574   1.801  15.410   7.242 -0.2550 -0.2609  0.1069
  786POPS   C3B10575   1.761  15.125   7.584 -0.3079 -0.0693 -0.0416
  786POPS   C4B10576   1.467  15.108   7.891  0.1133  0.2031 -0.2298
  787POPS   CNO10577   5.914  10.273   5.776  0.1171  0.1278  0.0840
  787POPS   PO410578   5.825  10.724   5.712  0.1854 -0.1368  0.1494
  787POPS   GL110579   5.827  10.605   6.149 -0.1023 -0.3820 -0.0427
  787POPS   GL210580   5.458  10.660   6.387  0.0196 -0.0852 -0.1135
  787POPS   C1A10581   5.908  10.837   6.655  0.0543  0.0383  0.1046
  787POPS   D2A10582   5.988  11.159   7.006 -0.0117  0.1671 -0.1522
  787POPS   C3A10583   6.073  11.037   7.375 -0.2830  0.0400 -0.0090
  787POPS   C4A10584   6.119  11.243   7.719 -0.0233  0.1924 -0.2513
  787POPS   C1B10585   5.537  10.532   6.839 -0.2144  0.0187 -0.0756
  787POPS   C2B10586   5.895  10.341   7.151  0.2272 -0.3901 -0.1216
  787POPS   C3B10587   6.033  10.323   7.473 -0.2107 -0.0539  0.2691
  787POPS   C4B10588   6.266  10.097   7.777 -0.0112  0.1553 -0.0474
  788POPS   CNO10589  15.351   4.529   5.730  0.0941  0.1468  0.1467
  788POPS   PO410590  15.689   4.762   5.671 -0.0736  0.1212  0.3870
  788POPS   GL110591  15.757   4.899   6.137 -0.1516  0.1045 -0.0403
  788POPS   GL210592  16.014   4.804   6.328 -0.2589 -0.1439  0.2121
  788POPS   C1A10593  15.943   5.227   6.446  0.2440  0.2132  0.3822
  788POPS   D2A10594  16.115   5.406   6.757 -0.0083  0.0961  0.0966
  788POPS   C3A10595  15.900   5.400   7.200 -0.1120 -0.2058 -0.2775
  788POPS   C4A10596  15.604   5.341   7.493 -0.0543  0.0492  0.0502
  788POPS   C1B10597  15.828   4.552   6.635 -0.3304 -0.2173 -0.0363
  788POPS   C2B10598  15.512   4.584   6.920  0.2116 -0.2398  0.0321
  788POPS   C3B10599  15.462   4.896   7.231  0.0472  0.3439 -0.0691
  788POPS   C4B10600  15.880   4.937   7.500 -0.0476  0.2292  0.2346
  789POPS   CNO10601  13.552   1.734   5.747  0.1661  0.0631  0.2971
  789POPS   PO410602  13.688   1.415   6.090 -0.0421 -0.2086  0.0479
  789POPS   GL110603  13.870   1.233   6.442  0.2274  0.3248  0.1065
  789POPS   GL210604  13.933   0.931   6.375 -0.0103 -0.0502  0.4259
  789POPS   C1A10605  14.047   1.236   6.939  0.0093 -0.1651  0.0535
  789POPS   D2A10606  14.082   1.272   7.304  0.1840  0.4089  0.3831
  789POPS   C3A10607  14.103   1.458   7.606 -0.0497 -0.2331 -0.0550
  789POPS   C4A10608  14.181   1.531   8.013  0.0514 -0.1914 -0.0083
  789POPS   C1B10609  13.864   0.824   6.786 -0.1686  0.0344  0.0981
  789POPS   C2B10610  13.830   0.678   7.186 -0.2386 -0.1070  0.1081
  789POPS   C3B10611  13.735   0.813   7.595 -0.1446  0.2359  0.2686
  789POPS   C4B10612  13.434   0.585   7.845  0.1020 -0.0517 -0.1314
  790POPS   CNO10613  15.260  16.639   6.026  0.1871  0.1237 -0.2309
  790POPS   PO410614  15.431  16.965   5.791  0.0983 -0.1636  0.0243
  790POPS   GL110615  15.748  16.755   6.070  0.0198  0.1222 -0.3294
  790POPS   GL210616  15.909  16.954   6.321  0.0606  0.0942 -0.1582
  790POPS   C1A10617  15.661  16.537   6.440 -0.1441  0.0463  0.1113
  790POPS   D2A10618  15.533  16.492   6.834  0.0753 -0.1378 -0.2358
  790POPS   C3A10619  15.286  16.193   6.959  0.1997  0.0206  0.2881
  790POPS   C4A10620  15.223  16.165   7.488  0.1821 -0.1545 -0.0414
  790POPS   C1B10621  15.794  16.944   6.720 -0.1554  0.0486 -0.2065
  790POPS   C2B10622  15.914  16.715   7.125  0.1413 -0.1715 -0.1763
  790POPS   C3B10623  16.053  16.400   7.394  0.3464 -0.2827  0.0727
  790POPS   C4B10624  16.067  15.952   7.450 -0.2612  0.0277  0.2373
  791POPS   CNO10625   7.962   2.318   5.488  0.4080 -0.0428 -0.0827
  791POPS   PO410626   8.098   2.568   5.793 -0.0181 -0.1048 -0.1701
  791POPS   GL110627   7.912   2.301   6.130  0.0259  0.1434  0.1021
  791POPS   GL210628   7.900   2.416   6.520  0.2757 -0.0396  0.1779
  791POPS   C1A10629   7.525   2.060   6.325  0.1808  0.1608 -0.0272
  791POPS   D2A10630   7.312   2.092   6.594  0.0402  0.0919  0.1990
  791POPS   C3A10631   7.549   2.364   6.945 -0.0036  0.0015 -0.1778
  791POPS   C4A10632   7.618   2.679   7.102  0.1304 -0.0779  0.0268
  791POPS   C1B10633   7.817   2.849   6.601  0.2192  0.0160 -0.0665
  791POPS   C2B10634   7.756   3.218   6.731  0.0827 -0.0251  0.1434
  791POPS   C3B10635   7.681   3.601   6.982 -0.2171 -0.0329  0.0084
  791POPS   C4B10636   7.480   4.055   6.881 -0.0531 -0.2199  0.2334
  792POPS   CNO10637  10.738  11.676   5.753 -0.1580  0.0475  0.1683
  792POPS   PO410638  10.543  12.006   5.528  0.1704 -0.1596  0.0781
  792POPS   GL110639  10.690  12.010   6.085  0.3154  0.0069 -0.1324
  792POPS   GL210640  10.422  11.925   6.185 -0.0776  0.2671 -0.0113
  792POPS   C1A10641  10.851  11.866   6.458 -0.1009  0.1336  0.0629
  792POPS   D2A10642  10.806  11.786   6.862 -0.1738 -0.0182  0.0580
  792POPS   C3A10643  10.868  12.037   7.235  0.2398 -0.0203 -0.1864
  792POPS   C4A10644  10.847  12.090   7.700 -0.2163 -0.3742 -0.1449
  792POPS   C1B10645  10.458  12.188   6.543  0.1518 -0.4835  0.1124
  792POPS   C2B10646  10.489  12.276   7.023 -0.3920 -0.0419 -0.2417
  792POPS   C3B10647  10.246  12.272   7.457 -0.0838 -0.0203  0.1022
  792POPS   C4B10648   9.849  12.293   7.815 -0.0031 -0.0931  0.1427
  793POPS   CNO10649   7.115   6.878   5.260 -0.0789 -0.2190 -0.1176
  793POPS   PO410650   6.758   7.143   5.590  0.1671  0.0398  0.1795
  793POPS   GL110651   6.780   7.088   6.029  0.0955  0.0329 -0.0348
  793POPS   GL210652   6.638   7.356   6.114 -0.0198  0.1360  0.0918
  793POPS   C1A10653   6.951   6.964   6.298  0.1955 -0.0260  0.1834
  793POPS   D2A10654   6.691   6.997   6.608  0.0745  0.2571 -0.0864
  793POPS   C3A10655   6.617   7.300   6.755  0.0034  0.1715 -0.0558
  793POPS   C4A10656   6.848   7.730   6.845 -0.3495  0.1403 -0.1962
  793POPS   C1B10657   6.937   7.457   6.438  0.2440 -0.0822 -0.0255
  793POPS   C2B10658   7.278   7.364   6.718 -0.0254  0.3649  0.1902
  793POPS   C3B10659   7.625   7.244   7.047 -0.0261 -0.0984  0.0353
  793POPS   C4B10660   7.686   7.061   7.417  0.0323  0.0443 -0.0809
  794POPS   CNO10661   2.212   0.494   5.732 -0.0013  0.0193 -0.0630
  794POPS   PO410662   2.065   0.855   6.040 -0.1283  0.0045  0.0547
  794POPS   GL110663   1.931   0.979   6.422 -0.0694 -0.1103 -0.0553
  794POPS   GL210664   1.795   1.334   6.404 -0.1426 -0.2269  0.3618
  794POPS   C1A10665   1.896   0.844   6.821 -0.1155  0.0330  0.0150
  794POPS   D2A10666   1.849   0.915   7.318 -0.2720  0.1752 -0.1561
  794POPS   C3A10667   2.009   0.540   7.566  0.0432  0.0351 -0.1461
  794POPS   C4A10668   2.375   0.554   7.684 -0.2149 -0.0922 -0.0918
  794POPS   C1B10669   1.986   1.369   6.797  0.1257 -0.0569  0.1351
  794POPS   C2B10670   2.047   1.333   7.221  0.1150 -0.1827 -0.1958
  794POPS   C3B10671   1.833   1.349   7.675 -0.0643  0.0236  0.0749
  794POPS   C4B10672   1.458   1.324   8.000  0.0398  0.0734  0.1158
  795POPS   CNO10673   5.576   5.457   5.437 -0.1208 -0.2474 -0.1908
  795POPS   PO410674   5.956   5.586   5.582 -0.1873 -0.0917 -0.3011
  795POPS   GL110675   5.866   5.787   5.939 -0.1774 -0.3314 -0.1398
  795POPS   GL210676   5.668   5.540   6.063  0.0386 -0.3414 -0.2318
  795POPS   C1A10677   5.915   5.866   6.308 -0.1508 -0.2715 -0.0307
  795POPS   D2A10678   5.722   5.907   6.716  0.2581  0.1116 -0.1247
  795POPS   C3A10679   5.666   6.140   7.166  0.3536  0.2785  0.1631
  795POPS   C4A10680   5.492   6.305   7.534  0.1400  0.3399  0.0668
  795POPS   C1B10681   5.730   5.397   6.473 -0.0302 -0.2903  0.0354
  795POPS   C2B10682   5.771   5.433   6.885  0.0994 -0.1071 -0.1809
  795POPS   C3B10683   5.872   5.588   7.327 -0.0018 -0.2344  0.1678
  795POPS   C4B10684   5.876   5.794   7.794  0.1966  0.0221  0.0791
  796POPS   CNO10685   1.713   7.093   5.266 -0.5683 -0.1526 -0.2407
  796POPS   PO410686   1.394   6.868   5.610 -0.0152 -0.4429  0.1612
  796POPS   GL110687   1.419   7.074   5.980 -0.2881 -0.0336  0.0739
  796POPS   GL210688   1.150   7.134   6.009  0.0396 -0.0786 -0.1339
  796POPS   C1A10689   1.618   7.289   6.332  0.0437  0.0032  0.0726
  796POPS   D2A10690   1.770   7.298   6.670  0.0912 -0.1088  0.0934
  796POPS   C3A10691   1.490   7.447   6.993  0.2229 -0.1786  0.2127
  796POPS   C4A10692   1.082   7.439   7.300 -0.0616  0.2204  0.2794
  796POPS   C1B10693   0.869   7.194   6.304 -0.2102  0.3486  0.1138
  796POPS   C2B10694   0.649   7.106   6.688 -0.0417  0.0247 -0.0985
  796POPS   C3B10695   0.586   7.208   7.093  0.1330 -0.2485 -0.0967
  796POPS   C4B10696   0.359   7.236   7.449  0.2546  0.2432  0.0741
  797POPS   CNO10697   7.557  12.316   5.181  0.0905  0.1074 -0.0733
  797POPS   PO410698   7.704  12.136   5.532 -0.0572 -0.3922  0.0032
  797POPS   GL110699   8.021  12.282   5.822 -0.1642  0.4101  0.0872
  797POPS   GL210700   8.177  12.066   5.730  0.1155 -0.0173  0.0038
  797POPS   C1A10701   8.052  12.568   6.106 -0.3239 -0.1598  0.2525
  797POPS   D2A10702   8.170  12.547   6.457  0.2702  0.1239  0.0656
  797POPS   C3A10703   7.912  12.372   6.842 -0.4954 -0.1979 -0.4466
  797POPS   C4A10704   7.823  12.201   7.325 -0.0835 -0.0154 -0.0425
  797POPS   C1B10705   8.375  12.120   6.072 -0.5317  0.3279 -0.1001
  797POPS   C2B10706   8.528  11.815   6.275 -0.1820 -0.1300  0.0820
  797POPS   C3B10707   8.627  11.721   6.631 -0.4504  0.1081 -0.1416
  797POPS   C4B10708   8.790  11.338   6.862 -0.0102 -0.0607  0.4036
  798POPS   CNO10709  14.845  15.926   5.570 -0.0290  0.3129  0.0533
  798POPS   PO410710  14.888  15.508   5.770  0.0356  0.0137 -0.0034
  798POPS   GL110711  14.636  15.587   6.139 -0.0973  0.2542  0.2631
  798POPS   GL210712  14.308  15.812   6.374  0.1719 -0.0367  0.0685
  798POPS   C1A10713  14.779  15.919   6.424 -0.1260 -0.0640  0.1796
  798POPS   D2A10714  14.850  16.136   6.762  0.4093 -0.1637 -0.2682
  798POPS   C3A10715  14.841  16.158   7.231  0.0810 -0.0932 -0.2463
  798POPS   C4A10716  14.770  15.957   7.559 -0.1005  0.0972  0.1891
  798POPS   C1B10717  14.338  15.965   6.761 -0.4155  0.1759  0.4178
  798POPS   C2B10718  14.369  15.950   7.213 -0.0725 -0.0251 -0.3052
  798POPS   C3B10719  14.026  16.121   7.503  0.0378 -0.1959 -0.1267
  798POPS   C4B10720  13.917  16.274   7.822  0.1456  0.0320 -0.3790
  799POPS   CNO10721   8.743  14.709   5.082  0.2105 -0.5294  0.0276
  799POPS   PO410722   9.257  14.641   5.259 -0.1034 -0.0795  0.1625
  799POPS   GL110723   9.227  14.443   5.673  0.0174  0.0311 -0.2280
  799POPS   GL210724   9.000  14.521   5.859  0.1543 -0.0112 -0.0420
  799POPS   C1A10725   9.461  14.339   6.091  0.0402  0.2804  0.1605
  799POPS   D2A10726   9.750  14.206   6.283  0.1950 -0.2740 -0.0461
  799POPS   C3A10727   9.678  14.408   6.756  0.0535 -0.3553 -0.1633
  799POPS   C4A10728   9.798  14.380   7.207 -0.0690  0.1981 -0.0718
  799POPS   C1B10729   9.059  14.484   6.315  0.0778  0.1369  0.0299
  799POPS   C2B10730   9.122  14.639   6.551 -0.0469  0.1542  0.1487
  799POPS   C3B10731   9.240  14.671   6.981 -0.1044  0.0801  0.0846
  799POPS   C4B10732   9.163  14.789   7.387  0.1629 -0.1744 -0.1427
  800POPS   CNO10733   3.422   2.701   5.797 -0.1137  0.0787 -0.1342
  800POPS   PO410734   3.166   2.562   6.226 -0.0994 -0.1735  0.0537
  800POPS   GL110735   3.199   2.647   6.693  0.2185 -0.1761 -0.0687
  800POPS   GL210736   3.115   2.915   6.664  0.1058  0.1763 -0.1455
  800POPS   C1A10737   3.130   2.711   7.162 -0.1235  0.0702  0.1136
  800POPS   D2A10738   2.955   2.776   7.653  0.0823 -0.1538  0.2478
  800POPS   C3A10739   3.233   3.009   7.908 -0.2455  0.1466  0.1703
  800POPS   C4A10740   3.609   3.010   8.097  0.1387 -0.3612  0.1428
  800POPS   C1B10741   3.313   3.138   6.972 -0.0869  0.0022  0.0503
  800POPS   C2B10742   3.425   3.472   7.367  0.2219 -0.0009  0.1223
  800POPS   C3B10743   3.402   3.780   7.686 -0.1903  0.2612  0.0981
  800POPS   C4B10744   3.241   4.133   8.068 -0.1658  0.2618  0.2829
  801POPS   CNO10745  10.283  17.413   5.288  0.2340 -0.0420 -0.0167
  801POPS   PO410746  10.397  17.431   5.735  0.0195 -0.0557 -0.0655
  801POPS   GL110747  10.670  17.238   6.115 -0.2342  0.0444 -0.0418
  801POPS   GL210748  10.313  17.134   6.143 -0.1633 -0.0706 -0.0121
  801POPS   C1A10749  10.701  16.838   6.307 -0.2126 -0.2493  0.1228
  801POPS   D2A10750  10.530  16.691   6.651 -0.0248  0.1826  0.1321
  801POPS   C3A10751  10.554  17.001   7.042 -0.1094 -0.2707  0.4981
  801POPS   C4A10752  10.644  17.290   7.216 -0.2742  0.1327 -0.1243
  801POPS   C1B10753  10.189  16.711   6.286  0.1378 -0.2423 -0.0972
  801POPS   C2B10754   9.892  16.687   6.644  0.1448  0.0632 -0.4074
  801POPS   C3B10755   9.853  16.379   6.965  0.0645  0.1321 -0.1691
  801POPS   C4B10756  10.006  15.967   7.086 -0.0942 -0.0926 -0.1368
  802POPS   CNO10757   6.919  18.049   6.015  0.2513  0.0223 -0.0678
  802POPS   PO410758   7.384  17.879   5.898  0.3024  0.5244 -0.0387
  802POPS   GL110759   7.222  17.704   6.302 -0.0398  0.1390  0.0734
  802POPS   GL210760   7.104  17.971   6.469  0.1395  0.0132 -0.0453
  802POPS   C1A10761   7.360  17.489   6.647  0.2061 -0.0970 -0.1785
  802POPS   D2A10762   7.543  17.064   6.755  0.1593  0.1555 -0.1130
  802POPS   C3A10763   7.563  16.992   7.123  0.1203  0.0335 -0.1211
  802POPS   C4A10764   7.321  16.660   7.261 -0.1469 -0.0259 -0.0787
  802POPS   C1B10765   7.111  18.007   6.890  0.0175 -0.2807 -0.0436
  802POPS   C2B10766   6.991  18.229   7.283 -0.1142  0.1188  0.2103
  802POPS   C3B10767   7.096  18.497   7.529 -0.1674  0.1784  0.0306
  802POPS   C4B10768   7.509  18.366   7.865  0.0286  0.0580  0.0238
  803POPS   CNO10769   1.193   2.949   5.590  0.0838  0.1237 -0.0988
  803POPS   PO410770   1.001   2.735   5.899  0.4181  0.2603 -0.2178
  803POPS   GL110771   1.173   2.560   6.319  0.1985 -0.1697 -0.0525
  803POPS   GL210772   0.883   2.487   6.459  0.1556  0.1482 -0.2858
  803POPS   C1A10773   1.301   2.734   6.780  0.0410  0.1254  0.2196
  803POPS   D2A10774   1.141   2.768   7.186 -0.2181  0.3141 -0.0757
  803POPS   C3A10775   0.737   2.726   7.428 -0.0375  0.0782  0.0085
  803POPS   C4A10776   0.564   2.512   7.749  0.1128  0.0801  0.0547
  803POPS   C1B10777   0.841   2.558   6.815 -0.1751 -0.1314 -0.1779
  803POPS   C2B10778   0.828   2.287   7.137 -0.0403 -0.1660 -0.3009
  803POPS   C3B10779   1.050   2.437   7.573 -0.1530  0.0679 -0.0360
  803POPS   C4B10780   1.441   2.536   7.737 -0.1136  0.0393  0.1775
  804POPS   CNO10781  17.426   1.306   5.619  0.0601  0.1174  0.0765
  804POPS   PO410782  17.400   1.233   6.083  0.1962 -0.1473  0.1447
  804POPS   GL110783  17.490   1.525   6.409  0.5024  0.0788 -0.0323
  804POPS   GL210784  17.630   1.757   6.337  0.1633 -0.0264 -0.0166
  804POPS   C1A10785  17.734   1.391   6.757 -0.0384 -0.0762 -0.0187
  804POPS   D2A10786  17.900   1.504   7.119 -0.1904 -0.0305  0.1130
  804POPS   C3A10787  17.750   1.482   7.509  0.0626  0.0001 -0.2335
  804POPS   C4A10788  17.905   1.425   7.913  0.1160  0.2170 -0.0196
  804POPS   C1B10789  17.720   2.177   6.447 -0.0614 -0.0707 -0.1824
  804POPS   C2B10790  17.637   2.416   6.821 -0.2198  0.3457  0.1698
  804POPS   C3B10791  17.582   2.500   7.197 -0.0593  0.2162  0.0789
  804POPS   C4B10792  17.892   2.565   7.475 -0.3168  0.0823 -0.2161
  805POPS   CNO10793  12.680  13.830   5.664 -0.1510  0.0087  0.2098
  805POPS   PO410794  12.797  13.660   6.011 -0.0216  0.0069  0.0901
  805POPS   GL110795  12.801  13.932   6.350 -0.2331 -0.0548  0.3315
  805POPS   GL210796  12.470  14.025   6.486  0.2636 -0.2066 -0.1554
  805POPS   C1A10797  12.909  14.009   6.742 -0.0819 -0.0222 -0.0089
  805POPS   D2A10798  12.851  14.093   7.082  0.1326 -0.2380 -0.1606
  805POPS   C3A10799  12.631  14.374   7.346 -0.0645  0.2270 -0.0793
  805POPS   C4A10800  12.332  14.199   7.546  0.0188  0.0889 -0.1805
  805POPS   C1B10801  12.372  14.099   6.861 -0.0517  0.0548  0.0962
  805POPS   C2B10802  12.010  14.272   7.128  0.1997  0.1026  0.1860
  805POPS   C3B10803  11.589  14.572   7.170 -0.2148 -0.1078 -0.1948
  805POPS   C4B10804  11.147  14.544   6.991  0.0040  0.1031  0.1211
  806POPS   CNO10805  14.704   6.840   5.852 -0.2393 -0.1453  0.3547
  806POPS   PO410806  14.809   6.482   6.001 -0.1331  0.3434  0.0594
  806POPS   GL110807  14.845   6.762   6.303  0.1256 -0.0276 -0.2217
  806POPS   GL210808  15.109   6.647   6.372 -0.0502  0.0154  0.1537
  806POPS   C1A10809  14.891   7.033   6.682  0.4716 -0.2727 -0.1298
  806POPS   D2A10810  15.084   7.117   6.981 -0.1402 -0.3128  0.2143
  806POPS   C3A10811  15.007   6.946   7.351 -0.1257 -0.0307 -0.3342
  806POPS   C4A10812  14.792   7.116   7.757  0.1617 -0.2534  0.1322
  806POPS   C1B10813  15.235   6.682   6.819  0.2708 -0.1583  0.0328
  806POPS   C2B10814  15.446   6.823   7.205 -0.2879 -0.0985  0.0061
  806POPS   C3B10815  15.774   6.774   7.456  0.2530  0.1382  0.2856
  806POPS   C4B10816  16.007   6.579   7.767 -0.1615  0.1062  0.2263
  807POPS   CNO10817  14.158  11.016   5.936  0.0977  0.0307 -0.0185
  807POPS   PO410818  14.510  10.957   6.154 -0.0611 -0.0952 -0.1476
  807POPS   GL110819  14.645  11.098   6.555 -0.2102  0.0060  0.2544
  807POPS   GL210820  14.677  11.356   6.648  0.2702 -0.2008  0.2843
  807POPS   C1A10821  14.579  10.991   6.954 -0.3109 -0.3843  0.3733
  807POPS   D2A10822  14.383  10.837   7.282 -0.0171  0.0542  0.2597
  807POPS   C3A10823  14.233  11.140   7.430  0.1990  0.2775  0.1181
  807POPS   C4A10824  13.931  11.426   7.594 -0.0769 -0.1667  0.2865
  807POPS   C1B10825  14.467  11.503   7.023 -0.1229 -0.0210  0.1966
  807POPS   C2B10826  14.428  11.627   7.435  0.0011 -0.0128 -0.0154
  807POPS   C3B10827  14.323  11.682   7.819  0.1549  0.1335  0.0609
  807POPS   C4B10828  14.067  11.602   8.217 -0.1571 -0.1033  0.1559
  808POPS   CNO10829  13.588  16.581   5.335  0.1648 -0.2105 -0.1185
  808POPS   PO410830  13.328  16.309   5.505  0.1065  0.2008 -0.0036
  808POPS   GL110831  13.388  15.998   5.882  0.0893  0.1049 -0.2817
  808POPS   GL210832  13.592  16.169   6.011 -0.0042 -0.1395  0.0486
  808POPS   C1A10833  13.248  15.761   6.274 -0.1626 -0.1986  0.2296
  808POPS   D2A10834  13.214  15.855   6.651  0.1000  0.0007  0.0159
  808POPS   C3A10835  12.821  15.737   6.871  0.0088 -0.2729  0.0381
  808POPS   C4A10836  12.407  15.770   6.940  0.3791 -0.0495  0.1479
  808POPS   C1B10837  13.459  16.236   6.444 -0.1223 -0.0548 -0.1744
  808POPS   C2B10838  13.532  16.466   6.796 -0.0810  0.0479 -0.1606
  808POPS   C3B10839  13.274  16.610   7.113  0.2486 -0.1778 -0.0042
  808POPS   C4B10840  13.024  16.689   7.198 -0.1397  0.1309 -0.1323
  809POPS   CNO10841   2.276   4.400   5.746 -0.1094  0.1440  0.0611
  809POPS   PO410842   2.310   4.898   5.732  0.2873 -0.1204 -0.3303
  809POPS   GL110843   2.552   5.034   6.103  0.0790  0.2259  0.0390
  809POPS   GL210844   2.464   5.363   6.326 -0.1144  0.2042 -0.0929
  809POPS   C1A10845   2.949   5.086   6.190 -0.0371 -0.0513 -0.0671
  809POPS   D2A10846   3.302   5.240   6.462 -0.1106 -0.1127  0.2270
  809POPS   C3A10847   3.208   5.043   6.815  0.0279 -0.2090  0.0455
  809POPS   C4A10848   3.382   5.153   7.230  0.1932 -0.1756  0.0178
  809POPS   C1B10849   2.678   5.156   6.601  0.3111 -0.0754  0.0749
  809POPS   C2B10850   2.686   5.162   7.020 -0.2427  0.3960 -0.1504
  809POPS   C3B10851   2.915   5.094   7.401 -0.0740  0.2352  0.0385
  809POPS   C4B10852   3.108   5.114   7.802  0.4827  0.0048 -0.3468
  810POPS   CNO10853  11.901  11.256   5.261  0.1275 -0.0493 -0.3298
  810POPS   PO410854  12.160  11.187   5.660 -0.0512 -0.5482 -0.3002
  810POPS   GL110855  12.310  11.297   6.056  0.0821 -0.3369 -0.3995
  810POPS   GL210856  12.641  11.164   6.121 -0.0423 -0.1238  0.2359
  810POPS   C1A10857  12.522  11.521   6.410 -0.0287 -0.1022  0.4420
  810POPS   D2A10858  12.704  11.483   6.841 -0.0716  0.1492  0.1567
  810POPS   C3A10859  12.416  11.581   7.144 -0.2114  0.2591 -0.1819
  810POPS   C4A10860  12.164  11.686   7.497  0.3215  0.1901 -0.2178
  810POPS   C1B10861  12.879  11.111   6.475  0.2804 -0.1825  0.3546
  810POPS   C2B10862  12.956  11.113   6.982 -0.3249 -0.0995 -0.0195
  810POPS   C3B10863  13.182  11.182   7.410 -0.1415  0.1334 -0.1516
  810POPS   C4B10864  13.411  11.331   7.764  0.3349 -0.0924 -0.1574
  811POPS   CNO10865  15.944  15.878   5.802 -0.0109 -0.2816 -0.2692
  811POPS   PO410866  15.688  15.751   6.007 -0.3383 -0.0492  0.0349
  811POPS   GL110867  15.577  15.421   6.300  0.4310  0.0725 -0.0214
  811POPS   GL210868  15.842  15.149   6.244 -0.0058  0.0231  0.0828
  811POPS   C1A10869  15.481  15.197   6.599 -0.3345 -0.0072  0.0982
  811POPS   D2A10870  15.171  15.141   7.029  0.0064 -0.1999 -0.1785
  811POPS   C3A10871  15.185  15.315   7.471 -0.1205  0.2044  0.0038
  811POPS   C4A10872  15.162  15.617   7.675 -0.2173 -0.0889  0.1270
  811POPS   C1B10873  15.979  15.058   6.595  0.1954  0.3474 -0.1251
  811POPS   C2B10874  16.071  14.708   6.828  0.2795  0.0674  0.0087
  811POPS   C3B10875  16.219  14.496   7.249  0.0404 -0.2259 -0.1684
  811POPS   C4B10876  16.181  14.529   7.691 -0.0246 -0.4228 -0.3344
  812YOPS   CNO10877  12.065  17.537   5.983 -0.1462  0.0829 -0.1541
  812YOPS   PO410878  11.908  17.930   6.054 -0.3399  0.2333  0.2988
  812YOPS   GL110879  11.518  17.830   6.290 -0.2424 -0.0952 -0.1444
  812YOPS   GL210880  11.261  18.027   6.318 -0.1380 -0.0223  0.1697
  812YOPS   C1A10881  11.449  17.512   6.614 -0.1860 -0.2025 -0.1533
  812YOPS   D2A10882  11.394  17.200   6.963  0.2873  0.1604  0.1274
  812YOPS   C3A10883  11.073  17.021   7.236  0.0644 -0.1254  0.1828
  812YOPS   C4A10884  11.153  16.704   7.390  0.2295 -0.3202  0.2976
  812YOPS   C1B10885  11.206  17.930   6.716  0.0405  0.1483 -0.2578
  812YOPS   C2B10886  10.993  18.074   7.194 -0.1670  0.2720  0.1579
  812YOPS   D3B10887  10.985  17.984   7.712  0.1028  0.1313  0.1789
  812YOPS   C4B10888  10.817  17.660   7.944 -0.0734 -0.1477  0.1414
  813YOPS   CNO10889   3.899   6.975   5.615  0.0120 -0.0732 -0.3190
  813YOPS   PO410890   4.292   7.172   5.415  0.0546 -0.1727  0.0391
  813YOPS   GL110891   4.375   7.402   5.773 -0.0533 -0.5201  0.0284
  813YOPS   GL210892   4.688   7.296   5.942  0.0242  0.1957 -0.0622
  813YOPS   C1A10893   4.369   7.617   6.040 -0.0851 -0.4888  0.1493
  813YOPS   D2A10894   4.544   7.938   6.301  0.2036 -0.1087 -0.0496
  813YOPS   C3A10895   4.472   8.144   6.715 -0.1177 -0.1454  0.0159
  813YOPS   C4A10896   4.314   8.494   6.734  0.0324  0.0366  0.0415
  813YOPS   C1B10897   4.347   7.147   6.222 -0.1726  0.1029  0.2293
  813YOPS   C2B10898   4.318   7.129   6.643 -0.2474 -0.0599  0.1286
  813YOPS   D3B10899   4.310   6.902   7.028 -0.2534 -0.2587 -0.0643
  813YOPS   C4B10900   4.248   7.152   7.295 -0.3330  0.1722  0.1629
  814YOPS   CNO10901   9.324   3.973   5.805  0.1482  0.0902  0.0077
  814YOPS   PO410902   9.637   3.673   5.899 -0.5120 -0.0028 -0.2873
  814YOPS   GL110903   9.660   3.595   6.326  0.2595  0.3563  0.2346
  814YOPS   GL210904   9.939   3.786   6.400 -0.2317  0.1453 -0.0886
  814YOPS   C1A10905   9.704   3.676   6.809 -0.0210 -0.2233  0.1018
  814YOPS   D2A10906   9.617   3.697   7.222  0.0852 -0.0923 -0.1186
  814YOPS   C3A10907   9.415   3.663   7.672  0.0655  0.0701 -0.0254
  814YOPS   C4A10908   9.633   3.932   7.999 -0.5011  0.1382  0.4619
  814YOPS   C1B10909  10.164   3.902   6.683  0.0859 -0.0794 -0.2729
  814YOPS   C2B10910  10.226   3.865   7.054 -0.0880  0.2560  0.3257
  814YOPS   D3B10911  10.185   3.768   7.469 -0.2062 -0.2717 -0.3722
  814YOPS   C4B10912  10.097   4.079   7.763 -0.2127  0.0066  0.1095
  815YOPS   CNO10913  15.734   8.216   5.487  0.1023  0.0512 -0.2806
  815YOPS   PO410914  15.786   7.872   5.693  0.0770 -0.1857 -0.1361
  815YOPS   GL110915  15.767   7.859   6.142  0.2976  0.0678 -0.1016
  815YOPS   GL210916  16.093   7.815   6.327 -0.0176 -0.1228  0.4529
  815YOPS   C1A10917  15.649   7.534   6.448  0.0146 -0.0197 -0.3386
  815YOPS   D2A10918  15.851   7.516   6.844 -0.1610  0.0056 -0.0281
  815YOPS   C3A10919  15.984   7.260   7.228 -0.2580 -0.1072 -0.0928
  815YOPS   C4A10920  16.186   7.529   7.569 -0.2358  0.1462 -0.3408
  815YOPS   C1B10921  16.037   7.923   6.639  0.3292 -0.2935 -0.2184
  815YOPS   C2B10922  16.151   7.934   7.065  0.2053 -0.1946  0.1727
  815YOPS   D3B10923  16.266   8.142   7.432 -0.0741 -0.0510  0.3187
  815YOPS   C4B10924  16.116   8.000   7.826 -0.0782  0.1696 -0.0920
  816YOPS   CNO10925  12.791   7.040   5.880 -0.4114  0.0170 -0.1254
  816YOPS   PO410926  12.632   6.724   6.114 -0.1284  0.0576  0.1804
  816YOPS   GL110927  12.800   6.558   6.406  0.1555  0.3000 -0.0470
  816YOPS   GL210928  13.048   6.818   6.543 -0.0074  0.0136 -0.2060
  816YOPS   C1A10929  13.011   6.302   6.596 -0.1274  0.2502  0.1120
  816YOPS   D2A10930  13.132   6.390   6.978  0.0726 -0.2223  0.0641
  816YOPS   C3A10931  12.931   6.472   7.366  0.1099  0.0325  0.0463
  816YOPS   C4A10932  12.863   6.711   7.742  0.0986  0.2600 -0.2924
  816YOPS   C1B10933  12.807   6.872   6.932 -0.1557  0.1596  0.0491
  816YOPS   C2B10934  12.619   6.941   7.377  0.2422 -0.1228  0.0362
  816YOPS   D3B10935  12.604   7.280   7.694 -0.1970  0.4320  0.0139
  816YOPS   C4B10936  12.357   7.646   7.565 -0.0063  0.5266 -0.0087
  817YOPS   CNO10937  18.109  11.669   5.321  0.0122  0.3469  0.3359
  817YOPS   PO410938  18.074  11.407   5.552 -0.1477  0.2120 -0.0736
  817YOPS   GL110939  18.312  11.218   6.000  0.2673  0.2878  0.1708
  817YOPS   GL210940  18.568  10.946   5.956  0.0069 -0.0080  0.1430
  817YOPS   C1A10941  18.187  11.392   6.376  0.1013  0.2600  0.2442
  817YOPS   D2A10942  18.427  11.539   6.805  0.1111 -0.0163 -0.1647
  817YOPS   C3A10943  18.632  11.614   7.126 -0.0171 -0.0422 -0.0569
  817YOPS   C4A10944  19.044  11.685   7.087 -0.0336 -0.0297 -0.2725
  817YOPS   C1B10945  18.510  11.036   6.438  0.1286 -0.0769  0.0587
  817YOPS   C2B10946  18.357  11.059   6.832 -0.2114 -0.0032  0.3030
  817YOPS   D3B10947  18.424  10.796   7.252  0.2283 -0.2871  0.2587
  817YOPS   C4B10948  18.669  10.773   7.665  0.0706  0.0843  0.2595
  818YOPS   CNO10949   5.420   4.761   5.862  0.0475 -0.0111  0.2068
  818YOPS   PO410950   5.759   5.133   5.778  0.1774 -0.4450 -0.0683
  818YOPS   GL110951   5.931   5.091   6.167  0.0766 -0.1724 -0.0540
  818YOPS   GL210952   5.762   4.885   6.291 -0.1626 -0.0130 -0.0406
  818YOPS   C1A10953   6.185   5.058   6.544 -0.2383  0.1130 -0.1599
  818YOPS   D2A10954   6.223   5.272   6.907  0.2347  0.1132  0.3391
  818YOPS   C3A10955   6.189   5.159   7.314 -0.1759 -0.4934  0.1044
  818YOPS   C4A10956   5.891   5.054   7.538  0.3044 -0.4420 -0.0423
  818YOPS   C1B10957   5.760   4.914   6.708  0.1004 -0.0824 -0.1773
  818YOPS   C2B10958   5.835   4.830   7.056  0.3747  0.0127 -0.3083
  818YOPS   D3B10959   6.138   4.655   7.353 -0.0425 -0.1382 -0.2014
  818YOPS   C4B10960   6.443   4.491   7.365 -0.0441 -0.1416 -0.0959
  819YOPS   CNO10961   6.145   4.301   5.549 -0.2499  0.3691  0.3980
  819YOPS   PO410962   6.520   4.458   5.824  0.0728  0.1322 -0.2426
  819YOPS   GL110963   6.389   4.192   6.107  0.2521 -0.1537 -0.1525
  819YOPS   GL210964   6.098   4.215   6.117  0.1227  0.2017 -0.0698
  819YOPS   C1A10965   6.543   4.247   6.520  0.1561 -0.1539  0.0430
  819YOPS   D2A10966   6.619   4.331   6.986  0.0717  0.0964  0.0716
  819YOPS   C3A10967   6.627   4.012   7.362  0.0854 -0.1928  0.0730
  819YOPS   C4A10968   6.918   3.809   7.542  0.1881  0.0799  0.0021
  819YOPS   C1B10969   6.018   4.258   6.495  0.2033  0.0371  0.1866
  819YOPS   C2B10970   5.719   4.367   6.872 -0.1671  0.0758 -0.2500
  819YOPS   D3B10971   5.667   4.384   7.320  0.1072  0.3169  0.1223
  819YOPS   C4B10972   5.488   4.805   7.467 -0.0741 -0.0790 -0.1915
  820YOPS   CNO10973  10.862   3.573   5.572 -0.2087  0.1397  0.3905
  820YOPS   PO410974  10.966   3.349   5.923 -0.1813  0.1045 -0.1105
  820YOPS   GL110975  10.957   3.468   6.378  0.1463  0.0611  0.0440
  820YOPS   GL210976  10.985   3.346   6.716 -0.2132  0.1674 -0.1920
  820YOPS   C1A10977  11.111   3.798   6.705 -0.4445 -0.1512  0.1067
  820YOPS   D2A10978  11.146   4.202   6.893  0.0887 -0.3245 -0.0127
  820YOPS   C3A10979  10.888   4.475   7.217  0.1831  0.3055  0.0872
  820YOPS   C4A10980  11.013   4.589   7.630 -0.1955  0.3805 -0.2150
  820YOPS   C1B10981  11.058   3.641   7.128  0.0205  0.3349  0.0701
  820YOPS   C2B10982  11.095   4.035   7.376  0.3279 -0.1269  0.1437
  820YOPS   D3B10983  11.178   4.149   7.827  0.1428  0.2396  0.4019
  820YOPS   C4B10984  11.544   4.392   7.715  0.0851 -0.1551 -0.3739
  821YOPS   CNO10985  16.843  10.162   5.882 -0.1164  0.0442 -0.2261
  821YOPS   PO410986  17.194   9.867   5.877  0.1201  0.0699 -0.3705
  821YOPS   GL110987  17.040   9.809   6.294 -0.2964 -0.1736  0.1934
  821YOPS   GL210988  16.918  10.157   6.383  0.2130  0.0241 -0.0356
  821YOPS   C1A10989  17.184   9.569   6.630  0.4781  0.1315 -0.1761
  821YOPS   D2A10990  17.395   9.382   7.029 -0.2195  0.0709 -0.0010
  821YOPS   C3A10991  17.463   9.546   7.557 -0.3170  0.1236 -0.1339
  821YOPS   C4A10992  17.840   9.594   7.888 -0.1071  0.3613 -0.0867
  821YOPS   C1B10993  17.158  10.025   6.753  0.1927  0.0497  0.2824
  821YOPS   C2B10994  17.194   9.838   7.164 -0.0366  0.0817 -0.0871
  821YOPS   D3B10995  17.096   9.843   7.606  0.1928 -0.1345 -0.1625
  821YOPS   C4B10996  16.836   9.658   7.936 -0.0821 -0.2121  0.0960
  822YOPS   CNO10997  16.204   0.975   5.958  0.0464  0.1775 -0.1479
  822YOPS   PO410998  16.413   0.908   6.279  0.0533 -0.2450  0.1436
  822YOPS   GL110999  16.513   1.007   6.660  0.2418  0.1151  0.2259
  822YOPS   GL211000  16.809   1.096   6.730  0.1166  0.2047 -0.0761
  822YOPS   C1A11001  16.436   1.043   7.201  0.1824 -0.5928  0.0387
  822YOPS   D2A11002  16.498   1.136   7.592  0.0690 -0.1747  0.1943
  822YOPS   C3A11003  16.737   1.439   7.652  0.0436 -0.0243 -0.2423
  822YOPS   C4A11004  16.503   1.629   7.891 -0.2236  0.1449 -0.0621
  822YOPS   C1B11005  16.987   1.015   7.085  0.1893 -0.0034 -0.0478
  822YOPS   C2B11006  16.987   0.941   7.546 -0.1877 -0.1547 -0.2291
  822YOPS   D3B11007  16.810   0.970   7.976  0.1054 -0.1506  0.4234
  822YOPS   C4B11008  16.437   1.128   8.075 -0.1793  0.0757 -0.1850
  823YOPS   CNO11009  12.666   0.016   5.788  0.3509 -0.2108  0.1596
  823YOPS   PO411010  12.873   0.360   5.817  0.2582  0.1404  0.1868
  823YOPS   GL111011  13.151   0.215   6.215  0.3003 -0.0962  0.0153
  823YOPS   GL211012  13.308   0.515   6.236 -0.0172 -0.2337 -0.0002
  823YOPS   C1A11013  13.257   0.250   6.645 -0.1880  0.2459  0.0059
  823YOPS   D2A11014  13.201   0.151   7.106  0.2597 -0.4082 -0.2578
  823YOPS   C3A11015  13.001   0.129   7.547  0.1119  0.0908  0.0704
  823YOPS   C4A11016  13.268   0.135   7.870 -0.2042  0.0322  0.0161
  823YOPS   C1B11017  13.415   0.741   6.556 -0.1206  0.0261  0.2438
  823YOPS   C2B11018  13.386   0.728   7.030  0.2448  0.2262 -0.1515
  823YOPS   D3B11019  13.255   0.565   7.362  0.0771  0.0859 -0.0733
  823YOPS   C4B11020  13.544   0.300   7.450  0.1742  0.0630 -0.0982
  824YOPS   CNO11021   2.369  15.591   5.843 -0.4779 -0.1439 -0.1225
  824YOPS   PO411022   2.248  16.029   5.773  0.2674 -0.0775 -0.0499
  824YOPS   GL111023   2.219  15.966   6.253  0.1143 -0.1163  0.3179
  824YOPS   GL211024   2.218  16.266   6.398 -0.3347  0.1664 -0.0067
  824YOPS   C1A11025   2.260  15.881   6.694  0.1242 -0.0765 -0.2924
  824YOPS   D2A11026   2.137  15.858   7.106  0.1570 -0.2624 -0.2692
  824YOPS   C3A11027   1.994  15.908   7.450 -0.2890  0.3681 -0.0160
  824YOPS   C4A11028   1.914  15.562   7.730 -0.0160 -0.2663  0.0163
  824YOPS   C1B11029   2.127  16.480   6.730  0.0292  0.3527  0.1579
  824YOPS   C2B11030   1.954  16.605   7.149 -0.4096  0.0911  0.0040
  824YOPS   D3B11031   2.099  16.421   7.311  0.1711 -0.1571  0.0584
  824YOPS   C4B11032   2.462  16.099   7.497  0.1539 -0.2238  0.0860
  825YOPS   CNO11033   9.135   9.933   5.502  0.2297  0.1637 -0.2418
  825YOPS   PO411034   9.414   9.916   5.948 -0.3174 -0.1770  0.4839
  825YOPS   GL111035   9.208   9.925   6.326  0.2050 -0.1579 -0.2576
  825YOPS   GL211036   8.865  10.138   6.425 -0.1165 -0.1046  0.0145
  825YOPS   C1A11037   9.080   9.940   6.807 -0.3745 -0.3615  0.1861
  825YOPS   D2A11038   8.840  10.214   7.041 -0.2209  0.0078  0.1671
  825YOPS   C3A11039   8.719  10.334   7.340  0.2124 -0.1994  0.0383
  825YOPS   C4A11040   8.878  10.582   7.660  0.0515 -0.0777 -0.0989
  825YOPS   C1B11041   8.375   9.890   6.545  0.0740  0.2706 -0.1001
  825YOPS   C2B11042   8.183   9.486   6.654  0.1047 -0.1289 -0.2634
  825YOPS   D3B11043   7.990   9.137   6.796 -0.1582  0.1455 -0.1541
  825YOPS   C4B11044   7.954   8.925   7.195  0.1162  0.1680 -0.1832
  826YOPS   CNO11045   4.804  15.405   5.996  0.3014 -0.4154  0.3523
  826YOPS   PO411046   5.085  15.079   6.086  0.0698 -0.1372 -0.0128
  826YOPS   GL111047   4.816  14.897   6.380 -0.6222 -0.3414  0.1268
  826YOPS   GL211048   4.961  14.506   6.375 -0.0901  0.2036 -0.0132
  826YOPS   C1A11049   4.696  14.729   6.778  0.0320 -0.0447 -0.3164
  826YOPS   D2A11050   4.475  14.598   7.144  0.1372  0.0666 -0.1999
  826YOPS   C3A11051   4.362  14.986   7.452 -0.2014  0.3685  0.0789
  826YOPS   C4A11052   4.290  14.759   7.798 -0.0426  0.2351  0.1089
  826YOPS   C1B11053   5.189  14.628   6.684  0.1086  0.1451  0.2898
  826YOPS   C2B11054   5.195  14.744   7.035 -0.1868 -0.2663 -0.0476
  826YOPS   D3B11055   5.278  15.209   7.267 -0.0133  0.2751 -0.1118
  826YOPS   C4B11056   5.436  15.544   7.527  0.1298 -0.0022 -0.0415
  827YOPS   CNO11057   0.351  15.674   5.665 -0.1129  0.0518 -0.0195
  827YOPS   PO411058   0.326  15.848   6.087  0.0356 -0.2047 -0.3017
  827YOPS   GL111059   0.132  15.979   6.449 -0.0320  0.0045 -0.0432
  827YOPS   GL211060  -0.084  16.245   6.368  0.1012  0.3586 -0.1275
  827YOPS   C1A11061   0.127  16.159   6.802  0.0032  0.0538 -0.3752
  827YOPS   D2A11062  -0.058  16.162   7.134 -0.0351 -0.1652  0.0021
  827YOPS   C3A11063  -0.007  16.085   7.565  0.2843 -0.0716  0.2928
  827YOPS   C4A11064   0.491  16.166   7.660  0.0137 -0.3347  0.0643
  827YOPS   C1B11065  -0.378  16.076   6.664  0.0069  0.0180 -0.0902
  827YOPS   C2B11066  -0.459  15.817   7.070 -0.3030 -0.1239 -0.1538
  827YOPS   D3B11067  -0.776  15.723   7.216 -0.2832  0.3200 -0.0100
  827YOPS   C4B11068  -1.169  15.938   7.041  0.2236  0.0577 -0.1507
  828YOPS   CNO11069   5.867  12.364   5.497 -0.1302  0.0584 -0.5003
  828YOPS   PO411070   6.137  12.048   5.709  0.3750 -0.3125 -0.4061
  828YOPS   GL111071   6.224  11.777   6.042 -0.0823 -0.3049 -0.1677
  828YOPS   GL211072   6.007  11.588   6.206  0.2222  0.3170 -0.0392
  828YOPS   C1A11073   6.494  11.649   6.378  0.4278  0.1470  0.2086
  828YOPS   D2A11074   6.737  11.736   6.673 -0.0683  0.0101 -0.2979
  828YOPS   C3A11075   6.920  12.093   6.790 -0.2327 -0.1440 -0.1580
  828YOPS   C4A11076   7.377  12.138   6.621  0.3444 -0.1043 -0.3401
  828YOPS   C1B11077   5.790  11.626   6.525 -0.0691 -0.0966 -0.1222
  828YOPS   C2B11078   5.770  11.681   6.973  0.0134  0.2490 -0.0436
  828YOPS   D3B11079   5.644  11.618   7.354  0.0203  0.4742 -0.0274
  828YOPS   C4B11080   5.567  11.213   7.413  0.0230  0.1945 -0.0992
  829YOPS   CNO11081  14.847   5.890   5.914 -0.2849  0.0722  0.2165
  829YOPS   PO411082  14.476   6.084   5.758  0.0923  0.1256 -0.2612
  829YOPS   GL111083  14.527   6.128   6.260  0.0975 -0.1353  0.0000
  829YOPS   GL211084  14.804   6.235   6.403  0.0328  0.2316  0.1210
  829YOPS   C1A11085  14.423   6.021   6.677  0.1444  0.0563 -0.2046
  829YOPS   D2A11086  14.411   5.928   7.084 -0.0945 -0.0394 -0.1156
  829YOPS   C3A11087  14.437   5.686   7.527  0.2146 -0.2223 -0.2814
  829YOPS   C4A11088  14.352   5.650   7.945 -0.0511  0.0465 -0.2169
  829YOPS   C1B11089  14.696   6.503   6.702  0.0585  0.1013  0.0638
  829YOPS   C2B11090  14.789   6.402   7.141 -0.2550  0.2111  0.0043
  829YOPS   D3B11091  15.172   6.371   7.359  0.1312 -0.3833 -0.0677
  829YOPS   C4B11092  15.137   6.260   7.777  0.2806 -0.0395  0.1306
  830YOPS   CNO11093   4.823   3.107   5.382 -0.1367 -0.0467 -0.2830
  830YOPS   PO411094   4.697   3.048   5.821  0.2377 -0.3508 -0.2818
  830YOPS   GL111095   4.892   3.141   6.293 -0.1262  0.3646 -0.0098
  830YOPS   GL211096   4.697   2.878   6.433  0.0756 -0.4210  0.1567
  830YOPS   C1A11097   5.144   3.084   6.723  0.0881 -0.3022 -0.0112
  830YOPS   D2A11098   5.127   3.054   7.124 -0.0483 -0.0616  0.0296
  830YOPS   C3A11099   5.309   3.056   7.485  0.0652  0.1204 -0.2938
  830YOPS   C4A11100   5.015   2.834   7.748 -0.0597  0.1968  0.2005
  830YOPS   C1B11101   4.458   2.573   6.731  0.0358  0.0210  0.2038
  830YOPS   C2B11102   4.262   2.533   7.098  0.3670 -0.3781  0.0653
  830YOPS   D3B11103   4.353   2.664   7.456 -0.2069 -0.0454  0.1230
  830YOPS   C4B11104   4.639   2.355   7.690 -0.4752 -0.2474 -0.3223
  831YOPS   CNO11105   9.180  16.072   5.664 -0.1334 -0.3449 -0.1712
  831YOPS   PO411106   9.652  16.225   5.679 -0.2127 -0.1495 -0.1690
  831YOPS   GL111107   9.803  15.920   5.943 -0.0062 -0.1107 -0.2529
  831YOPS   GL211108   9.507  15.816   5.930  0.2666 -0.0708 -0.1060
  831YOPS   C1A11109  10.036  15.721   6.125 -0.0753  0.3872  0.1101
  831YOPS   D2A11110  10.392  15.440   6.079 -0.1614  0.0381 -0.1958
  831YOPS   C3A11111  10.785  15.446   5.926  0.1092  0.0063 -0.0170
  831YOPS   C4A11112  10.962  14.971   5.917 -0.2176 -0.2051  0.1176
  831YOPS   C1B11113   9.174  15.698   6.303  0.0218  0.3049  0.4263
  831YOPS   C2B11114   9.122  15.700   6.788 -0.0891 -0.0804 -0.0835
  831YOPS   D3B11115   9.371  15.512   7.084  0.2294 -0.0957 -0.0029
  831YOPS   C4B11116   9.263  15.729   7.470 -0.2913  0.0118 -0.1152
  832YOPS   CNO11117   6.668  12.974   5.735  0.2097 -0.1656  0.0119
  832YOPS   PO411118   6.435  12.598   5.746 -0.1226 -0.0629 -0.0217
  832YOPS   GL111119   6.482  12.743   6.155  0.0781 -0.0327 -0.1062
  832YOPS   GL211120   6.204  12.944   6.114 -0.0598 -0.2224 -0.3957
  832YOPS   C1A11121   6.711  12.922   6.490  0.1324 -0.0830  0.0426
  832YOPS   D2A11122   6.881  13.022   6.857  0.2104 -0.0144 -0.1370
  832YOPS   C3A11123   6.876  13.290   7.235 -0.1920  0.2017 -0.0371
  832YOPS   C4A11124   7.196  13.117   7.628 -0.2956  0.2543 -0.0907
  832YOPS   C1B11125   6.251  12.912   6.600  0.3183 -0.0172 -0.0993
  832YOPS   C2B11126   6.416  13.006   7.053 -0.0304  0.4639  0.3375
  832YOPS   D3B11127   6.631  12.873   7.305 -0.1889 -0.0482 -0.0158
  832YOPS   C4B11128   7.064  12.735   7.318 -0.0330 -0.0070  0.0998
  833YOPS   CNO11129   1.552  13.385   5.363 -0.1615 -0.3618 -0.2160
  833YOPS   PO411130   1.211  13.703   5.594 -0.1356 -0.2060  0.0246
  833YOPS   GL111131   1.396  14.010   5.931 -0.2543  0.2817 -0.1048
  833YOPS   GL211132   1.743  13.927   6.157  0.3142 -0.3268 -0.0425
  833YOPS   C1A11133   1.277  14.057   6.327  0.1465 -0.0337  0.0113
  833YOPS   D2A11134   1.171  13.953   6.747 -0.1095  0.0047 -0.2069
  833YOPS   C3A11135   0.991  14.185   7.145  0.1067 -0.2249 -0.1932
  833YOPS   C4A11136   1.215  14.295   7.596  0.1995  0.1378  0.0590
  833YOPS   C1B11137   1.691  13.962   6.554 -0.0400  0.4149 -0.0351
  833YOPS   C2B11138   1.675  13.938   6.987  0.0092  0.2300 -0.1765
  833YOPS   D3B11139   1.380  13.855   7.332 -0.3366  0.1114 -0.0776
  833YOPS   C4B11140   1.417  13.538   7.664  0.0049  0.1722 -0.3140
  834YOPS   CNO11141  17.147  18.182   6.229  0.0125  0.3384 -0.1605
  834YOPS   PO411142  17.494  18.407   6.243  0.1745  0.1492 -0.0849
  834YOPS   GL111143  17.401  18.402   6.555  0.1065 -0.0031  0.1268
  834YOPS   GL211144  17.023  18.426   6.648  0.1895 -0.0621  0.3510
  834YOPS   C1A11145  17.389  18.464   6.985  0.0077 -0.0719 -0.1587
  834YOPS   D2A11146  17.545  18.289   7.369  0.1880 -0.1051 -0.0557
  834YOPS   C3A11147  17.825  18.188   7.660  0.0569 -0.2246  0.4164
  834YOPS   C4A11148  18.118  17.865   7.547 -0.1466 -0.0323  0.1397
  834YOPS   C1B11149  16.893  18.456   7.093  0.1278  0.0337 -0.0987
  834YOPS   C2B11150  17.076  18.452   7.503 -0.2292  0.1468  0.0550
  834YOPS   D3B11151  17.327  18.363   7.846 -0.2647  0.1510  0.3780
  834YOPS   C4B11152  17.243  18.022   8.014  0.2964 -0.0108 -0.2571
  835YOPS   CNO11153  13.698   9.612   6.065 -0.0142 -0.0099 -0.2791
  835YOPS   PO411154  13.275   9.715   6.201 -0.0743 -0.0595 -0.1692
  835YOPS   GL111155  13.080   9.509   6.572  0.0624 -0.2719  0.0316
  835YOPS   GL211156  13.217   9.248   6.498  0.0036  0.3886  0.3878
  835YOPS   C1A11157  13.000   9.361   6.977  0.0127 -0.1341  0.1935
  835YOPS   D2A11158  12.949   9.273   7.400 -0.2618  0.2165  0.1079
  835YOPS   C3A11159  12.658   9.280   7.670 -0.0409 -0.3471  0.1237
  835YOPS   C4A11160  12.213   9.348   7.560  0.1353 -0.1111 -0.3399
  835YOPS   C1B11161  13.454   9.142   6.975 -0.0476  0.0282  0.0621
  835YOPS   C2B11162  13.507   9.294   7.359 -0.1452 -0.0796 -0.0282
  835YOPS   D3B11163  13.573   9.526   7.740  0.2894  0.1073  0.0475
  835YOPS   C4B11164  13.304   9.521   8.141  0.0025  0.1836 -0.2201
  836YOPS   CNO11165   7.480   1.534   6.036  0.3849 -0.3209  0.3645
  836YOPS   PO411166   7.085   1.655   5.915  0.1036  0.1636  0.1833
  836YOPS   GL111167   6.969   1.886   6.269 -0.1140  0.2189  0.3394
  836YOPS   GL211168   6.585   1.748   6.194  0.2602 -0.0419 -0.1392
  836YOPS   C1A11169   6.797   2.060   6.599 -0.1028  0.1089 -0.1087
  836YOPS   D2A11170   6.579   2.131   6.961 -0.1271 -0.4061  0.1520
  836YOPS   C3A11171   6.491   2.287   7.394  0.4416  0.0359 -0.2914
  836YOPS   C4A11172   6.691   2.354   7.856  0.1038  0.1593 -0.3158
  836YOPS   C1B11173   6.666   1.533   6.603  0.6087  0.0572 -0.0952
  836YOPS   C2B11174   6.527   1.584   7.026 -0.1962 -0.3172 -0.0481
  836YOPS   D3B11175   6.601   1.793   7.404 -0.2017 -0.1718 -0.2494
  836YOPS   C4B11176   7.038   1.842   7.650  0.1463 -0.4034  0.1019
  837YOPS   CNO11177   8.606   3.883   6.140 -0.2230  0.2716 -0.0920
  837YOPS   PO411178   8.941   4.178   6.053  0.0099 -0.0444 -0.0833
  837YOPS   GL111179   8.731   4.299   6.399 -0.1636 -0.7018  0.0672
  837YOPS   GL211180   8.797   3.958   6.578  0.1434 -0.1315  0.0298
  837YOPS   C1A11181   8.495   4.356   6.833 -0.0688 -0.0823  0.0455
  837YOPS   D2A11182   8.474   4.288   7.361  0.1063 -0.2183  0.1017
  837YOPS   C3A11183   8.520   4.571   7.727 -0.0748 -0.1191 -0.1174
  837YOPS   C4A11184   8.753   4.497   8.150  0.0157 -0.0762 -0.1193
  837YOPS   C1B11185   8.753   3.899   7.037  0.2175  0.1032 -0.0876
  837YOPS   C2B11186   8.659   3.588   7.369 -0.0783 -0.1465  0.1214
  837YOPS   D3B11187   8.597   3.123   7.319 -0.0958  0.0392  0.1860
  837YOPS   C4B11188   8.608   2.993   7.793  0.1263  0.0959  0.1454
  838YOPS   CNO11189   9.917   6.411   5.920  0.0647  0.2227 -0.0227
  838YOPS   PO411190  10.338   6.231   6.083 -0.0585  0.1611 -0.0274
  838YOPS   GL111191  10.284   6.522   6.380 -0.2937  0.1946  0.0655
  838YOPS   GL211192   9.923   6.614   6.361  0.0400  0.2873  0.1063
  838YOPS   C1A11193  10.206   6.441   6.829 -0.0237 -0.2514  0.2314
  838YOPS   D2A11194  10.341   6.652   7.328 -0.3027 -0.0627 -0.2787
  838YOPS   C3A11195  10.409   6.675   7.797 -0.0354  0.2144  0.1124
  838YOPS   C4A11196  10.047   6.555   8.032 -0.2935  0.1993  0.1384
  838YOPS   C1B11197   9.839   6.901   6.681  0.2455 -0.3241 -0.0099
  838YOPS   C2B11198   9.995   6.919   7.112  0.1092  0.2041 -0.1228
  838YOPS   D3B11199   9.852   6.743   7.529  0.0716 -0.3070 -0.0039
  838YOPS   C4B11200   9.601   6.915   7.814 -0.0486 -0.1889 -0.2684
  839YOPS   CNO11201   9.956  13.906   5.352  0.0770 -0.2612 -0.4392
  839YOPS   PO411202  10.050  13.514   5.387  0.0546 -0.0733  0.1081
  839YOPS   GL111203  10.260  13.585   5.783  0.0564  0.3270  0.0376
  839YOPS   GL211204  10.046  13.779   5.903  0.1822 -0.0940 -0.0414
  839YOPS   C1A11205  10.504  13.700   6.099  0.0418 -0.0904 -0.0395
  839YOPS   D2A11206  10.592  13.729   6.519  0.1551  0.0087  0.1119
  839YOPS   C3A11207  10.783  13.687   6.959 -0.1672  0.0975 -0.1511
  839YOPS   C4A11208  11.092  13.996   7.158  0.4892  0.1090 -0.5710
  839YOPS   C1B11209  10.101  13.514   6.319 -0.2141  0.2108 -0.3273
  839YOPS   C2B11210   9.983  13.090   6.409 -0.2903 -0.1002 -0.3517
  839YOPS   D3B11211   9.799  12.865   6.769  0.0045  0.2273  0.0590
  839YOPS   C4B11212  10.000  12.457   6.754 -0.1095 -0.1267 -0.0727
  840YOPS   CNO11213  14.818  17.603   6.060  0.0922  0.1204  0.0189
  840YOPS   PO411214  14.484  17.897   6.210  0.1053 -0.1989  0.1092
  840YOPS   GL111215  14.552  17.699   6.560 -0.2909  0.1632  0.2881
  840YOPS   GL211216  14.343  17.455   6.694 -0.0869 -0.4779  0.6821
  840YOPS   C1A11217  14.733  17.593   7.000  0.2968  0.1240 -0.2053
  840YOPS   D2A11218  14.660  17.535   7.484  0.0763 -0.1818 -0.1675
  840YOPS   C3A11219  15.041  17.660   7.765 -0.1407  0.2257  0.1116
  840YOPS   C4A11220  15.224  18.026   7.881  0.0914  0.1148  0.3119
  840YOPS   C1B11221  14.291  17.536   7.181 -0.0895  0.2049  0.0720
  840YOPS   C2B11222  14.122  17.726   7.490 -0.4442 -0.0408 -0.0356
  840YOPS   D3B11223  14.162  18.037   7.782  0.2981  0.3012 -0.0426
  840YOPS   C4B11224  14.364  18.416   7.836  0.2897  0.2856 -0.1754
  841YOPS   CNO11225  11.453  15.025   5.396  0.2030  0.0202  0.2738
  841YOPS   PO411226  11.631  14.704   5.742  0.0278  0.0796  0.1420
  841YOPS   GL111227  11.667  14.599   6.118  0.0856 -0.1605 -0.0167
  841YOPS   GL211228  11.642  14.916   6.191 -0.0474 -0.0114 -0.2147
  841YOPS   C1A11229  11.681  14.600   6.607 -0.1924 -0.1293  0.0666
  841YOPS   D2A11230  11.521  14.985   6.864 -0.0587 -0.0608 -0.0985
  841YOPS   C3A11231  11.200  14.934   7.252 -0.2937 -0.0358 -0.0483
  841YOPS   C4A11232  11.275  14.652   7.568 -0.1650  0.1182  0.0992
  841YOPS   C1B11233  11.370  15.229   6.041  0.0731  0.0616  0.2160
  841YOPS   C2B11234  11.227  15.646   6.255 -0.0595 -0.1336 -0.2551
  841YOPS   D3B11235  10.780  15.711   6.347  0.2597  0.0645 -0.0595
  841YOPS   C4B11236  10.728  15.541   6.692  0.2024  0.0174  0.0814
  842POPE   NH311237   7.453  15.615   5.508  0.0384 -0.1269  0.0825
  842POPE   PO411238   7.886  15.717   5.323 -0.0183 -0.2753 -0.3636
  842POPE   GL111239   7.797  15.786   5.819  0.2904 -0.2473 -0.3603
  842POPE   GL211240   7.509  16.054   5.830 -0.1559 -0.1747 -0.0300
  842POPE   C1A11241   8.002  15.724   6.279  0.0725 -0.4339  0.4215
  842POPE   D2A11242   8.149  15.552   6.639 -0.1230  0.0919  0.1170
  842POPE   C3A11243   8.118  15.685   7.068  0.5311  0.3440 -0.1327
  842POPE   C4A11244   8.086  15.956   7.335 -0.1309 -0.0277 -0.0761
  842POPE   C1B11245   7.334  16.458   5.978  0.0940  0.1951 -0.0734
  842POPE   C2B11246   7.042  16.649   6.188 -0.2625 -0.4886 -0.0979
  842POPE   C3B11247   6.923  16.869   6.569  0.4170  0.2006  0.0749
  842POPE   C4B11248   7.045  17.070   6.967 -0.1889  0.0271  0.1464
  843POPE   NH311249   3.594   3.450   6.025 -0.0768 -0.2733  0.0957
  843POPE   PO411250   4.068   3.497   5.923 -0.1490 -0.1740  0.1014
  843POPE   GL111251   4.050   3.713   6.267  0.1459  0.3413 -0.1314
  843POPE   GL211252   3.919   4.099   6.335 -0.1822 -0.1175  0.1650
  843POPE   C1A11253   4.122   3.621   6.618  0.0636 -0.2173 -0.2131
  843POPE   D2A11254   4.315   3.588   7.020  0.0809 -0.0285 -0.1670
  843POPE   C3A11255   4.327   3.657   7.478 -0.0437  0.0313  0.0732
  843POPE   C4A11256   4.525   3.544   7.891  0.2131 -0.0943  0.2084
  843POPE   C1B11257   3.779   3.962   6.669  0.0558 -0.1619  0.1792
  843POPE   C2B11258   3.767   3.896   7.041  0.0398 -0.0791  0.1272
  843POPE   C3B11259   3.938   3.965   7.418  0.1825 -0.1451 -0.1308
  843POPE   C4B11260   3.856   4.064   7.809  0.0236 -0.4466  0.1036
  844POPE   NH311261  11.430   9.058   6.069 -0.1190  0.0913  0.0563
  844POPE   PO411262  11.266   9.358   6.084 -0.1189  0.0371  0.1839
  844POPE   GL111263  10.961   9.284   6.315  0.1114  0.2310 -0.0203
  844POPE   GL211264  11.041   9.026   6.498 -0.0875  0.4583 -0.3078
  844POPE   C1A11265  10.707   9.294   6.831 -0.4006  0.3711 -0.1194
  844POPE   D2A11266  10.615   9.274   7.334  0.1393  0.0713 -0.0566
  844POPE   C3A11267  10.197   9.135   7.545  0.1202  0.0498 -0.0310
  844POPE   C4A11268   9.885   8.848   7.399  0.2514 -0.1290  0.0406
  844POPE   C1B11269  11.292   9.169   6.871  0.2108 -0.0018 -0.1324
  844POPE   C2B11270  11.262   9.360   7.266  0.0784 -0.1913 -0.0112
  844POPE   C3B11271  11.044   9.491   7.546 -0.0480  0.0014  0.0267
  844POPE   C4B11272  10.938   9.658   7.891 -0.2017 -0.0260 -0.2701
  845POPE   NH311273  14.720   3.277   5.866 -0.0201  0.0079 -0.1294
  845POPE   PO411274  15.064   3.184   6.024  0.1153 -0.1064  0.0808
  845POPE   GL111275  15.251   3.079   6.338  0.1540 -0.0752  0.2218
  845POPE   GL211276  15.590   2.865   6.440 -0.2780 -0.3480  0.1377
  845POPE   C1A11277  15.138   3.381   6.643 -0.0875  0.2866 -0.1219
  845POPE   D2A11278  15.082   3.654   6.979  0.3864  0.3129  0.0267
  845POPE   C3A11279  15.328   3.650   7.441 -0.1176  0.0035  0.1026
  845POPE   C4A11280  15.401   3.553   7.907  0.3894  0.0976  0.2120
  845POPE   C1B11281  15.953   2.669   6.825  0.2222 -0.3495 -0.0842
  845POPE   C2B11282  16.228   2.384   6.934 -0.2430  0.0411  0.0631
  845POPE   C3B11283  16.364   2.590   7.356 -0.0528  0.4694  0.3172
  845POPE   C4B11284  16.648   2.643   7.627  0.4408 -0.1090 -0.1921
  846POPE   NH311285   2.573  14.606   5.663 -0.0928 -0.2183  0.1182
  846POPE   PO411286   2.151  14.693   5.751  0.0579 -0.3807 -0.0183
  846POPE   GL111287   2.021  14.678   6.145  0.0606  0.0458  0.1128
  846POPE   GL211288   2.187  14.720   6.372 -0.1605 -0.2724  0.0446
  846POPE   C1A11289   1.621  14.555   6.380 -0.1312 -0.3978 -0.0074
  846POPE   D2A11290   1.364  14.399   6.686  0.1057 -0.0755 -0.2878
  846POPE   C3A11291   1.487  14.354   7.128  0.1583  0.2929 -0.1653
  846POPE   C4A11292   1.679  14.184   7.460 -0.2913 -0.1577  0.1786
  846POPE   C1B11293   2.185  14.946   6.735 -0.0390  0.0593 -0.4173
  846POPE   C2B11294   2.244  15.205   7.109  0.1825 -0.0538  0.0417
  846POPE   C3B11295   2.379  15.492   7.449 -0.0158 -0.0333  0.0603
  846POPE   C4B11296   2.828  15.678   7.570  0.1128 -0.0821 -0.0908
  847POPE   NH311297   5.061  12.803   5.728 -0.4086 -0.1916  0.0087
  847POPE   PO411298   4.648  12.695   5.875  0.0745 -0.0091 -0.0923
  847POPE   GL111299   4.525  12.480   6.313  0.1074  0.0520 -0.2095
  847POPE   GL211300   4.824  12.651   6.451 -0.0324  0.0540  0.2711
  847POPE   C1A11301   4.514  11.983   6.400  0.1053 -0.3711 -0.0911
  847POPE   D2A11302   4.411  11.588   6.486  0.3266  0.2510 -0.0650
  847POPE   C3A11303   4.209  11.302   6.783  0.0577  0.1602  0.0017
  847POPE   C4A11304   3.812  11.359   7.032  0.1803  0.0913  0.4311
  847POPE   C1B11305   4.656  12.666   6.797  0.0379 -0.0769 -0.0601
  847POPE   C2B11306   4.389  12.555   7.234 -0.0777  0.1177  0.0113
  847POPE   C3B11307   4.277  12.124   7.265 -0.1194  0.3648 -0.0359
  847POPE   C4B11308   4.220  11.631   7.232 -0.1835 -0.2575  0.0479
  848POPE   NH311309  12.457   0.700   6.091  0.1240 -0.3043 -0.1941
  848POPE   PO411310  12.801   0.693   6.162 -0.1681 -0.1996 -0.1574
  848POPE   GL111311  12.928   0.915   6.375 -0.2209  0.0095  0.1916
  848POPE   GL211312  12.744   1.191   6.366  0.0468  0.2004 -0.0665
  848POPE   C1A11313  12.961   0.902   6.767  0.2326 -0.0275  0.3037
  848POPE   D2A11314  12.913   0.969   7.246 -0.2982 -0.1524  0.0076
  848POPE   C3A11315  13.168   0.996   7.640  0.4168 -0.1405  0.0317
  848POPE   C4A11316  13.227   1.066   8.088 -0.2072  0.0615  0.2586
  848POPE   C1B11317  12.863   1.413   6.716  0.1752 -0.1745 -0.0205
  848POPE   C2B11318  12.995   1.525   7.095 -0.2524 -0.0628  0.0563
  848POPE   C3B11319  12.974   1.460   7.519 -0.0890  0.0311  0.1024
  848POPE   C4B11320  13.137   1.566   7.961  0.0837 -0.0487  0.3521
  849POPE   NH311321  14.979   8.500   6.127  0.1944 -0.1003 -0.2636
  849POPE   PO411322  14.963   8.061   5.915 -0.0695 -0.3212  0.1836
  849POPE   GL111323  15.165   8.019   6.260  0.2435 -0.1543 -0.2204
  849POPE   GL211324  14.883   8.022   6.407  0.1887 -0.0906 -0.3054
  849POPE   C1A11325  15.429   7.962   6.527  0.0044 -0.0978 -0.0838
  849POPE   D2A11326  15.670   8.229   6.823 -0.1264  0.1159  0.0232
  849POPE   C3A11327  15.522   8.241   7.257  0.0268  0.1243  0.0887
  849POPE   C4A11328  15.241   8.336   7.611 -0.2341  0.0654 -0.3061
  849POPE   C1B11329  14.758   8.087   6.739 -0.1410  0.0205  0.1896
  849POPE   C2B11330  14.453   7.948   7.110 -0.1031 -0.1564 -0.0453
  849POPE   C3B11331  14.204   7.952   7.501 -0.0302  0.1258 -0.1453
  849POPE   C4B11332  13.925   7.773   7.807  0.0341 -0.2630  0.2417
  850POPE   NH311333   4.774   5.661   5.590 -0.1594 -0.1109 -0.0736
  850POPE   PO411334   4.780   5.154   5.510 -0.0739  0.0284  0.0099
  850POPE   GL111335   4.797   5.245   5.962 -0.1374  0.3266  0.0164
  850POPE   GL211336   4.868   5.513   6.110  0.0304  0.1448  0.3161
  850POPE   C1A11337   4.723   5.240   6.486  0.1162 -0.1121  0.1005
  850POPE   D2A11338   4.820   5.454   6.783 -0.0138  0.0149 -0.1820
  850POPE   C3A11339   4.771   5.902   6.920  0.0457 -0.0577 -0.3714
  850POPE   C4A11340   4.636   6.054   7.293  0.0612 -0.0990  0.1030
  850POPE   C1B11341   5.190   5.642   6.494  0.3687 -0.0633 -0.0002
  850POPE   C2B11342   5.331   5.680   6.962  0.0747 -0.1081  0.0608
  850POPE   C3B11343   5.180   5.934   7.308 -0.0227  0.0055  0.0940
  850POPE   C4B11344   5.112   5.968   7.708 -0.0515 -0.1475 -0.0683
  851POPE   NH311345  16.754   0.594   6.472  0.3127 -0.0652  0.0631
  851POPE   PO411346  16.500   0.159   6.483  0.2503  0.1465 -0.0994
  851POPE   GL111347  16.522   0.304   6.837 -0.0205 -0.0481 -0.1462
  851POPE   GL211348  16.653   0.574   6.982 -0.1175  0.1791  0.1095
  851POPE   C1A11349  16.401   0.214   7.232 -0.1139  0.1607  0.2685
  851POPE   D2A11350  16.403   0.087   7.669  0.0082 -0.0359 -0.0169
  851POPE   C3A11351  16.042   0.071   7.901 -0.0942 -0.2036  0.0042
  851POPE   C4A11352  15.752  -0.272   8.148 -0.0084 -0.4035 -0.0784
  851POPE   C1B11353  16.680   0.549   7.497  0.3412  0.1500 -0.0615
  851POPE   C2B11354  16.446   0.674   7.860 -0.0804  0.0103  0.1553
  851POPE   C3B11355  16.169   0.624   8.167  0.1572 -0.2526  0.1320
  851POPE   C4B11356  15.803   0.664   8.453  0.0180  0.1181 -0.0681
  852POPE   NH311357   1.095   4.618   6.023  0.0629 -0.0207 -0.2299
  852POPE   PO411358   1.355   4.248   6.197 -0.1079  0.1498 -0.0680
  852POPE   GL111359   1.511   4.348   6.525  0.2033  0.1472  0.0221
  852POPE   GL211360   1.780   4.296   6.511 -0.0843  0.0888 -0.1975
  852POPE   C1A11361   1.377   4.547   6.858  0.1426 -0.1874 -0.2109
  852POPE   D2A11362   1.212   4.882   7.107  0.0475 -0.1862 -0.2762
  852POPE   C3A11363   1.101   5.350   6.934 -0.2451  0.1418 -0.2047
  852POPE   C4A11364   0.906   5.429   6.491 -0.3377 -0.1220 -0.3115
  852POPE   C1B11365   1.774   4.258   7.018  0.2529 -0.2541  0.4278
  852POPE   C2B11366   1.610   4.041   7.413 -0.0909  0.0921  0.1034
  852POPE   C3B11367   1.437   3.713   7.628  0.1421 -0.0874  0.1528
  852POPE   C4B11368   1.464   3.370   7.933  0.0877 -0.1295  0.0726
  853POPE   NH311369   4.228   2.937   6.053 -0.0235  0.0145 -0.1013
  853POPE   PO411370   3.845   3.037   5.863  0.2315  0.2480  0.2969
  853POPE   GL111371   3.880   3.103   6.350  0.1546  0.2124 -0.1037
  853POPE   GL211372   3.754   3.318   6.489  0.0746 -0.2406 -0.1430
  853POPE   C1A11373   4.080   3.110   6.804  0.1115  0.0473  0.2256
  853POPE   D2A11374   4.216   3.085   7.152 -0.1042  0.0390 -0.0485
  853POPE   C3A11375   4.659   3.230   7.367 -0.0653 -0.1211 -0.0689
  853POPE   C4A11376   4.939   3.416   7.624  0.0778  0.0254  0.0404
  853POPE   C1B11377   3.750   3.426   6.900  0.2403 -0.3861  0.0141
  853POPE   C2B11378   3.927   3.483   7.277 -0.2563  0.1843 -0.0019
  853POPE   C3B11379   4.161   3.214   7.643  0.2393 -0.0231 -0.1837
  853POPE   C4B11380   4.563   3.000   7.844  0.0191 -0.0745 -0.2312
  854POPE   NH311381  12.806   9.909   6.040  0.1602 -0.2119  0.0422
  854POPE   PO411382  12.528   9.608   6.295 -0.0953  0.0676  0.1727
  854POPE   GL111383  12.450   9.684   6.715  0.0770 -0.0943  0.0783
  854POPE   GL211384  12.793   9.828   6.904 -0.1657 -0.4806  0.1346
  854POPE   C1A11385  12.315   9.785   7.036 -0.1316  0.0985 -0.1286
  854POPE   D2A11386  12.387  10.048   7.327  0.0218  0.1381  0.4889
  854POPE   C3A11387  12.730  10.349   7.088 -0.0609  0.2549 -0.1954
  854POPE   C4A11388  12.736  10.697   6.770 -0.1258 -0.0580 -0.1631
  854POPE   C1B11389  13.183  10.051   7.085  0.0159 -0.0999 -0.2263
  854POPE   C2B11390  13.254  10.096   7.568 -0.2106  0.0157  0.1049
  854POPE   C3B11391  13.466  10.005   7.823  0.1535 -0.2615  0.3468
  854POPE   C4B11392  13.705   9.814   8.158 -0.4544  0.2053 -0.0095
  855POPE   NH311393  15.417   9.500   6.052 -0.1168 -0.0299 -0.1492
  855POPE   PO411394  15.406   9.944   6.227 -0.0410  0.1069 -0.1859
  855POPE   GL111395  15.394  10.103   6.664 -0.2455  0.2137  0.2446
  855POPE   GL211396  15.104  10.087   6.830 -0.0310 -0.2647 -0.0236
  855POPE   C1A11397  15.609  10.307   6.932  0.2876 -0.2481 -0.1013
  855POPE   D2A11398  15.717  10.560   7.345  0.4655 -0.0625  0.0759
  855POPE   C3A11399  15.707  10.408   7.759 -0.2241 -0.1438  0.1068
  855POPE   C4A11400  15.560  10.155   8.172  0.2583 -0.1095  0.0700
  855POPE   C1B11401  15.239  10.328   7.274  0.1210  0.1662 -0.1017
  855POPE   C2B11402  15.274  10.169   7.617  0.2768 -0.0486 -0.1988
  855POPE   C3B11403  15.508   9.914   7.725  0.0103 -0.3466  0.1124
  855POPE   C4B11404  15.847   9.721   7.915  0.0664 -0.0915  0.1453
  856POPE   NH311405  16.830   5.761   5.606 -0.1024  0.2675 -0.2074
  856POPE   PO411406  16.530   6.057   5.587  0.5571  0.1406 -0.0241
  856POPE   GL111407  16.309   5.970   5.981 -0.0723 -0.0120 -0.2102
  856POPE   GL211408  16.510   5.639   5.952  0.2077 -0.0174  0.3666
  856POPE   C1A11409  16.392   6.186   6.360 -0.0787  0.1490 -0.1691
  856POPE   D2A11410  16.654   6.389   6.652 -0.4469 -0.1135 -0.0228
  856POPE   C3A11411  16.591   6.314   7.104  0.0870  0.1091  0.0048
  856POPE   C4A11412  16.508   6.007   7.446  0.0635 -0.2802  0.2488
  856POPE   C1B11413  16.921   5.569   6.257  0.0452  0.0889 -0.3653
  856POPE   C2B11414  17.388   5.394   6.180 -0.0125 -0.0517 -0.2184
  856POPE   C3B11415  17.657   5.020   6.078 -0.1216 -0.3644 -0.0437
  856POPE   C4B11416  18.018   4.943   6.185  0.5860 -0.0843  0.0496
  857POPE   NH311417  11.549  12.888   5.508 -0.0011 -0.1663  0.2304
  857POPE   PO411418  11.817  13.173   5.582 -0.0850  0.0476 -0.0126
  857POPE   GL111419  11.953  13.335   5.968  0.0443 -0.0926 -0.3300
  857POPE   GL211420  11.800  13.688   6.033 -0.2143  0.0502  0.2758
  857POPE   C1A11421  12.038  12.991   6.288  0.0200 -0.0058 -0.1796
  857POPE   D2A11422  11.971  12.735   6.665  0.0949 -0.1346  0.1302
  857POPE   C3A11423  11.809  12.785   6.973 -0.1554  0.1043  0.2998
  857POPE   C4A11424  11.713  12.718   7.322 -0.1321 -0.4824 -0.3075
  857POPE   C1B11425  11.824  13.488   6.384 -0.1156 -0.0168 -0.1823
  857POPE   C2B11426  11.680  13.246   6.683  0.0598 -0.1440  0.0686
  857POPE   C3B11427  11.723  13.227   7.239 -0.0106 -0.3470  0.2846
  857POPE   C4B11428  11.749  13.126   7.661 -0.1333 -0.1745 -0.0373
  858POPE   NH311429  16.691   2.715   6.077 -0.2730  0.3322 -0.0571
  858POPE   PO411430  16.294   2.953   6.041 -0.1428  0.5755  0.0495
  858POPE   GL111431  16.435   3.282   6.345 -0.0117 -0.2355  0.0941
  858POPE   GL211432  16.630   3.510   6.366 -0.0652 -0.0549 -0.1331
  858POPE   C1A11433  16.177   3.654   6.567 -0.1306  0.0313  0.3279
  858POPE   D2A11434  16.177   4.017   6.561  0.3107 -0.2933  0.0595
  858POPE   C3A11435  15.998   4.107   6.884  0.0707  0.1536 -0.0740
  858POPE   C4A11436  16.038   4.391   7.234 -0.0064 -0.0014 -0.0204
  858POPE   C1B11437  16.721   3.551   6.771 -0.0819 -0.0360  0.3901
  858POPE   C2B11438  16.822   3.669   7.246  0.3293  0.1305 -0.1412
  858POPE   C3B11439  16.774   3.870   7.547 -0.0506  0.2867 -0.1905
  858POPE   C4B11440  17.075   4.113   7.818  0.0009 -0.1328  0.0497
  859POPE   NH311441  12.778  12.281   5.710 -0.0353 -0.0589  0.2356
  859POPE   PO411442  13.090  12.027   5.790 -0.3443  0.0111 -0.0995
  859POPE   GL111443  13.106  12.221   6.198 -0.4445 -0.0051  0.0652
  859POPE   GL211444  12.802  12.153   6.396 -0.2913  0.1735  0.2323
  859POPE   C1A11445  13.331  11.993   6.468  0.1104 -0.0208 -0.1365
  859POPE   D2A11446  13.580  12.049   6.811 -0.0257 -0.2036 -0.1471
  859POPE   C3A11447  13.600  12.163   7.206 -0.2343  0.0983  0.0097
  859POPE   C4A11448  13.823  12.540   7.282 -0.0159  0.0043  0.0915
  859POPE   C1B11449  12.992  12.210   6.729  0.1133  0.3429 -0.0807
  859POPE   C2B11450  13.094  12.218   7.088  0.1126  0.0430  0.4689
  859POPE   C3B11451  13.025  12.267   7.451  0.0992 -0.3085  0.2100
  859POPE   C4B11452  13.094  12.547   7.809  0.1309  0.1524 -0.0933
  860POPE   NH311453  15.482  13.708   5.655  0.2250  0.0708 -0.0336
  860POPE   PO411454  15.431  13.966   5.795  0.0369 -0.0282 -0.1957
  860POPE   GL111455  15.312  13.982   6.194 -0.1024 -0.0207  0.0514
  860POPE   GL211456  15.233  14.323   6.335  0.0467 -0.0845 -0.1555
  860POPE   C1A11457  15.442  13.754   6.489 -0.1685 -0.0057 -0.0321
  860POPE   D2A11458  15.609  13.600   6.864 -0.2020 -0.0596 -0.1346
  860POPE   C3A11459  15.879  13.529   7.171 -0.0663 -0.3731  0.1008
  860POPE   C4A11460  15.949  13.151   7.131 -0.2176  0.2494 -0.2561
  860POPE   C1B11461  15.485  14.212   6.766 -0.0188 -0.0515 -0.1654
  860POPE   C2B11462  15.298  14.012   7.083 -0.0503  0.2710  0.0730
  860POPE   C3B11463  15.454  13.866   7.512  0.1384  0.0605 -0.0339
  860POPE   C4B11464  15.860  13.769   7.647 -0.2405 -0.0543 -0.2510
  861POPE   NH311465  10.048   8.753   6.010  0.0318  0.1043  0.5384
  861POPE   PO411466   9.941   8.288   6.097  0.1695  0.3737  0.1356
  861POPE   GL111467  10.099   8.111   6.431 -0.1700  0.0342 -0.0431
  861POPE   GL211468  10.355   7.930   6.396  0.2547  0.0901 -0.3860
  861POPE   C1A11469  10.330   8.194   6.832 -0.1113  0.0567 -0.0795
  861POPE   D2A11470  10.781   8.297   7.064  0.2654 -0.1488 -0.1885
  861POPE   C3A11471  10.766   8.386   7.546 -0.0083  0.4795 -0.1004
  861POPE   C4A11472  10.561   8.078   7.834 -0.2934 -0.0412 -0.1053
  861POPE   C1B11473  10.138   7.621   6.596 -0.2501  0.1391 -0.1425
  861POPE   C2B11474  10.089   7.542   7.119  0.0062 -0.1069  0.2902
  861POPE   C3B11475   9.832   7.345   7.531 -0.0465  0.1045  0.0599
  861POPE   C4B11476   9.717   7.425   7.910  0.1379  0.0800 -0.2835
  862POPE   NH311477   9.020  17.163   5.732  0.0173 -0.3481 -0.0711
  862POPE   PO411478   8.668  17.227   5.604  0.0953  0.0485 -0.3246
  862POPE   GL111479   8.750  17.244   6.153 -0.1321 -0.2529 -0.0724
  862POPE   GL211480   8.989  17.344   6.261  0.1052  0.1554 -0.0252
  862POPE   C1A11481   8.894  16.962   6.521  0.0166  0.2996 -0.1423
  862POPE   D2A11482   8.979  16.734   6.861 -0.1312  0.2010 -0.0982
  862POPE   C3A11483   8.904  16.294   6.978 -0.0483  0.0099  0.1731
  862POPE   C4A11484   8.740  16.107   6.584  0.2041 -0.1847  0.0431
  862POPE   C1B11485   9.054  17.455   6.634  0.0592 -0.1961  0.0808
  862POPE   C2B11486   9.243  17.230   6.945  0.0557  0.0224  0.0530
  862POPE   C3B11487   9.145  16.898   7.318 -0.1997 -0.0179  0.0617
  862POPE   C4B11488   8.933  16.631   7.383 -0.1699 -0.2499 -0.1320
  863POPE   NH311489   6.873   3.479   5.451 -0.1601  0.1281 -0.0252
  863POPE   PO411490   6.469   3.527   5.724 -0.3766  0.3630  0.1555
  863POPE   GL111491   6.384   3.682   6.078  0.3111  0.2681  0.4417
  863POPE   GL211492   6.240   3.338   6.210  0.0082  0.0024 -0.0033
  863POPE   C1A11493   6.349   3.827   6.540 -0.1458 -0.0226 -0.0661
  863POPE   D2A11494   6.288   3.988   6.986 -0.0971  0.0408  0.4404
  863POPE   C3A11495   6.135   4.208   7.147 -0.2534 -0.1427  0.0718
  863POPE   C4A11496   6.162   4.575   6.829  0.2600  0.1131 -0.2564
  863POPE   C1B11497   6.069   3.405   6.675  0.1510  0.3009 -0.0813
  863POPE   C2B11498   6.107   3.525   7.074 -0.0026  0.2363  0.1465
  863POPE   C3B11499   6.280   3.693   7.467  0.2793 -0.1561 -0.2752
  863POPE   C4B11500   6.522   3.681   7.873  0.0200 -0.2652 -0.2151
  864POPE   NH311501   5.121  16.420   5.950  0.3644 -0.1234 -0.1434
  864POPE   PO411502   4.971  15.986   6.086  0.1117  0.1435  0.0517
  864POPE   GL111503   5.061  15.953   6.407  0.1769  0.0150 -0.1875
  864POPE   GL211504   4.715  15.836   6.511 -0.1744 -0.2107 -0.0200
  864POPE   C1A11505   5.146  15.981   6.858  0.1222 -0.2096 -0.2289
  864POPE   D2A11506   5.181  16.043   7.279 -0.0868  0.1697  0.2068
  864POPE   C3A11507   4.850  16.122   7.429  0.1608 -0.5415  0.1040
  864POPE   C4A11508   4.826  16.316   7.828  0.2658  0.0516 -0.3675
  864POPE   C1B11509   4.866  15.562   6.791 -0.1008  0.4193 -0.0822
  864POPE   C2B11510   4.945  15.620   7.215  0.3769 -0.0288  0.5699
  864POPE   C3B11511   4.984  15.703   7.598 -0.2247 -0.3607  0.1163
  864POPE   C4B11512   5.285  15.999   7.820  0.0251 -0.1506 -0.0271
  865POPE   NH311513  11.259   3.070   6.367 -0.0953 -0.0559 -0.0976
  865POPE   PO411514  11.439   3.480   6.164 -0.2001 -0.0707 -0.0795
  865POPE   GL111515  11.593   3.422   6.629 -0.0871 -0.2520 -0.1769
  865POPE   GL211516  11.434   3.188   6.793 -0.0278 -0.1194 -0.0149
  865POPE   C1A11517  11.490   3.794   7.039 -0.1668 -0.0570  0.1252
  865POPE   D2A11518  11.626   4.016   7.401 -0.0440 -0.0968  0.3030
  865POPE   C3A11519  12.052   4.131   7.580 -0.0497  0.3229 -0.1464
  865POPE   C4A11520  12.229   4.535   7.703  0.1974  0.1207  0.0197
  865POPE   C1B11521  11.441   3.332   7.128  0.5498  0.2348 -0.2613
  865POPE   C2B11522  11.402   3.602   7.491  0.0532  0.0456  0.1178
  865POPE   C3B11523  11.583   3.860   7.867  0.0972  0.2184  0.1779
  865POPE   C4B11524  12.067   3.843   8.058 -0.1763 -0.1282  0.1059
  866POPE   NH311525  12.373   5.898   5.921 -0.0710 -0.0520  0.0162
  866POPE   PO411526  12.741   5.728   5.747 -0.2030 -0.1116 -0.0594
  866POPE   GL111527  12.777   5.623   6.175  0.0024  0.3122  0.0030
  866POPE   GL211528  12.546   5.832   6.378 -0.2782 -0.2507  0.1483
  866POPE   C1A11529  12.612   5.351   6.580  0.1628  0.2257  0.3078
  866POPE   D2A11530  12.539   5.151   6.957 -0.0036 -0.0219 -0.2282
  866POPE   C3A11531  12.266   4.917   7.222  0.2215  0.3189 -0.2135
  866POPE   C4A11532  12.337   5.015   7.622  0.0314  0.0453 -0.0719
  866POPE   C1B11533  12.834   5.781   6.725 -0.2281 -0.1045 -0.4775
  866POPE   C2B11534  13.084   5.927   7.106 -0.1391  0.0351 -0.0846
  866POPE   C3B11535  13.152   5.846   7.536  0.2874  0.1274  0.0927
  866POPE   C4B11536  13.306   5.770   7.879  0.3211  0.0775  0.2066
  867POPE   NH311537   6.074   2.957   5.856 -0.1889 -0.0017 -0.1129
  867POPE   PO411538   6.409   2.581   5.660  0.0343 -0.1507  0.0052
  867POPE   GL111539   6.623   2.372   6.004 -0.0036 -0.2141  0.0081
  867POPE   GL211540   6.431   2.247   6.218 -0.2465  0.0343  0.1698
  867POPE   C1A11541   6.924   2.381   6.295  0.1983 -0.0631  0.1062
  867POPE   D2A11542   7.092   2.574   6.741 -0.0257  0.1861  0.0880
  867POPE   C3A11543   7.091   2.244   7.061 -0.0737 -0.0994 -0.3979
  867POPE   C4A11544   6.951   1.778   7.029 -0.1326  0.1093  0.0482
  867POPE   C1B11545   6.457   2.459   6.584 -0.1872 -0.2195 -0.1608
  867POPE   C2B11546   6.594   2.627   6.958 -0.1677  0.1122 -0.3285
  867POPE   C3B11547   6.672   2.758   7.436  0.1719 -0.2190  0.0006
  867POPE   C4B11548   6.966   2.822   7.786 -0.0494 -0.1669 -0.1240
  868POPE   NH311549  11.607  16.807   5.863  0.2947  0.0737  0.3164
  868POPE   PO411550  12.009  17.042   6.028  0.0612 -0.0607  0.0484
  868POPE   GL111551  12.021  17.204   6.449 -0.0746  0.0481  0.1095
  868POPE   GL211552  12.090  16.952   6.523  0.1814 -0.1230  0.1229
  868POPE   C1A11553  11.864  17.284   6.867  0.2315  0.2534  0.0852
  868POPE   D2A11554  11.968  17.105   7.305 -0.1386  0.0601 -0.1256
  868POPE   C3A11555  11.664  16.857   7.309 -0.0522  0.0567  0.0190
  868POPE   C4A11556  11.589  16.529   7.609 -0.0812  0.3034 -0.1697
  868POPE   C1B11557  11.986  16.748   6.880  0.0158  0.1814 -0.3033
  868POPE   C2B11558  12.079  16.573   7.228 -0.3391  0.0116 -0.1901
  868POPE   C3B11559  12.092  16.725   7.646 -0.2364  0.0294  0.1100
  868POPE   C4B11560  12.274  16.714   8.100  0.1804 -0.0463  0.1174
  869POPE   NH311561   1.179   3.701   6.005  0.1449  0.0830 -0.0457
  869POPE   PO411562   1.020   4.104   5.871  0.0044  0.0019  0.0608
  869POPE   GL111563   0.782   3.972   6.287  0.3134 -0.2514 -0.1807
  869POPE   GL211564   1.101   3.904   6.457 -0.0295 -0.1599 -0.0354
  869POPE   C1A11565   0.689   3.947   6.747 -0.1355  0.0217  0.0511
  869POPE   D2A11566   0.764   3.839   7.197 -0.0233  0.2208 -0.0586
  869POPE   C3A11567   0.563   3.945   7.581 -0.1247 -0.1638 -0.3409
  869POPE   C4A11568   0.423   4.148   7.941  0.0298 -0.3390  0.3074
  869POPE   C1B11569   1.174   4.034   6.858 -0.3135  0.1137  0.2051
  869POPE   C2B11570   1.137   4.168   7.202 -0.0003 -0.1113 -0.0357
  869POPE   C3B11571   1.211   4.445   7.494 -0.2448  0.0841  0.1627
  869POPE   C4B11572   0.857   4.360   7.838 -0.1549  0.2362 -0.2077
  870POPE   NH311573  14.243   6.464   5.967 -0.1255 -0.2703 -0.3207
  870POPE   PO411574  13.834   6.328   6.096 -0.3507  0.2655  0.2003
  870POPE   GL111575  14.064   6.259   6.406  0.2307  0.0096  0.0575
  870POPE   GL211576  14.215   6.485   6.482 -0.0317  0.2330 -0.3119
  870POPE   C1A11577  13.938   6.039   6.707 -0.0597 -0.0837 -0.2218
  870POPE   D2A11578  13.944   6.011   7.156 -0.1092 -0.1231 -0.0689
  870POPE   C3A11579  13.969   5.777   7.554  0.0125 -0.1579 -0.2116
  870POPE   C4A11580  13.866   5.738   7.942  0.0828  0.2113  0.0530
  870POPE   C1B11581  14.189   6.456   6.921 -0.0315 -0.0048 -0.2558
  870POPE   C2B11582  14.337   6.446   7.338  0.2132 -0.1019  0.0929
  870POPE   C3B11583  14.336   6.166   7.618  0.2088  0.3561 -0.2606
  870POPE   C4B11584  14.679   6.166   7.969  0.1329 -0.0046  0.1621
  871POPE   NH311585   0.202  11.561   5.712 -0.5291  0.0050  0.1682
  871POPE   PO411586   0.055  11.966   5.707  0.1021 -0.1174  0.0401
  871POPE   GL111587  -0.119  12.165   6.050 -0.0022 -0.1135 -0.2526
  871POPE   GL211588  -0.358  12.419   6.042  0.0414  0.1947 -0.0519
  871POPE   C1A11589  -0.072  12.370   6.463 -0.0885  0.0412 -0.3060
  871POPE   D2A11590  -0.032  12.437   6.923  0.3245 -0.0544 -0.2966
  871POPE   C3A11591   0.071  12.444   7.260  0.1272 -0.1771 -0.0385
  871POPE   C4A11592   0.257  12.417   7.622  0.2814 -0.1050 -0.0430
  871POPE   C1B11593  -0.299  12.807   6.356  0.4057  0.4010  0.0563
  871POPE   C2B11594  -0.248  13.114   6.616  0.1114  0.0334 -0.2988
  871POPE   C3B11595  -0.308  13.017   7.004  0.1375 -0.0252 -0.3466
  871POPE   C4B11596  -0.335  12.789   7.324  0.0746  0.0293 -0.1924
  872YOPE   NH311597   8.661  13.443   5.547 -0.1630 -0.2678  0.0016
  872YOPE   PO411598   8.427  13.201   5.353  0.2627  0.2098  0.2375
  872YOPE   GL111599   8.215  13.318   5.668 -0.1746  0.0627  0.2591
  872YOPE   GL211600   8.186  13.469   5.948 -0.2411  0.1993 -0.1127
  872YOPE   C1A11601   8.241  13.018   6.134 -0.0114 -0.0593 -0.1557
  872YOPE   D2A11602   8.163  13.029   6.492 -0.3410 -0.0746 -0.0051
  872YOPE   C3A11603   8.313  12.918   6.814  0.1606  0.0295  0.0011
  872YOPE   C4A11604   8.237  12.899   7.275  0.0981 -0.0770 -0.0291
  872YOPE   C1B11605   8.183  13.472   6.412 -0.3807 -0.0445 -0.0447
  872YOPE   C2B11606   8.256  13.432   6.809 -0.1867 -0.1080 -0.0806
  872YOPE   D3B11607   8.591  13.301   7.124  0.0586 -0.0905 -0.0220
  872YOPE   C4B11608   8.648  13.179   7.529  0.1138 -0.0609 -0.1875
  873YOPE   NH311609  14.937  13.062   5.934 -0.0023  0.0141 -0.4420
  873YOPE   PO411610  14.855  12.673   6.081  0.1327  0.0506 -0.2930
  873YOPE   GL111611  14.936  12.471   6.467  0.4437 -0.1238  0.0612
  873YOPE   GL211612  14.809  12.135   6.467 -0.1914  0.3573 -0.0881
  873YOPE   C1A11613  14.861  12.610   6.920  0.1159  0.0600 -0.0681
  873YOPE   D2A11614  14.800  12.406   7.180  0.3959 -0.2088 -0.0906
  873YOPE   C3A11615  15.165  12.171   7.343 -0.1579 -0.1932 -0.0290
  873YOPE   C4A11616  15.304  12.064   7.775 -0.0590  0.1367 -0.2599
  873YOPE   C1B11617  15.081  12.186   6.825 -0.0319 -0.0539  0.0021
  873YOPE   C2B11618  15.553  12.145   6.944  0.0263 -0.1522 -0.1104
  873YOPE   D3B11619  15.598  11.897   7.314  0.2145  0.0734 -0.0715
  873YOPE   C4B11620  15.804  11.950   7.774  0.0299 -0.2045  0.6073
  874YOPE   NH311621  18.245  17.726   6.314  0.1132 -0.0237  0.0781
  874YOPE   PO411622  18.329  18.109   6.457 -0.1552 -0.1301  0.1726
  874YOPE   GL111623  17.921  18.195   6.638 -0.0872 -0.0783  0.0453
  874YOPE   GL211624  17.702  18.050   6.878  0.2211 -0.0666 -0.2557
  874YOPE   C1A11625  18.014  18.294   7.143  0.1879  0.0868 -0.1390
  874YOPE   D2A11626  18.244  18.478   7.536  0.0939  0.2538  0.0166
  874YOPE   C3A11627  18.304  18.225   7.948 -0.0303 -0.3384  0.0843
  874YOPE   C4A11628  18.536  18.116   8.228 -0.0452 -0.0879 -0.0688
  874YOPE   C1B11629  17.714  17.844   7.255  0.1406 -0.2839  0.1186
  874YOPE   C2B11630  17.642  17.763   7.651  0.1362  0.7638 -0.2959
  874YOPE   D3B11631  17.389  17.552   7.981 -0.1178 -0.2638  0.2522
  874YOPE   C4B11632  17.271  17.649   8.392  0.3467 -0.0354 -0.2314
  875YOPE   NH311633   2.859   7.808   5.430 -0.0112 -0.3740  0.0412
  875YOPE   PO411634   2.388   7.715   5.498  0.0576  0.0102  0.0404
  875YOPE   GL111635   2.660   7.524   5.813  0.2534  0.1159 -0.0756
  875YOPE   GL211636   2.999   7.568   5.831  0.0779 -0.3773  0.4898
  875YOPE   C1A11637   2.468   7.328   6.094 -0.2570 -0.1342 -0.0860
  875YOPE   D2A11638   2.670   7.107   6.395  0.0269  0.0232  0.2235
  875YOPE   C3A11639   2.839   7.238   6.704  0.2506 -0.0070 -0.0053
  875YOPE   C4A11640   3.067   7.353   6.939  0.0030  0.1139 -0.1724
  875YOPE   C1B11641   2.898   7.555   6.299 -0.1121 -0.0947  0.1833
  875YOPE   C2B11642   2.851   7.765   6.728  0.1972  0.1725 -0.1549
  875YOPE   D3B11643   2.948   7.912   7.125 -0.1380 -0.0139 -0.0665
  875YOPE   C4B11644   2.964   7.929   7.478 -0.4061 -0.0944  0.3529
  876YOPE   NH311645  16.276  11.795   5.660 -0.1974 -0.1697  0.1988
  876YOPE   PO411646  16.683  11.698   5.939  0.0523  0.1186 -0.1691
  876YOPE   GL111647  16.934  11.585   6.326 -0.0072 -0.1541  0.0012
  876YOPE   GL211648  16.929  11.263   6.323  0.1764 -0.2459 -0.1552
  876YOPE   C1A11649  17.238  11.724   6.648 -0.1560  0.3262 -0.1927
  876YOPE   D2A11650  17.569  11.964   6.833 -0.2182 -0.1501 -0.0366
  876YOPE   C3A11651  17.590  11.962   7.298  0.3100 -0.0149  0.3341
  876YOPE   C4A11652  17.519  12.129   7.698 -0.3515 -0.0300 -0.1574
  876YOPE   C1B11653  16.983  11.242   6.769  0.1703 -0.0533  0.1661
  876YOPE   C2B11654  16.956  11.244   7.211 -0.4086 -0.2150 -0.3953
  876YOPE   D3B11655  17.044  11.269   7.670 -0.0996  0.1163 -0.2009
  876YOPE   C4B11656  17.116  11.551   7.951 -0.2120 -0.0347  0.0345
  877YOPE   NH311657   5.854   1.631   6.088  0.2348 -0.1351 -0.1468
  877YOPE   PO411658   6.031   1.247   5.884  0.0675 -0.3112 -0.0697
  877YOPE   GL111659   6.238   1.353   6.267  0.1316  0.0097 -0.0567
  877YOPE   GL211660   5.902   1.316   6.495  0.0586  0.0169  0.0656
  877YOPE   C1A11661   6.306   1.238   6.679  0.0763 -0.0098  0.1171
  877YOPE   D2A11662   6.087   1.220   7.000  0.1430 -0.2963 -0.1405
  877YOPE   C3A11663   6.075   1.311   7.367 -0.0166  0.1732 -0.2056
  877YOPE   C4A11664   6.249   1.632   7.701  0.0326  0.0667  0.0115
  877YOPE   C1B11665   5.692   1.613   6.718 -0.2539  0.0463 -0.0478
  877YOPE   C2B11666   5.538   1.625   7.117 -0.1117 -0.0180  0.0324
  877YOPE   D3B11667   5.179   1.648   7.362  0.2694  0.0891  0.0065
  877YOPE   C4B11668   5.172   1.727   7.744  0.0874 -0.0267  0.0023
  878YOPE   NH311669   5.217  11.947   5.803  0.0834  0.0284  0.3102
  878YOPE   PO411670   5.615  11.898   5.921 -0.1236 -0.0618  0.1280
  878YOPE   GL111671   5.471  11.644   6.237  0.2780 -0.0471 -0.3139
  878YOPE   GL211672   5.231  11.397   6.165  0.0866 -0.0353  0.1054
  878YOPE   C1A11673   5.300  11.742   6.690  0.0904 -0.1620 -0.1552
  878YOPE   D2A11674   5.193  11.749   7.141  0.1364  0.1286 -0.1231
  878YOPE   C3A11675   4.742  11.798   7.295 -0.0975  0.3169 -0.3057
  878YOPE   C4A11676   4.479  11.717   7.705 -0.0323  0.2406 -0.1570
  878YOPE   C1B11677   5.054  11.394   6.440  0.3269 -0.1279 -0.0412
  878YOPE   C2B11678   4.801  11.639   6.784 -0.1356 -0.2313  0.0112
  878YOPE   D3B11679   4.453  11.907   6.856  0.1724  0.2573 -0.1322
  878YOPE   C4B11680   4.254  12.313   6.780  0.1958 -0.2111  0.1220
  879YOPE   NH311681  17.766  14.196   5.631 -0.2564  0.2505  0.0156
  879YOPE   PO411682  17.914  14.714   5.670  0.0723 -0.2404 -0.2337
  879YOPE   GL111683  17.871  14.760   6.110 -0.0529  0.0079  0.2686
  879YOPE   GL211684  17.558  14.865   6.049 -0.0636  0.0408 -0.0070
  879YOPE   C1A11685  17.716  14.669   6.465  0.0432 -0.0402 -0.1950
  879YOPE   D2A11686  17.616  14.738   6.940 -0.0573  0.1435  0.2488
  879YOPE   C3A11687  17.954  14.715   7.212 -0.1533  0.4609 -0.0812
  879YOPE   C4A11688  18.155  14.450   7.511  0.1463  0.2691 -0.1065
  879YOPE   C1B11689  17.525  15.124   6.559 -0.0483  0.3504 -0.2699
  879YOPE   C2B11690  17.407  15.304   6.917 -0.0936  0.4483 -0.2033
  879YOPE   D3B11691  17.399  15.131   7.366  0.0071 -0.1218  0.2085
  879YOPE   C4B11692  17.559  14.892   7.436 -0.0645  0.3117  0.0625
  880YOPE   NH311693  13.947  13.606   5.764  0.1443 -0.0324  0.2354
  880YOPE   PO411694  13.974  13.989   6.108 -0.2037  0.2177  0.0806
  880YOPE   GL111695  13.715  13.913   6.526 -0.2349  0.0551 -0.1125
  880YOPE   GL211696  13.420  14.043   6.346  0.0903  0.0841 -0.1162
  880YOPE   C1A11697  13.726  13.979   6.902 -0.0757  0.3492  0.0991
  880YOPE   D2A11698  13.713  13.733   7.197  0.0364 -0.0088 -0.0770
  880YOPE   C3A11699  13.900  13.908   7.632  0.0879 -0.0762  0.2278
  880YOPE   C4A11700  13.874  14.002   7.956 -0.0496  0.0194 -0.2842
  880YOPE   C1B11701  13.251  14.421   6.590 -0.2210  0.2791  0.1203
  880YOPE   C2B11702  13.343  14.295   6.981 -0.1284  0.0963 -0.0464
  880YOPE   D3B11703  13.188  14.406   7.392 -0.0284  0.0535  0.0357
  880YOPE   C4B11704  13.035  14.597   7.690  0.0458 -0.0797  0.2630
  881YOPE   NH311705  13.428   7.509   5.636  0.1951 -0.0882 -0.1692
  881YOPE   PO411706  13.237   7.335   5.950 -0.2018 -0.2405  0.1051
  881YOPE   GL111707  13.373   7.354   6.346  0.0541  0.0875  0.1203
  881YOPE   GL211708  13.489   7.098   6.435  0.0571  0.2435  0.0317
  881YOPE   C1A11709  13.049   7.363   6.663 -0.1242 -0.0236 -0.2394
  881YOPE   D2A11710  13.036   7.239   7.127  0.1805 -0.0204  0.1770
  881YOPE   C3A11711  13.104   7.351   7.514 -0.0678 -0.0419 -0.2601
  881YOPE   C4A11712  12.957   7.561   7.836 -0.2642 -0.3681  0.0540
  881YOPE   C1B11713  13.387   6.872   6.873  0.3241 -0.0491  0.0216
  881YOPE   C2B11714  13.280   6.803   7.368  0.0478 -0.5508  0.0776
  881YOPE   D3B11715  13.322   6.962   7.774  0.2087 -0.3332 -0.0701
  881YOPE   C4B11716  13.049   7.050   8.034 -0.3393  0.2235  0.1592
  882YOPE   NH311717  16.128   6.397   5.743  0.0831 -0.1303  0.4440
  882YOPE   PO411718  16.275   6.887   5.644 -0.0832  0.0077  0.0576
  882YOPE   GL111719  16.213   6.735   6.122  0.2185 -0.0658 -0.1435
  882YOPE   GL211720  16.440   6.933   6.161  0.1222  0.2971  0.0957
  882YOPE   C1A11721  16.147   6.561   6.493  0.0138 -0.0155  0.1282
  882YOPE   D2A11722  16.123   6.392   6.870 -0.1235 -0.0809  0.0757
  882YOPE   C3A11723  16.094   6.377   7.303  0.2856 -0.0193  0.0504
  882YOPE   C4A11724  16.013   5.993   7.578 -0.0939 -0.0848 -0.1473
  882YOPE   C1B11725  16.689   7.073   6.491 -0.0077  0.0984  0.5850
  882YOPE   C2B11726  16.979   7.277   6.782  0.0289  0.0653  0.0122
  882YOPE   D3B11727  17.029   7.311   7.189 -0.0531 -0.2284  0.1386
  882YOPE   C4B11728  17.062   7.397   7.627  0.2532  0.1720  0.3359
  883YOPE   NH311729   6.542   8.322   5.908  0.1069  0.1089 -0.1444
  883YOPE   PO411730   6.917   8.353   6.071 -0.0515  0.1961 -0.1939
  883YOPE   GL111731   6.765   8.233   6.464  0.0145 -0.4526 -0.1495
  883YOPE   GL211732   6.453   8.191   6.379  0.2301  0.0427  0.0120
  883YOPE   C1A11733   6.752   8.213   6.867  0.0689  0.1034 -0.1240
  883YOPE   D2A11734   6.664   8.082   7.319 -0.1235  0.1472 -0.0469
  883YOPE   C3A11735   6.917   7.816   7.460  0.1085  0.1459 -0.4352
  883YOPE   C4A11736   7.146   7.685   7.764 -0.0415 -0.1383 -0.0333
  883YOPE   C1B11737   6.386   8.547   6.637  0.2476 -0.1865 -0.1143
  883YOPE   C2B11738   6.465   8.669   7.037  0.0010 -0.1705  0.2238
  883YOPE   D3B11739   6.187   8.824   7.391  0.2074  0.1295  0.1216
  883YOPE   C4B11740   6.128   9.146   7.694 -0.2706  0.2131  0.2373
  884YOPE   NH311741   1.286   9.233   5.368  0.0473  0.0157 -0.0348
  884YOPE   PO411742   1.509   8.909   5.331 -0.0474 -0.2892  0.2608
  884YOPE   GL111743   1.396   8.889   5.719 -0.0662 -0.0363 -0.3749
  884YOPE   GL211744   1.516   8.680   5.982  0.3400 -0.3140  0.1713
  884YOPE   C1A11745   1.565   9.149   6.060  0.1056  0.3349 -0.0907
  884YOPE   D2A11746   1.494   9.523   6.330 -0.2315 -0.5012 -0.0651
  884YOPE   C3A11747   1.631   9.558   6.606 -0.1120 -0.2265 -0.3618
  884YOPE   C4A11748   1.474   9.611   7.015 -0.1963 -0.2627 -0.1194
  884YOPE   C1B11749   1.672   8.598   6.508  0.1351  0.2485 -0.0977
  884YOPE   C2B11750   1.810   8.677   6.988 -0.1552  0.1882  0.0594
  884YOPE   D3B11751   1.941   8.698   7.326 -0.0346  0.0638  0.2131
  884YOPE   C4B11752   2.217   8.511   7.702 -0.1261 -0.1756  0.1653
  885YOPE   NH311753   5.411  10.630   5.466 -0.0600 -0.0909  0.0284
  885YOPE   PO411754   5.052  10.757   5.583  0.1337 -0.2196 -0.2709
  885YOPE   GL111755   5.061  10.704   5.983 -0.0063 -0.0538 -0.2602
  885YOPE   GL211756   5.005  10.982   6.164 -0.2882 -0.0286 -0.1692
  885YOPE   C1A11757   4.961  10.406   6.376 -0.0677  0.1072  0.0372
  885YOPE   D2A11758   4.934  10.226   6.776 -0.1899 -0.0717 -0.2306
  885YOPE   C3A11759   4.982   9.949   7.270  0.2034  0.1660  0.0202
  885YOPE   C4A11760   5.131   9.588   7.548  0.2560  0.1516 -0.1815
  885YOPE   C1B11761   5.079  10.906   6.502  0.0340  0.1315  0.4107
  885YOPE   C2B11762   5.078  10.646   6.859  0.2199  0.2782 -0.2595
  885YOPE   D3B11763   5.263  10.519   7.223  0.1319 -0.0218  0.1131
  885YOPE   C4B11764   5.232  10.457   7.611  0.0444  0.3021  0.0505
  886YOPE   NH311765   2.564  13.482   5.847 -0.1269 -0.0311  0.0755
  886YOPE   PO411766   2.502  13.098   5.607  0.2009  0.3820  0.3763
  886YOPE   GL111767   2.596  12.922   5.985  0.0089  0.0275 -0.2008
  886YOPE   GL211768   2.521  12.548   5.936 -0.0387 -0.0187 -0.1675
  886YOPE   C1A11769   2.418  12.779   6.405 -0.2751  0.2410  0.2608
  886YOPE   D2A11770   2.277  12.625   6.748  0.5081 -0.3575 -0.1176
  886YOPE   C3A11771   2.344  12.777   7.111 -0.3519  0.1485  0.0122
  886YOPE   C4A11772   2.540  12.909   7.497 -0.0070 -0.5427 -0.3339
  886YOPE   C1B11773   2.583  12.214   6.380  0.2395 -0.3112  0.3655
  886YOPE   C2B11774   2.530  12.188   6.830 -0.2644 -0.0424 -0.0660
  886YOPE   D3B11775   2.614  12.216   7.261 -0.6823 -0.1676  0.3878
  886YOPE   C4B11776   2.420  12.430   7.700  0.0067 -0.0313 -0.1684
  887YOPE   NH311777   3.888   0.531   5.947 -0.2077 -0.2970  0.0670
  887YOPE   PO411778   4.208   0.305   5.904 -0.0433  0.2170 -0.0489
  887YOPE   GL111779   4.164   0.269   6.315  0.3346  0.1210  0.0485
  887YOPE   GL211780   4.001   0.244   6.577  0.1810 -0.0819  0.2604
  887YOPE   C1A11781   4.415   0.500   6.605  0.2706 -0.0019 -0.0728
  887YOPE   D2A11782   4.775   0.641   6.714 -0.0192 -0.1348  0.2466
  887YOPE   C3A11783   4.793   0.625   7.143 -0.1918 -0.1975  0.1786
  887YOPE   C4A11784   4.786   0.772   7.513  0.1281  0.1413 -0.0188
  887YOPE   C1B11785   4.016  -0.037   6.950  0.2076 -0.3419 -0.0020
  887YOPE   C2B11786   4.148  -0.189   7.352  0.2261  0.1439 -0.0090
  887YOPE   D3B11787   4.159  -0.581   7.542  0.1722  0.1078  0.3593
  887YOPE   C4B11788   4.152  -0.932   7.846 -0.1015  0.2916 -0.4633
  888YOPE   NH311789  11.752   1.999   6.249 -0.0768  0.0876 -0.0942
  888YOPE   PO411790  11.480   2.433   6.210 -0.2630 -0.1916  0.1251
  888YOPE   GL111791  11.440   2.155   6.616 -0.2242 -0.1292 -0.1393
  888YOPE   GL211792  11.514   1.865   6.632  0.3100  0.1846 -0.2746
  888YOPE   C1A11793  11.716   2.047   7.005  0.0698 -0.1819 -0.1838
  888YOPE   D2A11794  11.664   1.990   7.425  0.2598 -0.3563 -0.0217
  888YOPE   C3A11795  11.455   2.291   7.685  0.0999 -0.1758 -0.0080
  888YOPE   C4A11796  11.364   2.296   8.130  0.3352 -0.0503  0.1333
  888YOPE   C1B11797  11.471   1.457   6.763 -0.0622 -0.0205  0.3077
  888YOPE   C2B11798  11.394   1.221   7.014  0.2197 -0.1043 -0.2042
  888YOPE   D3B11799  11.453   1.108   7.439  0.0590  0.0180 -0.3252
  888YOPE   C4B11800  11.374   1.063   7.933  0.0480 -0.0692 -0.0058
  889YOPE   NH311801  13.260   3.264   5.920  0.2117  0.1353 -0.0069
  889YOPE   PO411802  12.835   3.045   5.997 -0.1770 -0.3575  0.0662
  889YOPE   GL111803  12.886   3.370   6.286  0.1117 -0.0340  0.0992
  889YOPE   GL211804  13.133   3.248   6.471 -0.0121  0.2259  0.1294
  889YOPE   C1A11805  13.047   3.717   6.453  0.2020  0.1357 -0.2676
  889YOPE   D2A11806  12.996   3.674   6.934  0.2156 -0.3057 -0.0478
  889YOPE   C3A11807  12.733   3.840   7.248 -0.0142  0.0438 -0.1940
  889YOPE   C4A11808  12.451   3.778   7.592  0.0398  0.2169  0.0970
  889YOPE   C1B11809  13.030   2.868   6.569 -0.1973  0.0365 -0.1966
  889YOPE   C2B11810  12.741   2.591   6.763  0.0023 -0.3069 -0.1392
  889YOPE   D3B11811  12.578   2.301   7.058 -0.0842 -0.0749 -0.0080
  889YOPE   C4B11812  12.508   2.340   7.577  0.0600 -0.1718  0.0097
  890YOPE   NH311813   6.654   9.826   5.597 -0.0210 -0.1219  0.2569
  890YOPE   PO411814   7.031   9.623   5.813 -0.0848  0.2377 -0.2130
  890YOPE   GL111815   7.118   9.646   6.286  0.0721  0.1801  0.1819
  890YOPE   GL211816   7.116   9.822   6.320  0.0181  0.2704 -0.0726
  890YOPE   C1A11817   7.102   9.661   6.784 -0.0935  0.1282 -0.1064
  890YOPE   D2A11818   7.136   9.464   7.139  0.1212 -0.1708  0.1721
  890YOPE   C3A11819   7.095   9.307   7.508  0.1169 -0.0247 -0.2527
  890YOPE   C4A11820   7.440   9.372   7.886  0.1204  0.2115  0.0137
  890YOPE   C1B11821   7.319  10.115   6.676  0.1200  0.0909  0.0302
  890YOPE   C2B11822   7.439  10.279   7.002  0.1472 -0.0382  0.2597
  890YOPE   D3B11823   7.612  10.635   7.259 -0.1357 -0.0970 -0.2420
  890YOPE   C4B11824   7.686  11.062   7.506  0.0079  0.3688 -0.3045
  891YOPE   NH311825  13.097  11.451   5.734  0.0963 -0.2964  0.0306
  891YOPE   PO411826  13.394  11.229   5.916 -0.0687  0.1536  0.1506
  891YOPE   GL111827  13.320  11.272   6.361 -0.1134 -0.0729 -0.0053
  891YOPE   GL211828  13.571  11.079   6.620  0.1621  0.0029 -0.4149
  891YOPE   C1A11829  13.305  11.498   6.794  0.1429  0.0594 -0.1192
  891YOPE   D2A11830  13.103  11.702   7.114  0.1344  0.0027 -0.1309
  891YOPE   C3A11831  13.026  11.766   7.608  0.2371 -0.1654 -0.1544
  891YOPE   C4A11832  13.271  11.939   7.893  0.1959 -0.2417 -0.2717
  891YOPE   C1B11833  13.467  11.089   6.976 -0.0017  0.3007  0.0634
  891YOPE   C2B11834  13.650  10.971   7.464  0.1379 -0.1618  0.3688
  891YOPE   D3B11835  13.499  10.858   7.885  0.0596 -0.1845 -0.0657
  891YOPE   C4B11836  13.480  10.799   8.309 -0.0657 -0.0859 -0.1907
  892YOPE   NH311837   3.188   9.305   5.437  0.0928 -0.0424  0.3092
  892YOPE   PO411838   3.224   8.911   5.668  0.1841 -0.2829  0.0793
  892YOPE   GL111839   3.283   9.257   5.946  0.2435  0.3210 -0.2192
  892YOPE   GL211840   2.984   9.229   6.014 -0.2343  0.2798  0.0983
  892YOPE   C1A11841   3.413   9.452   6.382 -0.1834 -0.1277  0.2534
  892YOPE   D2A11842   3.559   9.191   6.727 -0.1470  0.4088 -0.3442
  892YOPE   C3A11843   3.321   9.374   6.974 -0.1846  0.1054  0.0068
  892YOPE   C4A11844   3.102   9.399   7.261 -0.0640  0.0165  0.2981
  892YOPE   C1B11845   2.878   9.478   6.452 -0.1189  0.0494  0.2131
  892YOPE   C2B11846   2.898   9.368   6.782 -0.1498  0.0425 -0.0557
  892YOPE   D3B11847   2.580   9.323   7.104 -0.2438  0.0962  0.1195
  892YOPE   C4B11848   2.327   9.476   7.341 -0.2484  0.3363 -0.0935
  893YOPE   NH311849  18.018   0.142   6.114  0.1604 -0.2194 -0.1415
  893YOPE   PO411850  18.333   0.361   6.259 -0.1035 -0.2403  0.0342
  893YOPE   GL111851  18.278   0.772   6.496  0.3590 -0.1291 -0.2300
  893YOPE   GL211852  18.003   0.840   6.667 -0.0148 -0.1052  0.1569
  893YOPE   C1A11853  18.376   0.816   6.929  0.1624 -0.0595  0.3702
  893YOPE   D2A11854  18.543   0.692   7.321 -0.0145 -0.0444  0.0335
  893YOPE   C3A11855  18.330   0.633   7.626 -0.0274  0.0973  0.0967
  893YOPE   C4A11856  18.517   0.756   8.000  0.0324  0.0304  0.2438
  893YOPE   C1B11857  17.942   1.001   7.093  0.0509  0.2519 -0.0500
  893YOPE   C2B11858  17.998   1.002   7.522 -0.0969 -0.0750  0.0299
  893YOPE   D3B11859  18.052   0.943   7.970 -0.1593  0.1929  0.0479
  893YOPE   C4B11860  17.894   1.092   8.274  0.2160  0.0178 -0.1496
  894YOPE   NH311861  17.650  17.230   6.268  0.0022  0.0445 -0.2773
  894YOPE   PO411862  17.226  17.139   6.212 -0.1339  0.0728 -0.2294
  894YOPE   GL111863  16.934  17.392   6.520 -0.1050  0.1897  0.0647
  894YOPE   GL211864  17.247  17.455   6.665  0.1623 -0.0713 -0.0428
  894YOPE   C1A11865  16.822  17.498   6.974  0.3792  0.0362  0.1825
  894YOPE   D2A11866  16.580  17.499   7.398 -0.0899 -0.0448  0.0905
  894YOPE   C3A11867  16.381  17.762   7.672  0.2834 -0.1195  0.1525
  894YOPE   C4A11868  16.287  18.034   8.052 -0.3377 -0.1637 -0.1776
  894YOPE   C1B11869  17.422  17.454   7.121 -0.1333 -0.2445 -0.1065
  894YOPE   C2B11870  17.529  17.315   7.462 -0.1040  0.0629  0.2107
  894YOPE   D3B11871  17.512  17.051   7.859  0.0949  0.2627 -0.2204
  894YOPE   C4B11872  17.706  16.651   8.162 -0.0880 -0.2058 -0.0785
  895YOPE   NH311873  11.873  12.168   5.959 -0.0831 -0.0781  0.0846
  895YOPE   PO411874  11.706  11.784   5.907 -0.1913  0.0214 -0.0462
  895YOPE   GL111875  11.501  11.430   6.255  0.3776 -0.0753  0.3639
  895YOPE   GL211876  11.444  11.217   6.153 -0.1719  0.2100  0.0861
  895YOPE   C1A11877  11.518  11.275   6.729 -0.1332  0.0948 -0.3627
  895YOPE   D2A11878  11.832  11.360   7.166  0.4346  0.2558  0.3124
  895YOPE   C3A11879  11.679  11.307   7.545  0.1913  0.0884 -0.0578
  895YOPE   C4A11880  11.432  11.260   8.012  0.4040 -0.1646 -0.1157
  895YOPE   C1B11881  11.480  10.776   6.259  0.2780  0.2293 -0.0215
  895YOPE   C2B11882  11.421  10.669   6.635 -0.4704  0.1037  0.0413
  895YOPE   D3B11883  11.571  10.833   6.935  0.0448  0.1176  0.1093
  895YOPE   C4B11884  11.975  10.901   6.936 -0.1858 -0.1834 -0.2094
  896YOPE   NH311885  15.748   8.724   5.949  0.0023 -0.0061  0.2003
  896YOPE   PO411886  15.348   8.948   5.997  0.0561 -0.0490 -0.0196
  896YOPE   GL111887  15.476   8.787   6.388  0.0746  0.0261 -0.3627
  896YOPE   GL211888  15.358   8.462   6.433  0.0898 -0.0974 -0.0856
  896YOPE   C1A11889  15.736   8.765   6.729 -0.0858  0.0316 -0.0276
  896YOPE   D2A11890  15.531   8.688   7.045  0.2005  0.0044 -0.0560
  896YOPE   C3A11891  15.188   8.798   7.146  0.1501  0.2621 -0.6233
  896YOPE   C4A11892  15.078   9.202   7.311 -0.1018 -0.1255 -0.2770
  896YOPE   C1B11893  15.176   8.360   6.894  0.1208 -0.1222 -0.1003
  896YOPE   C2B11894  14.995   8.190   7.152  0.1502  0.0514 -0.1980
  896YOPE   D3B11895  14.830   7.956   7.517  0.0676  0.1958 -0.1263
  896YOPE   C4B11896  14.844   7.781   7.922 -0.0608 -0.0467  0.2060
  897YOPE   NH311897  17.679   6.267   5.804  0.0200 -0.2556 -0.2119
  897YOPE   PO411898  17.719   6.823   5.730 -0.0060  0.3422  0.1327
  897YOPE   GL111899  17.630   6.760   6.185  0.1249  0.1432 -0.0860
  897YOPE   GL211900  17.469   6.495   6.236 -0.1475  0.0585 -0.0096
  897YOPE   C1A11901  17.867   6.902   6.641 -0.0263 -0.2335 -0.2916
  897YOPE   D2A11902  17.959   6.869   7.099 -0.1018  0.0015  0.1124
  897YOPE   C3A11903  17.836   6.491   7.285  0.0076 -0.1372  0.0565
  897YOPE   C4A11904  17.653   6.394   7.596 -0.0194  0.1733 -0.0640
  897YOPE   C1B11905  17.599   6.503   6.662  0.0778 -0.0712 -0.2632
  897YOPE   C2B11906  17.433   6.696   7.054 -0.0863  0.2775 -0.2039
  897YOPE   D3B11907  17.372   6.991   7.445  0.0538  0.2028  0.1095
  897YOPE   C4B11908  17.481   7.259   7.775  0.1032  0.0218  0.3136
  898YOPE   NH311909   5.217  14.121   6.206  0.0199  0.0718  0.2779
  898YOPE   PO411910   4.861  14.012   6.007 -0.1779 -0.1637 -0.1916
  898YOPE   GL111911   4.692  14.049   6.465  0.0981 -0.3800  0.3697
  898YOPE   GL211912   4.916  13.953   6.594  0.2254 -0.2074 -0.3484
  898YOPE   C1A11913   4.445  13.831   6.766 -0.0828 -0.0412  0.1477
  898YOPE   D2A11914   4.525  13.574   7.164  0.1715  0.1956  0.2897
  898YOPE   C3A11915   4.800  13.441   7.617 -0.0014  0.0047 -0.1480
  898YOPE   C4A11916   5.050  13.720   7.833 -0.0193  0.0607 -0.1632
  898YOPE   C1B11917   4.819  14.225   6.943  0.1631 -0.0205  0.2413
  898YOPE   C2B11918   4.994  14.397   7.382  0.1006 -0.0698 -0.0957
  898YOPE   D3B11919   4.817  14.785   7.671  0.1410 -0.3966  0.2686
  898YOPE   C4B11920   5.126  15.180   7.819  0.0185  0.1766 -0.5183
  899YOPE   NH311921  16.718   5.002   5.159  0.1030  0.3541 -0.1618
  899YOPE   PO411922  16.841   5.254   5.604 -0.2225 -0.0433  0.2675
  899YOPE   GL111923  16.944   5.041   5.981 -0.0354  0.0330  0.0701
  899YOPE   GL211924  17.150   4.872   6.002 -0.0878  0.1725 -0.1211
  899YOPE   C1A11925  16.743   4.820   6.262 -0.0729  0.3590 -0.3598
  899YOPE   D2A11926  16.912   4.725   6.760  0.1742 -0.2968 -0.2422
  899YOPE   C3A11927  16.925   4.794   7.206  0.0347 -0.4038 -0.3258
  899YOPE   C4A11928  17.052   5.173   7.583  0.0494  0.0376  0.3057
  899YOPE   C1B11929  17.267   4.865   6.391  0.0095 -0.1599 -0.0258
  899YOPE   C2B11930  17.142   5.178   6.556 -0.0689 -0.3245  0.0198
  899YOPE   D3B11931  17.243   5.581   6.695 -0.1411 -0.0004  0.2033
  899YOPE   C4B11932  17.131   5.959   6.929  0.1339  0.1404 -0.1818
  900YOPE   NH311933   1.153  12.706   5.550 -0.1824  0.2525  0.3537
  900YOPE   PO411934   1.377  12.373   5.819 -0.1638  0.1124 -0.1855
  900YOPE   GL111935   1.536  12.282   6.269  0.0290 -0.0216  0.1441
  900YOPE   GL211936   1.623  12.520   6.447  0.0208 -0.1856  0.1114
  900YOPE   C1A11937   1.441  12.199   6.740 -0.0738  0.1269  0.3202
  900YOPE   D2A11938   1.366  11.926   7.012  0.1501  0.0083 -0.6614
  900YOPE   C3A11939   1.684  11.768   7.328  0.2590  0.2015 -0.0966
  900YOPE   C4A11940   1.819  11.413   7.387 -0.1725 -0.1595 -0.0134
  900YOPE   C1B11941   1.750  12.593   6.866 -0.2942  0.0039  0.0816
  900YOPE   C2B11942   1.540  12.369   7.216 -0.0297 -0.3914 -0.3158
  900YOPE   D3B11943   1.561  12.603   7.588  0.3332 -0.0035  0.0369
  900YOPE   C4B11944   1.614  12.917   7.932 -0.1023 -0.2538  0.2504
  901YOPE   NH311945   4.608   1.187   6.086 -0.3425  0.0559  0.3565
  901YOPE   PO411946   4.140   1.176   6.028 -0.0353  0.2902 -0.2101
  901YOPE   GL111947   4.218   1.199   6.428 -0.1403 -0.1893 -0.0290
  901YOPE   GL211948   4.466   1.056   6.531 -0.1756 -0.1408  0.2143
  901YOPE   C1A11949   4.335   1.493   6.763 -0.0183  0.0452  0.1964
  901YOPE   D2A11950   4.439   1.479   6.981 -0.0946 -0.0798  0.1276
  901YOPE   C3A11951   4.398   1.508   7.363  0.3477 -0.0554 -0.1295
  901YOPE   C4A11952   4.652   1.681   7.638  0.1319  0.0922  0.0111
  901YOPE   C1B11953   4.429   0.911   6.901  0.0815  0.1681  0.0255
  901YOPE   C2B11954   4.359   0.972   7.229  0.1619  0.0144  0.0615
  901YOPE   D3B11955   4.194   0.739   7.542 -0.0031 -0.0585  0.1569
  901YOPE   C4B11956   4.149   0.880   8.029  0.0504 -0.0966  0.1739
  902YOPE   NH311957  14.580   7.241   5.452 -0.1440  0.3163 -0.4224
  902YOPE   PO411958  14.207   6.981   5.798 -0.2728  0.4325  0.0237
  902YOPE   GL111959  14.226   6.921   6.226  0.0149 -0.3032  0.1599
  902YOPE   GL211960  13.971   6.920   6.372 -0.0212 -0.0385 -0.1344
  902YOPE   C1A11961  14.426   6.937   6.642 -0.2909 -0.0196 -0.2177
  902YOPE   D2A11962  14.588   6.829   7.082  0.1889 -0.1212  0.1247
  902YOPE   C3A11963  14.640   7.249   7.276  0.2638 -0.0402  0.1485
  902YOPE   C4A11964  14.599   7.555   7.526 -0.4531  0.1286 -0.1529
  902YOPE   C1B11965  13.909   6.928   6.781 -0.1338  0.1036 -0.0884
  902YOPE   C2B11966  14.115   6.941   7.134 -0.1677 -0.0547 -0.1486
  902YOPE   D3B11967  14.357   6.915   7.489 -0.2954  0.1674 -0.3560
  902YOPE   C4B11968  14.779   6.601   7.611 -0.1432  0.1261 -0.2958
  903YOPE   NH311969  16.858   3.283   6.031 -0.2104  0.2232  0.1202
  903YOPE   PO411970  16.571   3.779   5.912  0.2841 -0.4357  0.1675
  903YOPE   GL111971  17.035   3.879   5.929 -0.0577  0.3802  0.0853
  903YOPE   GL211972  17.173   3.653   6.031  0.3978 -0.0116  0.0504
  903YOPE   C1A11973  17.425   4.052   6.103 -0.1157 -0.0263  0.3129
  903YOPE   D2A11974  17.788   4.210   6.360  0.0010 -0.1467 -0.1717
  903YOPE   C3A11975  17.742   4.609   6.503  0.0316 -0.2734 -0.0374
  903YOPE   C4A11976  17.721   5.016   6.578 -0.1788  0.0364  0.1754
  903YOPE   C1B11977  17.083   3.857   6.413  0.1299 -0.3508  0.1087
  903YOPE   C2B11978  17.060   3.917   6.870 -0.0068 -0.1541 -0.1987
  903YOPE   D3B11979  17.124   4.212   7.298 -0.0655  0.1556  0.1424
  903YOPE   C4B11980  16.892   4.522   7.620  0.3248  0.0115  0.0191
  904YOPE   NH311981   7.458   9.332   5.798 -0.0844  0.3354  0.1169
  904YOPE   PO411982   7.844   9.583   5.616  0.0534 -0.0691  0.0012
  904YOPE   GL111983   7.969   9.493   5.965  0.1306 -0.1816 -0.3581
  904YOPE   GL211984   8.000   9.724   6.281  0.0389  0.0754  0.4529
  904YOPE   C1A11985   8.024   9.123   6.243  0.1100  0.4395  0.0939
  904YOPE   D2A11986   8.105   8.693   6.359 -0.0069 -0.0175  0.3489
  904YOPE   C3A11987   8.177   8.659   6.726  0.2126  0.0880  0.2567
  904YOPE   C4A11988   8.392   8.632   7.151  0.0495  0.2489 -0.0427
  904YOPE   C1B11989   7.929  10.125   6.458 -0.1797 -0.0075 -0.0663
  904YOPE   C2B11990   7.914  10.161   6.870  0.2104  0.2469 -0.0267
  904YOPE   D3B11991   8.172   9.936   7.113 -0.1263  0.3320 -0.0591
  904YOPE   C4B11992   8.597   9.803   6.992  0.1173 -0.2996  0.1186
  905YOPE   NH311993   3.719   2.635   6.178  0.0493 -0.2267 -0.2190
  905YOPE   PO411994   3.376   3.046   6.184 -0.3207  0.0416 -0.1564
  905YOPE   GL111995   3.260   3.347   6.450 -0.1198  0.0448 -0.1775
  905YOPE   GL211996   3.495   3.707   6.438 -0.0453  0.4111  0.3221
  905YOPE   C1A11997   3.007   3.647   6.528 -0.1150 -0.0749 -0.0621
  905YOPE   D2A11998   2.669   3.890   6.641  0.2960  0.2623 -0.1786
  905YOPE   C3A11999   2.592   4.126   7.018 -0.1202 -0.1057  0.1432
  905YOPE   C4A12000   2.561   4.328   7.462 -0.1825  0.0906  0.2006
  905YOPE   C1B12001   3.346   3.647   6.889 -0.1101 -0.1652  0.0050
  905YOPE   C2B12002   2.962   3.722   7.115  0.2506  0.1125  0.0618
  905YOPE   D3B12003   2.931   3.782   7.503  0.1509 -0.1991  0.1373
  905YOPE   C4B12004   2.738   4.055   7.883 -0.1235 -0.1359  0.0434
  906YOPE   NH312005   2.607  16.275   6.023 -0.0200 -0.1866 -0.0134
  906YOPE   PO412006   2.995  16.515   6.138 -0.3559 -0.0094  0.0455
  906YOPE   GL112007   3.076  16.553   6.546  0.0113  0.0684 -0.0122
  906YOPE   GL212008   3.435  16.594   6.676  0.4047 -0.2318  0.0052
  906YOPE   C1A12009   3.028  16.579   7.066  0.0474  0.0694 -0.0614
  906YOPE   D2A12010   3.024  16.672   7.436 -0.5826  0.4656  0.2577
  906YOPE   C3A12011   2.668  16.588   7.702 -0.1714  0.1350  0.3273
  906YOPE   C4A12012   2.236  16.493   7.939 -0.0071  0.2381  0.2326
  906YOPE   C1B12013   3.410  16.854   7.020 -0.0738  0.1142  0.0605
  906YOPE   C2B12014   3.492  16.798   7.404  0.2475 -0.0818 -0.0110
  906YOPE   D3B12015   3.725  17.132   7.760  0.2170 -0.3466 -0.2028
  906YOPE   C4B12016   3.812  17.211   8.246 -0.0898 -0.1117  0.1715
  907YOPE   NH312017  16.589  15.444   5.352  0.1302  0.1395  0.2307
  907YOPE   PO412018  16.315  15.638   5.538  0.0412 -0.1280  0.1612
  907YOPE   GL112019  16.404  15.824   5.976 -0.0578 -0.1665  0.2757
  907YOPE   GL212020  16.439  16.145   5.982  0.0369  0.2344  0.1754
  907YOPE   C1A12021  16.626  15.670   6.365 -0.1699  0.1001  0.5439
  907YOPE   D2A12022  16.891  15.612   6.742 -0.0968  0.0218 -0.3555
  907YOPE   C3A12023  17.383  15.690   6.661  0.2079 -0.2003 -0.2864
  907YOPE   C4A12024  17.781  15.558   6.684  0.1807 -0.0438 -0.1812
  907YOPE   C1B12025  16.329  16.080   6.397 -0.3285  0.1187 -0.3882
  907YOPE   C2B12026  16.452  15.863   6.803 -0.3427 -0.0088 -0.1013
  907YOPE   D3B12027  16.425  15.679   7.164 -0.2633  0.1235  0.1390
  907YOPE   C4B12028  16.144  15.444   7.466  0.1224 -0.0729 -0.0747
  908YOPE   NH312029   6.064   9.495   5.689 -0.1660  0.0677 -0.0302
  908YOPE   PO412030   6.221   9.866   5.825 -0.1533 -0.0323  0.2382
  908YOPE   GL112031   6.063  10.046   6.203 -0.1215 -0.1405 -0.1269
  908YOPE   GL212032   5.730  10.022   6.195  0.0036 -0.2258 -0.1672
  908YOPE   C1A12033   6.021  10.151   6.687 -0.2256  0.0272  0.0352
  908YOPE   D2A12034   6.312   9.980   7.036  0.2960 -0.2949  0.2955
  908YOPE   C3A12035   6.585  10.151   7.355 -0.0151 -0.0770  0.4542
  908YOPE   C4A12036   6.753  10.376   7.733  0.1816 -0.1517  0.1074
  908YOPE   C1B12037   5.530  10.153   6.508  0.0460  0.2592 -0.1059
  908YOPE   C2B12038   5.373  10.035   6.982  0.0937 -0.1450  0.5320
  908YOPE   D3B12039   5.502  10.050   7.349 -0.1520  0.0159  0.1222
  908YOPE   C4B12040   5.393   9.956   7.734  0.0542  0.0401 -0.1455
  909YOPE   NH312041   9.703   9.500   5.965  0.0155  0.1337  0.0624
  909YOPE   PO412042   9.945   9.927   5.782 -0.0909  0.0855 -0.1662
  909YOPE   GL112043   9.874  10.015   6.209 -0.1179  0.0184 -0.1509
  909YOPE   GL212044  10.149   9.923   6.255  0.0297 -0.1855 -0.0792
  909YOPE   C1A12045   9.664  10.163   6.534  0.2451  0.2471 -0.3095
  909YOPE   D2A12046   9.458  10.138   7.056 -0.0334 -0.1851  0.0829
  909YOPE   C3A12047   9.208  10.275   7.445  0.2597 -0.0047  0.2087
  909YOPE   C4A12048   9.237  10.167   7.965 -0.1665  0.3788  0.0537
  909YOPE   C1B12049  10.094  10.043   6.695  0.0433  0.1534 -0.0552
  909YOPE   C2B12050  10.183  10.283   7.089 -0.1082  0.0090  0.1288
  909YOPE   D3B12051  10.184  10.216   7.462 -0.0289  0.2177 -0.1792
  909YOPE   C4B12052   9.878   9.919   7.702  0.1816  0.1941 -0.0821
  910YOPE   NH312053  15.872  17.235   5.898 -0.1704 -0.2306  0.0581
  910YOPE   PO412054  16.109  16.937   5.825 -0.1267  0.2235 -0.1363
  910YOPE   GL112055  16.284  16.659   6.210 -0.2562 -0.0206  0.2069
  910YOPE   GL212056  16.580  16.587   6.325 -0.3145  0.2646 -0.0011
  910YOPE   C1A12057  16.124  16.522   6.618 -0.1030  0.0869 -0.2257
  910YOPE   D2A12058  16.187  16.286   6.956  0.1258  0.1091  0.1084
  910YOPE   C3A12059  15.847  16.140   6.940  0.0602 -0.1224 -0.1284
  910YOPE   C4A12060  15.595  15.958   7.295  0.1215  0.0734 -0.4805
  910YOPE   C1B12061  16.671  16.626   6.752  0.0426  0.0568 -0.1960
  910YOPE   C2B12062  16.678  16.706   7.265  0.2205 -0.2166 -0.0271
  910YOPE   D3B12063  16.568  16.564   7.694 -0.0624  0.1653 -0.1166
  910YOPE   C4B12064  16.805  16.557   7.983  0.0120 -0.0292  0.1677
  911YOPE   NH312065   6.281  10.761   5.883  0.3099 -0.2025  0.0935
  911YOPE   PO412066   6.728  10.688   5.849 -0.2750 -0.1110  0.0181
  911YOPE   GL112067   6.770  10.547   6.254 -0.0874  0.0725  0.2007
  911YOPE   GL212068   6.805  10.196   6.230 -0.1063 -0.0152  0.1103
  911YOPE   C1A12069   6.887  10.495   6.803 -0.1327 -0.1495  0.1890
  911YOPE   D2A12070   6.960  10.538   7.225  0.2262  0.2115 -0.0574
  911YOPE   C3A12071   6.790  10.843   7.538  0.0664  0.4783  0.1412
  911YOPE   C4A12072   6.649  11.241   7.713 -0.0774 -0.1476  0.0074
  911YOPE   C1B12073   6.632   9.987   6.559  0.1046 -0.1562  0.2396
  911YOPE   C2B12074   6.795  10.036   6.955 -0.0674  0.1736 -0.1672
  911YOPE   D3B12075   7.112  10.068   7.249  0.0192  0.4670 -0.0283
  911YOPE   C4B12076   7.307  10.308   7.543  0.3730 -0.4114  0.0882
  912YOPE   NH312077  11.105  11.382   5.802 -0.1332  0.0232  0.4557
  912YOPE   PO412078  11.087  10.964   5.651 -0.1860  0.0870  0.1117
  912YOPE   GL112079  10.914  10.938   6.011 -0.0601  0.1811 -0.0974
  912YOPE   GL212080  10.514  10.922   6.094 -0.0294  0.4908  0.0800
  912YOPE   C1A12081  11.045  10.954   6.449 -0.2286 -0.0320 -0.0835
  912YOPE   D2A12082  10.843  10.719   6.744 -0.0172 -0.0823 -0.0847
  912YOPE   C3A12083  10.830  10.823   7.194 -0.0740 -0.1466 -0.0255
  912YOPE   C4A12084  10.736  10.767   7.690  0.1561  0.1102  0.0721
  912YOPE   C1B12085  10.576  11.072   6.473  0.2606  0.0483 -0.1778
  912YOPE   C2B12086  10.554  11.278   6.939  0.0543 -0.1562  0.1276
  912YOPE   D3B12087  10.821  11.427   7.270 -0.1995 -0.0518  0.0222
  912YOPE   C4B12088  10.897  11.262   7.646 -0.1533  0.1134 -0.1958
  913YOPE   NH312089   7.473   6.168   5.759  0.2236 -0.4073 -0.3279
  913YOPE   PO412090   7.241   6.559   5.614 -0.0124  0.2907 -0.0247
  913YOPE   GL112091   7.259   6.546   6.053 -0.3055 -0.0131  0.1530
  913YOPE   GL212092   7.362   6.699   6.284 -0.0910  0.4327  0.2803
  913YOPE   C1A12093   6.898   6.297   6.341 -0.0435  0.0445 -0.0785
  913YOPE   D2A12094   6.752   6.303   6.726 -0.1765 -0.0294 -0.2974
  913YOPE   C3A12095   6.513   6.459   7.067  0.0530 -0.0411 -0.2070
  913YOPE   C4A12096   6.403   6.563   7.485 -0.0506 -0.1306 -0.2689
  913YOPE   C1B12097   7.090   6.661   6.648 -0.4073  0.0313 -0.1828
  913YOPE   C2B12098   6.993   6.608   7.164  0.0127 -0.2402  0.0285
  913YOPE   D3B12099   6.999   6.469   7.600 -0.2316  0.0822  0.1876
  913YOPE   C4B12100   6.861   6.130   7.866  0.1341  0.0032  0.0523
  914YOPE   NH312101   2.767   6.825   5.327 -0.0213 -0.2411 -0.0930
  914YOPE   PO412102   3.158   6.812   5.343 -0.3912 -0.2569 -0.2405
  914YOPE   GL112103   3.327   7.032   5.599  0.4018 -0.1516 -0.1219
  914YOPE   GL212104   3.397   6.731   5.780  0.0983  0.0113 -0.2190
  914YOPE   C1A12105   3.543   7.169   5.963  0.0232  0.1302 -0.0969
  914YOPE   D2A12106   3.877   7.369   6.037 -0.1603 -0.0388 -0.0628
  914YOPE   C3A12107   4.042   7.488   6.430  0.0582  0.3318  0.0937
  914YOPE   C4A12108   4.262   7.600   6.850  0.0692 -0.1185 -0.0450
  914YOPE   C1B12109   3.388   6.711   6.231 -0.0846  0.0338  0.0784
  914YOPE   C2B12110   3.307   6.528   6.663 -0.0133  0.1294 -0.0043
  914YOPE   D3B12111   3.418   6.323   7.054  0.0113 -0.0341 -0.1655
  914YOPE   C4B12112   3.424   6.337   7.408  0.0123  0.2089  0.0151
  915YOPE   NH312113  17.439  10.348   5.665 -0.0933  0.2469 -0.0126
  915YOPE   PO412114  17.606  10.758   5.860 -0.0353 -0.1973 -0.4624
  915YOPE   GL112115  17.414  10.743   6.163  0.0106  0.2257 -0.0363
  915YOPE   GL212116  17.269  10.342   6.110  0.1570 -0.0336 -0.0438
  915YOPE   C1A12117  17.097  10.834   6.467 -0.2960  0.0783  0.0380
  915YOPE   D2A12118  17.216  10.794   6.841 -0.1660 -0.1833 -0.0461
  915YOPE   C3A12119  17.224  10.827   7.308  0.0972  0.0124 -0.0678
  915YOPE   C4A12120  17.303  10.788   7.711  0.2971 -0.1366 -0.1188
  915YOPE   C1B12121  17.392  10.387   6.538 -0.5333  0.2329  0.0544
  915YOPE   C2B12122  17.426  10.389   7.016  0.0532  0.2251  0.2692
  915YOPE   D3B12123  17.516  10.167   7.408  0.3967  0.0878 -0.1259
  915YOPE   C4B12124  17.847  10.059   7.671 -0.2234  0.0961 -0.1753
  916YOPE   NH312125  10.042   5.848   5.991  0.0242 -0.1245 -0.2966
  916YOPE   PO412126  10.125   5.567   6.069 -0.2920  0.0829 -0.0452
  916YOPE   GL112127   9.917   5.547   6.412 -0.0629  0.2353  0.4431
  916YOPE   GL212128   9.593   5.515   6.304 -0.0199  0.1371 -0.2388
  916YOPE   C1A12129   9.712   5.214   6.725  0.4190 -0.1212 -0.3989
  916YOPE   D2A12130   9.564   5.125   7.127  0.1494 -0.0164 -0.1882
  916YOPE   C3A12131   9.210   5.206   7.430 -0.0328 -0.1134 -0.0570
  916YOPE   C4A12132   9.152   5.223   7.911 -0.2826 -0.3093  0.0074
  916YOPE   C1B12133   9.660   5.803   6.693  0.1978 -0.0793 -0.2560
  916YOPE   C2B12134   9.704   5.659   7.056 -0.0318 -0.0854 -0.1040
  916YOPE   D3B12135   9.455   5.610   7.358 -0.0618 -0.1610 -0.1460
  916YOPE   C4B12136   9.372   5.807   7.762 -0.1680 -0.3069 -0.1602
  917YOPE   NH312137  14.333   7.352   6.035  0.1475  0.0100 -0.1992
  917YOPE   PO412138  14.015   7.737   6.041  0.2849  0.1431 -0.2676
  917YOPE   GL112139  13.874   7.564   6.443  0.0079 -0.1433 -0.0394
  917YOPE   GL212140  14.154   7.398   6.605  0.1445 -0.2171  0.0986
  917YOPE   C1A12141  13.715   7.363   6.842  0.2220  0.1176 -0.0489
  917YOPE   D2A12142  13.625   7.218   7.276 -0.1367  0.1178  0.2157
  917YOPE   C3A12143  13.622   7.340   7.627  0.1008  0.0894 -0.0054
  917YOPE   C4A12144  13.465   7.470   7.951  0.0772  0.1204  0.0389
  917YOPE   C1B12145  14.295   7.465   7.005  0.1768  0.0204 -0.0004
  917YOPE   C2B12146  14.117   7.374   7.436  0.0755  0.0092  0.0461
  917YOPE   D3B12147  14.281   7.384   7.819  0.2701  0.1530  0.2111
  917YOPE   C4B12148  14.390   7.091   8.173  0.0675 -0.4663  0.1316
  918YOPE   NH312149   1.309  16.639   6.239 -0.2389 -0.0197 -0.2900
  918YOPE   PO412150   0.890  16.520   6.356  0.1260 -0.0908 -0.0527
  918YOPE   GL112151   1.218  16.214   6.466 -0.2419  0.1867 -0.1855
  918YOPE   GL212152   1.039  16.290   6.842 -0.0223  0.1706  0.0756
  918YOPE   C1A12153   1.261  15.774   6.704  0.0885 -0.0777  0.0463
  918YOPE   D2A12154   1.410  15.628   7.079 -0.2873 -0.1762 -0.4480
  918YOPE   C3A12155   1.418  15.624   7.507  0.0267  0.0435  0.3159
  918YOPE   C4A12156   1.325  15.656   7.973 -0.1017  0.2219  0.2563
  918YOPE   C1B12157   0.968  15.876   7.121 -0.0947 -0.2451 -0.0960
  918YOPE   C2B12158   0.935  15.913   7.543  0.0197 -0.1192 -0.4309
  918YOPE   D3B12159   0.950  16.120   7.916  0.0605  0.1453  0.0939
  918YOPE   C4B12160   1.262  16.293   8.162  0.0671 -0.2240  0.2435
  919YOPE   NH312161   4.083   6.057   5.453 -0.1122 -0.1787 -0.1577
  919YOPE   PO412162   4.398   5.858   5.370  0.2623 -0.0297  0.3655
  919YOPE   GL112163   4.267   5.930   5.891 -0.0467  0.1068 -0.1656
  919YOPE   GL212164   4.414   5.710   6.031 -0.2383  0.0984 -0.0994
  919YOPE   C1A12165   4.276   6.161   6.289  0.0367 -0.2832  0.0489
  919YOPE   D2A12166   4.306   6.107   6.679 -0.0467  0.0307  0.1854
  919YOPE   C3A12167   4.608   6.392   6.892 -0.0006  0.1761  0.1265
  919YOPE   C4A12168   4.513   6.546   7.365 -0.0092 -0.1665  0.1596
  919YOPE   C1B12169   4.478   5.731   6.422 -0.0096 -0.2814  0.0825
  919YOPE   C2B12170   4.313   5.619   6.855  0.4038 -0.1654 -0.1026
  919YOPE   D3B12171   4.150   5.738   7.254 -0.1417  0.1163  0.4951
  919YOPE   C4B12172   4.127   6.055   7.600  0.3355  0.3127 -0.3853
  920YOPE   NH312173   4.004   1.777   6.027  0.0566  0.0757  0.0612
  920YOPE   PO412174   3.966   2.137   6.125  0.0444  0.1780 -0.0253
  920YOPE   GL112175   4.105   2.061   6.527 -0.2058  0.3071  0.0153
  920YOPE   GL212176   3.957   2.254   6.773  0.0177  0.0840  0.2005
  920YOPE   C1A12177   4.168   1.868   7.005 -0.1109  0.1653 -0.0499
  920YOPE   D2A12178   3.992   1.763   7.460 -0.0736 -0.3036  0.0782
  920YOPE   C3A12179   4.209   1.949   7.794 -0.0847  0.1891  0.0395
  920YOPE   C4A12180   4.177   2.366   8.122  0.1231 -0.0358  0.2031
  920YOPE   C1B12181   3.899   2.219   7.262  0.2262  0.1258  0.2682
  920YOPE   C2B12182   3.943   2.391   7.643 -0.2869 -0.0003  0.0181
  920YOPE   D3B12183   4.055   2.829   7.897 -0.2104 -0.0162  0.1911
  920YOPE   C4B12184   4.082   3.273   8.139  0.1924 -0.3179  0.0687
  921YOPE   NH312185   0.941  10.387   5.575 -0.2623 -0.0340  0.1099
  921YOPE   PO412186   1.365  10.213   5.641  0.1444  0.1799 -0.0459
  921YOPE   GL112187   1.060  10.269   6.044  0.1372  0.0559  0.0024
  921YOPE   GL212188   0.792  10.183   6.025 -0.1204 -0.2756 -0.0685
  921YOPE   C1A12189   1.085  10.619   6.359  0.3641  0.0758  0.1392
  921YOPE   D2A12190   1.296  10.710   6.735 -0.1733  0.3555  0.4285
  921YOPE   C3A12191   1.168  10.913   7.058  0.1157  0.0639  0.0497
  921YOPE   C4A12192   0.928  11.259   7.146 -0.0900 -0.0450 -0.0778
  921YOPE   C1B12193   0.785  10.152   6.448 -0.0688 -0.0593 -0.3459
  921YOPE   C2B12194   0.718   9.843   6.750 -0.0224 -0.0928 -0.0034
  921YOPE   D3B12195   0.363   9.627   6.916  0.0556  0.3015 -0.1555
  921YOPE   C4B12196  -0.130   9.444   6.895 -0.1450  0.0206  0.1506
  922YOPE   NH312197   8.316   9.831   5.714  0.5957 -0.0726  0.1438
  922YOPE   PO412198   8.294   9.365   5.585  0.1135 -0.0167  0.0195
  922YOPE   GL112199   8.493   9.349   5.954  0.2422  0.3388 -0.0880
  922YOPE   GL212200   8.447   9.610   6.140 -0.4561  0.0639  0.0397
  922YOPE   C1A12201   8.593   8.980   6.231  0.1681  0.2015  0.1055
  922YOPE   D2A12202   8.614   8.782   6.591 -0.0278 -0.0575 -0.0615
  922YOPE   C3A12203   8.487   9.076   6.917 -0.1146 -0.1065  0.0536
  922YOPE   C4A12204   8.158   9.465   7.138 -0.3182  0.3652 -0.2951
  922YOPE   C1B12205   8.709   9.491   6.446 -0.2733  0.1617 -0.0054
  922YOPE   C2B12206   8.880   9.401   6.893  0.0078  0.0252 -0.0111
  922YOPE   D3B12207   8.754   9.451   7.317 -0.0615  0.3704 -0.2481
  922YOPE   C4B12208   8.468   9.842   7.500  0.0292 -0.1716 -0.1028
  923YOPE   NH312209   5.710  12.488   5.947 -0.1100  0.1201  0.0408
  923YOPE   PO412210   5.218  12.406   5.982  0.4872 -0.3926  0.1140
  923YOPE   GL112211   5.370  12.376   6.406 -0.1996 -0.0769 -0.2184
  923YOPE   GL212212   5.636  12.100   6.368  0.2316 -0.2226  0.2796
  923YOPE   C1A12213   5.165  12.606   6.801  0.2381  0.1648 -0.1301
  923YOPE   D2A12214   5.118  13.026   6.832  0.0547 -0.1271  0.2196
  923YOPE   C3A12215   5.136  13.185   7.337 -0.0039  0.0086 -0.0592
  923YOPE   C4A12216   5.275  13.229   7.847  0.2582  0.0032 -0.0490
  923YOPE   C1B12217   5.533  12.158   6.875 -0.1791 -0.0968 -0.1623
  923YOPE   C2B12218   5.463  12.280   7.254  0.0731  0.1654 -0.2715
  923YOPE   D3B12219   5.402  11.988   7.593  0.2042 -0.2512  0.2324
  923YOPE   C4B12220   5.170  11.676   7.673  0.1272 -0.2057 -0.2868
  924YOPE   NH312221  11.948   7.720   5.926 -0.3176  0.0591  0.3150
  924YOPE   PO412222  11.537   7.879   5.712  0.3702 -0.0160  0.0861
  924YOPE   GL112223  11.393   7.762   6.089  0.0672 -0.1767  0.0638
  924YOPE   GL212224  11.650   7.756   6.392 -0.0787  0.2475 -0.3457
  924YOPE   C1A12225  11.146   7.801   6.483 -0.3584  0.2105 -0.0839
  924YOPE   D2A12226  11.053   7.848   6.996  0.0747 -0.0236 -0.0312
  924YOPE   C3A12227  11.357   7.726   7.267 -0.2125 -0.2585  0.2425
  924YOPE   C4A12228  11.451   7.792   7.736  0.0469  0.1638 -0.3735
  924YOPE   C1B12229  11.749   7.911   6.911 -0.3335 -0.0527  0.0356
  924YOPE   C2B12230  11.684   8.036   7.347 -0.3349  0.0767 -0.1070
  924YOPE   D3B12231  11.963   7.908   7.664 -0.1078 -0.1812 -0.0014
  924YOPE   C4B12232  12.093   7.978   8.122 -0.0137  0.0685 -0.1049
  925YOPE   NH312233  10.452   3.129   6.261  0.2841 -0.1058 -0.4236
  925YOPE   PO412234  10.124   2.935   6.099 -0.1760 -0.2722  0.2806
  925YOPE   GL112235   9.976   3.044   6.457 -0.3587  0.2933  0.2168
  925YOPE   GL212236  10.085   3.342   6.610 -0.1451 -0.2639  0.2848
  925YOPE   C1A12237   9.764   2.869   6.753  0.0114 -0.0087  0.2341
  925YOPE   D2A12238   9.787   2.882   7.121 -0.0765 -0.1049 -0.0957
  925YOPE   C3A12239   9.755   2.756   7.516  0.3465 -0.3217  0.2192
  925YOPE   C4A12240   9.965   2.874   7.817  0.3011  0.1456 -0.0420
  925YOPE   C1B12241  10.187   3.071   6.900 -0.0187  0.1013  0.3404
  925YOPE   C2B12242  10.519   3.021   7.040  0.1382  0.0088  0.0645
  925YOPE   D3B12243  10.937   3.105   7.155 -0.1882 -0.3236 -0.2458
  925YOPE   C4B12244  10.992   3.275   7.502 -0.1130  0.1955 -0.4779
  926YOPE   NH312245   2.134  11.312   5.506 -0.0930 -0.1007 -0.2563
  926YOPE   PO412246   2.115  11.715   5.689 -0.0100  0.1347  0.1635
  926YOPE   GL112247   1.921  11.463   5.962 -0.0549  0.0750 -0.1333
  926YOPE   GL212248   1.595  11.263   5.797 -0.0352  0.2083  0.3529
  926YOPE   C1A12249   2.096  11.217   6.234 -0.0927 -0.1013 -0.0029
  926YOPE   D2A12250   2.033  10.984   6.636 -0.2019  0.1160  0.3941
  926YOPE   C3A12251   1.983  10.902   7.033  0.4272  0.3522 -0.1000
  926YOPE   C4A12252   1.729  10.527   7.212  0.2113 -0.0034  0.2307
  926YOPE   C1B12253   1.513  11.063   6.286  0.1371 -0.0888 -0.0914
  926YOPE   C2B12254   1.534  11.100   6.720 -0.0483 -0.0544  0.0209
  926YOPE   D3B12255   1.370  11.404   7.104 -0.0993 -0.0614  0.0390
  926YOPE   C4B12256   1.169  11.674   7.385  0.0502  0.0124 -0.1068
  927YOPE   NH312257   3.239  15.344   5.995  0.0404  0.2026 -0.1190
  927YOPE   PO412258   3.583  15.367   5.735  0.3412 -0.2504 -0.0774
  927YOPE   GL112259   3.755  15.223   6.206 -0.1713  0.0362 -0.1883
  927YOPE   GL212260   3.424  15.092   6.379 -0.2705  0.2372 -0.3903
  927YOPE   C1A12261   3.657  15.453   6.667 -0.2107  0.1239 -0.0221
  927YOPE   D2A12262   3.671  15.464   7.136  0.1252  0.1376  0.2767
  927YOPE   C3A12263   3.899  15.157   7.346 -0.3181 -0.2570 -0.1441
  927YOPE   C4A12264   3.801  14.801   7.575  0.1081 -0.1461 -0.0180
  927YOPE   C1B12265   3.318  15.122   6.849  0.0018  0.2456 -0.0404
  927YOPE   C2B12266   3.427  14.993   7.281  0.0155 -0.3323 -0.2196
  927YOPE   D3B12267   3.326  14.851   7.636  0.2330 -0.0213 -0.0651
  927YOPE   C4B12268   3.001  14.607   7.728 -0.2351  0.0378 -0.0904
  928YOPE   NH312269   1.482   2.912   6.044  0.2702  0.4121  0.3778
  928YOPE   PO412270   1.588   3.304   6.014  0.1504  0.1048  0.0986
  928YOPE   GL112271   1.352   3.405   6.428  0.0343 -0.3527 -0.1019
  928YOPE   GL212272   1.426   3.145   6.526 -0.2405  0.1393  0.0297
  928YOPE   C1A12273   1.112   3.529   6.751  0.3040 -0.0403 -0.1331
  928YOPE   D2A12274   1.158   3.539   7.171 -0.1387  0.0336 -0.0329
  928YOPE   C3A12275   0.926   3.562   7.629 -0.1953 -0.0449 -0.1053
  928YOPE   C4A12276   0.965   3.378   8.049  0.2940 -0.3360  0.1504
  928YOPE   C1B12277   1.443   3.165   7.019  0.0217 -0.0835 -0.1399
  928YOPE   C2B12278   1.278   3.141   7.497  0.0173 -0.1153  0.0898
  928YOPE   D3B12279   1.061   2.931   7.818 -0.1660 -0.2540  0.2589
  928YOPE   C4B12280   0.673   2.949   7.987  0.0817 -0.2444  0.1246
  929YOPE   NH312281   2.764   8.956   5.686  0.1801 -0.2443  0.0310
  929YOPE   PO412282   2.384   8.710   5.754  0.0167  0.0689  0.2967
  929YOPE   GL112283   2.629   8.498   6.030  0.0848 -0.1657 -0.0412
  929YOPE   GL212284   2.968   8.600   5.986 -0.1634  0.2043 -0.0025
  929YOPE   C1A12285   2.643   8.405   6.436 -0.0582  0.0852 -0.0202
  929YOPE   D2A12286   2.634   8.224   6.719 -0.0093  0.1750 -0.0710
  929YOPE   C3A12287   2.905   8.460   7.057  0.1994 -0.0748 -0.1382
  929YOPE   C4A12288   2.741   8.461   7.452 -0.0126  0.1090  0.3458
  929YOPE   C1B12289   3.131   8.547   6.366  0.1145  0.0249 -0.3004
  929YOPE   C2B12290   3.371   8.611   6.785  0.2635 -0.1263  0.1511
  929YOPE   D3B12291   3.446   8.843   7.127  0.1140  0.3621 -0.0347
  929YOPE   C4B12292   3.251   8.638   7.493  0.1371 -0.1098 -0.0795
  930YOPE   NH312293   3.351   6.211   5.734  0.2343  0.2790 -0.0653
  930YOPE   PO412294   3.630   5.892   5.776 -0.0121 -0.1562  0.2003
  930YOPE   GL112295   3.754   5.711   6.062  0.0432  0.1628  0.2665
  930YOPE   GL212296   3.477   5.706   6.251  0.4933  0.2097 -0.0177
  930YOPE   C1A12297   3.830   5.883   6.519  0.0859 -0.0182 -0.1088
  930YOPE   D2A12298   3.815   5.978   6.990 -0.1206  0.0348  0.0232
  930YOPE   C3A12299   3.571   5.828   7.368  0.0787  0.0683  0.0790
  930YOPE   C4A12300   3.295   5.561   7.483 -0.1232  0.0466 -0.2870
  930YOPE   C1B12301   3.787   5.380   6.544 -0.0018 -0.2325  0.1221
  930YOPE   C2B12302   4.112   5.098   6.788 -0.0704 -0.1228  0.1573
  930YOPE   D3B12303   4.382   5.176   7.191  0.1511  0.1918  0.0192
  930YOPE   C4B12304   4.533   5.243   7.590 -0.1397 -0.0692  0.1595
  931YOPE   NH312305  13.408  16.601   5.886 -0.1508 -0.1849 -0.0950
  931YOPE   PO412306  13.889  16.544   5.847  0.1358 -0.0445  0.2883
  931YOPE   GL112307  13.875  16.518   6.252 -0.2031  0.1366  0.3766
  931YOPE   GL212308  13.631  16.723   6.324  0.1448  0.1494  0.2061
  931YOPE   C1A12309  13.934  16.238   6.537  0.1595  0.3563  0.1052
  931YOPE   D2A12310  13.836  16.227   7.038 -0.1623  0.1020 -0.0274
  931YOPE   C3A12311  13.444  16.074   7.196 -0.2469  0.1307  0.1058
  931YOPE   C4A12312  13.291  15.676   7.345  0.1125  0.0763 -0.0768
  931YOPE   C1B12313  13.911  16.803   6.671 -0.1973 -0.0007 -0.1666
  931YOPE   C2B12314  13.906  16.810   7.145  0.1019  0.1911  0.0329
  931YOPE   D3B12315  13.675  16.526   7.456 -0.1626 -0.3188 -0.1062
  931YOPE   C4B12316  13.243  16.579   7.644 -0.0605  0.0662  0.1971
  932YOPE   NH312317   6.222   5.213   5.746  0.1209  0.4637 -0.1215
  932YOPE   PO412318   6.579   5.330   5.546 -0.2369 -0.0671 -0.0403
  932YOPE   GL112319   6.644   5.566   5.792 -0.1251  0.2944 -0.1667
  932YOPE   GL212320   6.361   5.861   5.752 -0.2266 -0.1661  0.1794
  932YOPE   C1A12321   6.824   5.707   6.168  0.1191  0.2109  0.0395
  932YOPE   D2A12322   6.924   5.798   6.591 -0.0617 -0.0908  0.0801
  932YOPE   C3A12323   6.928   5.947   7.031  0.0242  0.2212  0.1013
  932YOPE   C4A12324   6.663   6.100   7.368 -0.1492 -0.2166  0.0221
  932YOPE   C1B12325   6.424   5.987   6.164 -0.2337 -0.2155 -0.3711
  932YOPE   C2B12326   6.241   6.272   6.470  0.0859 -0.1177  0.3677
  932YOPE   D3B12327   6.048   6.362   6.888 -0.1591 -0.2080 -0.0940
  932YOPE   C4B12328   5.921   6.600   7.159 -0.1113  0.0270 -0.0480
  933YOPE   NH312329   5.272   7.596   5.479  0.0870  0.0434  0.0641
  933YOPE   PO412330   5.053   7.741   5.789  0.0832  0.1110 -0.0012
  933YOPE   GL112331   4.957   7.615   6.253 -0.0122 -0.2368 -0.2414
  933YOPE   GL212332   5.032   7.909   6.465  0.0116  0.0461 -0.1085
  933YOPE   C1A12333   4.659   7.527   6.572  0.3801 -0.2312  0.0817
  933YOPE   D2A12334   4.749   7.270   6.817  0.2105  0.4012  0.3375
  933YOPE   C3A12335   5.005   7.322   7.191 -0.1415 -0.0386  0.1848
  933YOPE   C4A12336   5.045   7.477   7.681  0.2886 -0.0502 -0.1369
  933YOPE   C1B12337   4.848   7.820   6.944 -0.2061 -0.0412  0.0002
  933YOPE   C2B12338   4.887   7.836   7.417 -0.0012 -0.1456  0.0967
  933YOPE   D3B12339   5.080   7.935   7.869 -0.0052 -0.0558 -0.0524
  933YOPE   C4B12340   5.452   7.809   8.088  0.3474  0.0621 -0.1274
  934YOPE   NH312341   8.189   6.891   5.887 -0.0510 -0.0764  0.3060
  934YOPE   PO412342   8.326   6.458   6.003 -0.1188 -0.0067 -0.0656
  934YOPE   GL112343   8.360   6.344   6.383 -0.0352 -0.1037  0.4453
  934YOPE   GL212344   8.155   6.571   6.507 -0.0470  0.2170  0.0481
  934YOPE   C1A12345   8.374   6.434   6.890 -0.2210  0.2410 -0.0425
  934YOPE   D2A12346   8.482   6.385   7.303 -0.1170 -0.0252  0.0167
  934YOPE   C3A12347   8.191   6.338   7.665 -0.2231 -0.1982  0.0892
  934YOPE   C4A12348   8.031   6.229   8.039 -0.0513 -0.1023  0.0972
  934YOPE   C1B12349   7.954   6.779   6.953  0.0359  0.2202  0.0116
  934YOPE   C2B12350   8.090   6.738   7.367  0.1499 -0.2116 -0.3281
  934YOPE   D3B12351   8.240   6.836   7.763  0.1645  0.0285  0.2523
  934YOPE   C4B12352   8.615   7.091   7.914  0.0818  0.1761 -0.0516
  935YOPE   NH312353  11.718   0.000   6.158 -0.0392  0.0122 -0.0705
  935YOPE   PO412354  12.028   0.461   6.035  0.1741  0.0123  0.2037
  935YOPE   GL112355  12.011   0.509   6.498  0.1001 -0.1700 -0.0997
  935YOPE   GL212356  12.110   0.147   6.512 -0.1863  0.1985  0.2149
  935YOPE   C1A12357  12.130   0.744   6.783  0.0115  0.1565 -0.0833
  935YOPE   D2A12358  11.947   0.987   7.059 -0.0097 -0.0086 -0.1128
  935YOPE   C3A12359  11.910   0.819   7.382 -0.2425 -0.2533 -0.0276
  935YOPE   C4A12360  11.838   0.996   7.703 -0.0686 -0.1382  0.2988
  935YOPE   C1B12361  12.269  -0.106   6.850  0.0746  0.0458 -0.0595
  935YOPE   C2B12362  12.506  -0.065   7.116  0.2025  0.1233  0.1344
  935YOPE   D3B12363  12.489   0.047   7.537  0.2539  0.0206  0.0346
  935YOPE   C4B12364  12.449  -0.084   8.075  0.2725 -0.2796 -0.1116
  936YOPE   NH312365  14.508   7.911   6.085 -0.2002 -0.2197  0.6113
  936YOPE   PO412366  14.536   8.271   6.162 -0.1690 -0.1146 -0.0806
  936YOPE   GL112367  14.363   8.271   6.543 -0.0909 -0.2508  0.0042
  936YOPE   GL212368  14.296   7.952   6.612  0.1995 -0.2039  0.0789
  936YOPE   C1A12369  14.173   8.437   6.956 -0.0904 -0.0999 -0.0924
  936YOPE   D2A12370  14.341   8.455   7.360  0.0036  0.3246  0.0077
  936YOPE   C3A12371  14.558   8.231   7.843  0.2619  0.1002  0.0950
  936YOPE   C4A12372  14.864   8.464   8.188  0.0164 -0.1928  0.1715
  936YOPE   C1B12373  13.947   7.821   6.879 -0.1320 -0.1077  0.0955
  936YOPE   C2B12374  13.743   7.765   7.261 -0.1279  0.0754  0.2204
  936YOPE   D3B12375  13.463   7.784   7.540  0.1661 -0.0900  0.1143
  936YOPE   C4B12376  13.367   7.977   7.984 -0.2689  0.1765  0.0560
  937YOPE   NH312377  10.556   8.981   6.262  0.0807  0.0236 -0.0921
  937YOPE   PO412378  10.131   9.210   6.112  0.0872  0.2413 -0.1654
  937YOPE   GL112379   9.909   9.549   6.419 -0.0210 -0.1495  0.0217
  937YOPE   GL212380   9.599   9.691   6.398 -0.0143 -0.1859 -0.2320
  937YOPE   C1A12381   9.746   9.521   6.862 -0.0359  0.3427  0.1045
  937YOPE   D2A12382   9.683   9.767   7.249 -0.0527 -0.1875 -0.1201
  937YOPE   C3A12383   9.334   9.804   7.493  0.0498  0.0541  0.2776
  937YOPE   C4A12384   8.929   9.887   7.448  0.3318 -0.0199  0.2606
  937YOPE   C1B12385   9.300   9.571   6.682 -0.2001  0.2186 -0.0966
  937YOPE   C2B12386   9.320   9.465   7.077  0.2006  0.3664  0.0967
  937YOPE   D3B12387   9.247   9.311   7.483  0.0968  0.1629 -0.0235
  937YOPE   C4B12388   9.005   9.191   7.856  0.0498  0.0958 -0.2174
  938YOPE   NH312389  10.274   8.001   5.922 -0.0245  0.3996  0.1022
  938YOPE   PO412390  10.432   7.546   5.918  0.0372  0.1560 -0.2188
  938YOPE   GL112391  10.565   7.498   6.308  0.1070 -0.0819 -0.1216
  938YOPE   GL212392  10.825   7.405   6.397  0.1649 -0.1273 -0.1659
  938YOPE   C1A12393  10.479   7.400   6.841  0.1597 -0.0509  0.3138
  938YOPE   D2A12394  10.444   7.124   7.157  0.1629  0.0498 -0.0874
  938YOPE   C3A12395  10.299   7.130   7.547  0.2428  0.2461  0.0254
  938YOPE   C4A12396  10.139   7.113   8.025 -0.1876  0.2974  0.1528
  938YOPE   C1B12397  11.097   7.314   6.786  0.0544  0.1539  0.0833
  938YOPE   C2B12398  11.031   7.394   7.185  0.1372  0.4213  0.1645
  938YOPE   D3B12399  10.775   7.394   7.549 -0.2221  0.0024  0.2988
  938YOPE   C4B12400  10.384   7.559   7.733 -0.0823 -0.1233  0.1186
  939YOPE   NH312401   9.523   6.676   5.728 -0.1265 -0.0872 -0.1216
  939YOPE   PO412402   9.258   7.050   5.496 -0.0091 -0.0345  0.3438
  939YOPE   GL112403   9.198   7.045   5.987  0.0918  0.2112 -0.0535
  939YOPE   GL212404   8.972   6.983   6.178 -0.3012  0.1313 -0.1697
  939YOPE   C1A12405   9.530   7.081   6.322 -0.3186 -0.0536  0.1085
  939YOPE   D2A12406  10.008   7.290   6.228  0.1437 -0.1068 -0.1654
  939YOPE   C3A12407  10.304   7.064   6.399 -0.3727 -0.0203 -0.2912
  939YOPE   C4A12408  10.539   6.844   6.713 -0.0820 -0.1328  0.0169
  939YOPE   C1B12409   8.934   7.075   6.678  0.0050 -0.0834  0.1661
  939YOPE   C2B12410   9.185   7.272   6.946  0.1984  0.0198 -0.1547
  939YOPE   D3B12411   9.238   7.460   7.317  0.1164  0.1919  0.0034
  939YOPE   C4B12412   9.208   7.394   7.784 -0.1721 -0.0285 -0.1323
  940YOPE   NH312413   2.044   5.116   6.074 -0.2588  0.1034  0.0854
  940YOPE   PO412414   2.388   5.399   5.803 -0.0485 -0.3594 -0.2722
  940YOPE   GL112415   2.675   5.734   6.084  0.1783  0.2750 -0.2785
  940YOPE   GL212416   2.949   5.962   5.951 -0.0483  0.0948 -0.0520
  940YOPE   C1A12417   2.945   5.681   6.449 -0.0051  0.1020 -0.0823
  940YOPE   D2A12418   2.966   5.536   6.816  0.1412  0.0051 -0.1099
  940YOPE   C3A12419   3.350   5.507   6.897  0.2707 -0.1430 -0.0913
  940YOPE   C4A12420   3.846   5.424   7.027  0.1129  0.1340  0.1183
  940YOPE   C1B12421   3.192   6.151   6.317 -0.1485  0.0913 -0.0741
  940YOPE   C2B12422   3.379   5.985   6.722 -0.1125  0.1150  0.0205
  940YOPE   D3B12423   3.118   5.963   7.136 -0.0323  0.0610 -0.2276
  940YOPE   C4B12424   3.127   6.022   7.628 -0.1094 -0.1411 -0.0415
  941YOPE   NH312425   7.414  11.162   5.549 -0.0776  0.1206  0.1216
  941YOPE   PO412426   7.818  11.254   5.572  0.0394  0.1104  0.1324
  941YOPE   GL112427   7.936  11.121   5.951  0.1449 -0.1245 -0.0146
  941YOPE   GL212428   8.231  11.060   6.005  0.1898  0.1406  0.0713
  941YOPE   C1A12429   7.668  10.808   6.155 -0.0125 -0.1024 -0.0198
  941YOPE   D2A12430   7.293  10.580   6.438 -0.3071  0.3422  0.2915
  941YOPE   C3A12431   7.318  10.818   6.871  0.0330 -0.3162  0.0454
  941YOPE   C4A12432   7.544  11.230   7.013 -0.1858  0.0426  0.0680
  941YOPE   C1B12433   8.464  11.299   6.390  0.2657  0.1613 -0.1024
  941YOPE   C2B12434   8.359  11.082   6.819 -0.2267  0.0638  0.0932
  941YOPE   D3B12435   8.403  10.625   6.982  0.2044  0.0241 -0.2139
  941YOPE   C4B12436   8.444  10.272   6.812  0.1085  0.1549  0.1633
  942POPC   NC312437  13.391  10.631   5.958 -0.1188  0.1280 -0.0128
  942POPC   PO412438  13.480  10.303   6.210  0.2655  0.2299  0.0758
  942POPC   GL112439  13.532  10.211   6.647 -0.0647  0.0736  0.0526
  942POPC   GL212440  13.587   9.946   6.635  0.0820 -0.0538 -0.2283
  942POPC   C1A12441  13.649  10.196   7.115  0.2846 -0.2904 -0.0706
  942POPC   D2A12442  13.791   9.826   7.387  0.1881  0.3975 -0.0928
  942POPC   C3A12443  13.920  10.016   7.736 -0.1452  0.3419  0.2610
  942POPC   C4A12444  13.785  10.313   8.088 -0.0222 -0.4005  0.2525
  942POPC   C1B12445  13.442   9.694   6.948  0.1737 -0.0276 -0.1009
  942POPC   C2B12446  13.253   9.657   7.343 -0.0423 -0.1181  0.1889
  942POPC   C3B12447  13.028   9.678   7.801  0.0665 -0.2211  0.2517
  942POPC   C4B12448  13.132   9.992   8.182  0.3402 -0.1059 -0.2257
  943POPC   NC312449  17.217   5.945   5.128 -0.0388  0.0039  0.0512
  943POPC   PO412450  17.278   5.995   5.618 -0.0522  0.2591  0.1893
  943POPC   GL112451  17.277   5.909   6.098  0.1054 -0.1311 -0.2774
  943POPC   GL212452  17.633   5.839   6.253  0.0467 -0.1464 -0.2559
  943POPC   C1A12453  17.082   6.021   6.377  0.0587  0.1579 -0.0596
  943POPC   D2A12454  16.720   5.831   6.702  0.2014  0.3199 -0.0989
  943POPC   C3A12455  16.400   5.686   6.422 -0.1188  0.5417 -0.0064
  943POPC   C4A12456  16.036   5.676   6.278 -0.0337 -0.1561  0.4180
  943POPC   C1B12457  17.579   5.993   6.740 -0.1415  0.2246  0.0771
  943POPC   C2B12458  17.481   6.136   7.209 -0.1413  0.0335 -0.0652
  943POPC   C3B12459  17.472   5.941   7.604 -0.1796  0.0621  0.1946
  943POPC   C4B12460  17.741   5.545   7.588 -0.0287 -0.0939  0.2504
  944POPC   NC312461   9.688  10.369   5.946  0.0505  0.1341  0.1454
  944POPC   PO412462   9.916  10.700   5.872  0.4780  0.2809 -0.4980
  944POPC   GL112463   9.921  10.540   6.340 -0.2843  0.5015  0.1736
  944POPC   GL212464  10.266  10.496   6.492 -0.1591 -0.1041  0.1130
  944POPC   C1A12465   9.870  10.513   6.746  0.1652 -0.0641  0.0302
  944POPC   D2A12466   9.582  10.670   7.079  0.1778  0.1334  0.4979
  944POPC   C3A12467   9.706  10.413   7.402  0.0040  0.0427  0.1476
  944POPC   C4A12468   9.600  10.459   7.805 -0.2550 -0.0547  0.0801
  944POPC   C1B12469  10.338  10.708   6.890  0.0336  0.2367  0.0267
  944POPC   C2B12470  10.317  10.692   7.346 -0.0474 -0.1936  0.0578
  944POPC   C3B12471  10.126  10.665   7.749  0.4954 -0.0273 -0.2273
  944POPC   C4B12472  10.085  10.515   8.160  0.0287 -0.1561 -0.1586
  945POPC   NC312473   1.989  13.228   5.574 -0.0636 -0.2101  0.2369
  945POPC   PO412474   1.616  12.913   5.784  0.1928  0.1413 -0.0534
  945POPC   GL112475   1.361  12.827   6.095 -0.2722 -0.2555 -0.0410
  945POPC   GL212476   1.470  13.108   6.210 -0.1068 -0.1003  0.1314
  945POPC   C1A12477   1.187  12.747   6.492 -0.0804  0.0783  0.2001
  945POPC   D2A12478   0.760  12.831   6.504  0.0490  0.0367 -0.2711
  945POPC   C3A12479   0.804  12.843   6.955 -0.0758  0.0999  0.2805
  945POPC   C4A12480   1.196  12.693   7.061 -0.0972 -0.2282 -0.1021
  945POPC   C1B12481   1.602  13.473   6.511 -0.2808 -0.0071 -0.0226
  945POPC   C2B12482   1.619  13.449   6.967 -0.0950  0.2709  0.0475
  945POPC   C3B12483   1.866  13.564   7.262 -0.0870  0.0497  0.3826
  945POPC   C4B12484   2.132  13.888   7.420  0.0005 -0.2713 -0.2006
  946POPC   NC312485   6.474   1.426   5.757 -0.0019 -0.0357 -0.0229
  946POPC   PO412486   6.854   1.204   5.727 -0.0742 -0.3987  0.1376
  946POPC   GL112487   6.778   1.238   6.131  0.0570  0.1208 -0.0762
  946POPC   GL212488   7.040   1.389   6.316  0.1275  0.0231  0.1155
  946POPC   C1A12489   6.697   0.969   6.524 -0.1911  0.2110 -0.0699
  946POPC   D2A12490   6.488   0.776   7.011 -0.0052  0.3426  0.0153
  946POPC   C3A12491   6.430   0.867   7.445 -0.0720  0.0209 -0.1138
  946POPC   C4A12492   6.379   1.119   7.741 -0.2534 -0.1129  0.0736
  946POPC   C1B12493   7.197   1.576   6.621 -0.0025  0.0035 -0.2148
  946POPC   C2B12494   7.607   1.326   6.979  0.2681 -0.1383 -0.3058
  946POPC   C3B12495   7.764   1.393   7.274 -0.1866  0.2231  0.1225
  946POPC   C4B12496   7.640   1.461   7.614  0.2089 -0.0410  0.3627
  947POPC   NC312497   2.493   6.375   5.451 -0.0094  0.2611 -0.1985
  947POPC   PO412498   2.867   6.221   5.476 -0.1618 -0.1687 -0.2764
  947POPC   GL112499   2.895   6.542   5.811  0.2153 -0.0247  0.2133
  947POPC   GL212500   2.629   6.325   5.910 -0.0945 -0.0884 -0.0650
  947POPC   C1A12501   2.846   6.640   6.374 -0.1073  0.2826  0.1419
  947POPC   D2A12502   2.862   6.736   6.727 -0.1372 -0.1096  0.0443
  947POPC   C3A12503   2.779   6.892   7.067  0.2426  0.0982 -0.0288
  947POPC   C4A12504   2.844   6.975   7.480  0.3657  0.0972 -0.1199
  947POPC   C1B12505   2.704   6.138   6.368  0.2225 -0.0062  0.0676
  947POPC   C2B12506   2.871   6.190   6.731 -0.0717  0.1755 -0.4334
  947POPC   C3B12507   2.816   6.369   7.175  0.1671  0.1529  0.0550
  947POPC   C4B12508   2.972   6.532   7.580  0.0071  0.1961  0.3306
  948POPC   NC312509   1.699  15.044   5.692  0.0069  0.0883 -0.0444
  948POPC   PO412510   2.031  15.218   5.829  0.0107  0.0384 -0.0054
  948POPC   GL112511   1.897  15.194   6.251 -0.1261  0.2812 -0.0024
  948POPC   GL212512   2.143  15.499   6.379 -0.1641  0.4318  0.2014
  948POPC   C1A12513   1.636  15.012   6.550 -0.0460  0.2665  0.1524
  948POPC   D2A12514   1.533  14.780   6.903  0.2750 -0.2222 -0.1675
  948POPC   C3A12515   1.885  14.856   7.157  0.3233 -0.0906 -0.1100
  948POPC   C4A12516   2.238  14.919   7.541 -0.0063 -0.1203 -0.1649
  948POPC   C1B12517   2.438  15.391   6.632 -0.0498 -0.2016 -0.2208
  948POPC   C2B12518   2.612  15.540   7.016  0.1723 -0.0199  0.1264
  948POPC   C3B12519   2.673  15.899   6.980 -0.0802  0.3956 -0.1773
  948POPC   C4B12520   2.469  16.203   6.993 -0.1892 -0.1932  0.0781
  949POPC   NC312521   0.836  13.223   5.373  0.1252 -0.0009  0.1346
  949POPC   PO412522   0.461  13.268   5.513  0.0090  0.0129  0.0192
  949POPC   GL112523   0.218  13.196   5.958  0.0099  0.1629  0.4577
  949POPC   GL212524   0.269  13.596   6.102  0.0807  0.0409  0.0472
  949POPC   C1A12525  -0.160  13.295   6.172  0.0284  0.0009 -0.1406
  949POPC   D2A12526  -0.382  13.582   6.436  0.0301 -0.2269  0.1552
  949POPC   C3A12527  -0.296  13.558   6.911  0.3023 -0.0238  0.2127
  949POPC   C4A12528  -0.337  13.702   7.281 -0.3123  0.1009 -0.2310
  949POPC   C1B12529   0.215  13.472   6.398  0.0420  0.3535 -0.0178
  949POPC   C2B12530   0.200  13.533   6.840 -0.1279  0.1269 -0.2499
  949POPC   C3B12531   0.057  13.367   7.285  0.0625  0.1898 -0.1741
  949POPC   C4B12532  -0.261  13.233   7.560 -0.1403 -0.2833 -0.0544
  950POPC   NC312533  11.663  13.281   5.089 -0.2877  0.0652  0.3322
  950POPC   PO412534  11.310  13.485   5.373 -0.3574 -0.1195  0.0078
  950POPC   GL112535  11.417  13.467   5.751  0.0231 -0.1014 -0.1094
  950POPC   GL212536  11.395  13.194   5.949  0.2059 -0.2794 -0.0868
  950POPC   C1A12537  11.326  13.666   6.161  0.1230  0.1849  0.0191
  950POPC   D2A12538  11.033  13.922   6.318  0.0177 -0.0332 -0.0681
  950POPC   C3A12539  11.200  14.356   6.530 -0.1015 -0.1252  0.1423
  950POPC   C4A12540  11.236  14.812   6.409 -0.1566  0.0637 -0.0887
  950POPC   C1B12541  11.341  12.959   6.377  0.0159 -0.1224 -0.3998
  950POPC   C2B12542  11.336  12.930   6.885  0.1078 -0.0583  0.1870
  950POPC   C3B12543  11.241  12.948   7.320 -0.2243  0.1748  0.0657
  950POPC   C4B12544  11.403  12.771   7.733  0.0538  0.2569  0.1377
  951POPC   NC312545   7.584  14.648   5.051  0.0998 -0.1666 -0.0088
  951POPC   PO412546   7.656  14.585   5.589 -0.3037  0.0940 -0.4925
  951POPC   GL112547   7.856  14.788   5.936  0.0975  0.2507 -0.0924
  951POPC   GL212548   8.170  14.836   5.904  0.0312 -0.3789 -0.1405
  951POPC   C1A12549   8.095  14.768   6.346 -0.1245 -0.0065  0.0766
  951POPC   D2A12550   8.325  14.566   6.605 -0.1128 -0.2465 -0.2227
  951POPC   C3A12551   8.197  14.683   6.992  0.0927 -0.0371  0.2963
  951POPC   C4A12552   7.988  14.568   7.383  0.1751 -0.0255  0.0078
  951POPC   C1B12553   8.537  14.715   6.089 -0.2900  0.0203  0.0617
  951POPC   C2B12554   8.687  14.849   6.402  0.3363  0.0962  0.1402
  951POPC   C3B12555   8.418  15.091   6.685  0.5404  0.1763 -0.0674
  951POPC   C4B12556   8.370  15.145   7.175 -0.1546 -0.2559  0.3282
  952POPC   NC312557  12.559   2.586   6.130  0.1174  0.1080  0.3335
  952POPC   PO412558  12.304   2.217   5.990  0.0021 -0.1058  0.0611
  952POPC   GL112559  12.149   2.260   6.400  0.0834 -0.3892  0.1301
  952POPC   GL212560  11.932   2.354   6.634  0.2260 -0.2886  0.2627
  952POPC   C1A12561  12.213   2.064   6.862 -0.1019  0.0430  0.1998
  952POPC   D2A12562  12.158   2.055   7.297 -0.2155 -0.0341 -0.5333
  952POPC   C3A12563  12.210   1.780   7.608  0.0286  0.2588  0.0600
  952POPC   C4A12564  12.301   1.369   7.838  0.1987 -0.1137 -0.2464
  952POPC   C1B12565  11.744   2.545   6.930  0.0102 -0.3120  0.0678
  952POPC   C2B12566  11.938   2.494   7.277 -0.1092 -0.0620 -0.0617
  952POPC   C3B12567  12.049   2.410   7.754  0.0820 -0.0046  0.3597
  952POPC   C4B12568  11.961   2.100   8.055 -0.0469 -0.0965  0.0030
  953POPC   NC312569   7.396   8.213   5.931  0.0889 -0.2259 -0.1290
  953POPC   PO412570   7.701   8.446   5.919  0.1270  0.2095  0.5706
  953POPC   GL112571   7.704   8.438   6.397  0.0259 -0.0219 -0.2585
  953POPC   GL212572   7.407   8.448   6.383  0.2277 -0.2929 -0.2569
  953POPC   C1A12573   7.628   8.216   6.834 -0.1111  0.3629  0.1779
  953POPC   D2A12574   7.597   8.020   7.339 -0.2558  0.1052 -0.0022
  953POPC   C3A12575   7.968   7.897   7.617  0.2472 -0.0671 -0.0818
  953POPC   C4A12576   8.231   7.806   7.926  0.1108 -0.2303  0.1776
  953POPC   C1B12577   7.165   8.521   6.837 -0.1049  0.3937 -0.4681
  953POPC   C2B12578   7.135   8.249   7.195  0.0596  0.2470 -0.0395
  953POPC   C3B12579   7.221   8.255   7.582 -0.0072  0.2295 -0.0333
  953POPC   C4B12580   6.937   8.178   7.903  0.2040  0.2128  0.1479
  954POPC   NC312581   1.383  11.461   4.979 -0.1139  0.2232  0.4172
  954POPC   PO412582   1.262  11.292   5.281 -0.3210  0.0728  0.1689
  954POPC   GL112583   1.096  11.385   5.752  0.4214 -0.2596  0.0034
  954POPC   GL212584   0.932  11.026   5.878 -0.1273  0.1318 -0.1239
  954POPC   C1A12585   0.856  11.558   6.092 -0.1910  0.1695  0.0581
  954POPC   D2A12586   0.398  11.440   6.140 -0.0053  0.0600  0.0895
  954POPC   C3A12587   0.147  11.781   6.333  0.2504  0.2622  0.4243
  954POPC   C4A12588   0.165  12.005   6.771 -0.0355 -0.1080  0.3997
  954POPC   C1B12589   1.069  11.189   6.265 -0.1053  0.2460 -0.1419
  954POPC   C2B12590   0.972  11.187   6.687  0.0329 -0.0402  0.1067
  954POPC   C3B12591   1.066  11.559   6.766  0.0993  0.2305  0.0739
  954POPC   C4B12592   1.149  11.924   6.461 -0.3274 -0.1687 -0.0709
  955POPC   NC312593   6.023  11.576   5.610 -0.2421 -0.3306  0.0338
  955POPC   PO412594   6.502  11.449   5.617 -0.3441  0.0099 -0.2184
  955POPC   GL112595   6.754  11.646   5.929  0.0958  0.2386  0.2834
  955POPC   GL212596   6.893  11.975   6.086  0.1734  0.3474  0.0262
  955POPC   C1A12597   6.941  11.404   6.269  0.0643  0.0361  0.2826
  955POPC   D2A12598   7.233  11.308   6.642 -0.3421 -0.1553 -0.3873
  955POPC   C3A12599   7.245  11.706   6.898  0.2525 -0.0482  0.0769
  955POPC   C4A12600   7.334  12.108   7.116  0.1454  0.2075 -0.0873
  955POPC   C1B12601   7.241  11.805   6.216  0.1496 -0.0007 -0.0587
  955POPC   C2B12602   7.644  11.598   6.569 -0.0151 -0.0271  0.2269
  955POPC   C3B12603   7.722  11.142   6.601 -0.0102  0.3335 -0.0161
  955POPC   C4B12604   7.929  10.893   6.962  0.2312  0.2231 -0.2552
  956POPC   NC312605   9.593  14.058   4.887  0.0473 -0.0714 -0.0504
  956POPC   PO412606   9.331  14.082   5.302 -0.1774  0.0071  0.2969
  956POPC   GL112607   9.039  13.942   5.666 -0.0305  0.2305  0.1186
  956POPC   GL212608   9.075  13.669   5.775  0.0704  0.2609  0.4192
  956POPC   C1A12609   9.032  14.044   6.109 -0.3032 -0.3200 -0.3383
  956POPC   D2A12610   9.228  14.032   6.539 -0.2193 -0.1001 -0.0776
  956POPC   C3A12611   9.179  14.180   6.860 -0.0550 -0.0353  0.0307
  956POPC   C4A12612   9.374  14.102   7.322  0.0548  0.2600 -0.0306
  956POPC   C1B12613   9.076  13.451   6.139  0.0067 -0.0193 -0.0896
  956POPC   C2B12614   9.095  13.391   6.594 -0.0274 -0.0796  0.0540
  956POPC   C3B12615   9.104  13.296   6.974 -0.1455  0.0785  0.2821
  956POPC   C4B12616   9.094  13.354   7.405  0.0395 -0.1849  0.1343
  957POPC   NC312617   1.913   7.874   5.467  0.2275 -0.1272 -0.0853
  957POPC   PO412618   1.719   7.496   5.686 -0.0598  0.0577 -0.0910
  957POPC   GL112619   1.995   7.328   5.960  0.2795 -0.0189  0.0984
  957POPC   GL212620   2.144   7.687   6.051  0.2856  0.2626 -0.1348
  957POPC   C1A12621   2.162   7.115   6.383 -0.0602  0.0718  0.0910
  957POPC   D2A12622   2.309   7.129   6.885 -0.1103  0.1791  0.2480
  957POPC   C3A12623   2.559   7.373   7.199 -0.0697 -0.0491  0.2821
  957POPC   C4A12624   2.925   7.431   7.501  0.0517  0.1858 -0.5238
  957POPC   C1B12625   1.896   7.713   6.374  0.2307 -0.2537 -0.0720
  957POPC   C2B12626   1.790   7.768   6.768  0.0877 -0.3621  0.1480
  957POPC   C3B12627   1.862   7.754   7.125 -0.1729  0.2296 -0.2205
  957POPC   C4B12628   2.199   7.648   7.336  0.5122 -0.0545 -0.0343
  958POPC   NC312629   6.998   4.112   5.168  0.2614 -0.3729 -0.0588
  958POPC   PO412630   7.069   3.930   5.547 -0.1771 -0.1338  0.2302
  958POPC   GL112631   6.992   3.680   5.925 -0.0605  0.2754  0.1581
  958POPC   GL212632   6.879   3.450   6.010  0.0207  0.2178 -0.0122
  958POPC   C1A12633   6.864   3.827   6.356 -0.1173  0.2026 -0.0638
  958POPC   D2A12634   6.811   3.906   6.708 -0.0483 -0.0937 -0.0444
  958POPC   C3A12635   7.015   4.036   7.101 -0.1772  0.1866 -0.1242
  958POPC   C4A12636   7.367   4.184   7.438 -0.2232  0.1704 -0.4326
  958POPC   C1B12637   6.637   3.391   6.424  0.2023  0.2510  0.0142
  958POPC   C2B12638   6.520   3.479   6.853 -0.0940 -0.1079  0.0467
  958POPC   C3B12639   6.679   3.587   7.085  0.1879  0.2132  0.1878
  958POPC   C4B12640   6.649   3.430   7.402 -0.3212  0.3581 -0.3631
  959POPC   NC312641   3.829  18.049   5.397 -0.1093  0.0019 -0.0641
  959POPC   PO412642   3.968  17.917   5.838  0.1680  0.1818  0.0164
  959POPC   GL112643   3.842  17.896   6.321  0.1800 -0.1425  0.0772
  959POPC   GL212644   3.710  18.197   6.481 -0.1869  0.5702 -0.0040
  959POPC   C1A12645   3.930  17.762   6.772  0.0238  0.1001  0.2470
  959POPC   D2A12646   3.857  17.754   7.142 -0.0866  0.1378  0.1525
  959POPC   C3A12647   3.635  18.080   7.387  0.0488  0.3510 -0.0222
  959POPC   C4A12648   3.534  18.150   7.925 -0.0723 -0.2387  0.0310
  959POPC   C1B12649   3.489  18.237   6.836  0.0594  0.2136 -0.0121
  959POPC   C2B12650   3.544  18.524   7.152  0.2029 -0.0668 -0.2573
  959POPC   C3B12651   3.486  18.569   7.639  0.2572 -0.3397 -0.0400
  959POPC   C4B12652   3.511  18.604   8.109  0.0519  0.0941 -0.0741
  960POPC   NC312653   0.887   2.281   5.941  0.3417  0.2286 -0.0512
  960POPC   PO412654   0.809   1.927   5.845 -0.3940 -0.0010 -0.0007
  960POPC   GL112655   0.632   2.046   6.289  0.1552 -0.6870 -0.1124
  960POPC   GL212656   0.449   1.810   6.190 -0.0268  0.1102 -0.2709
  960POPC   C1A12657   0.806   2.008   6.698 -0.0838 -0.2235 -0.0750
  960POPC   D2A12658   1.020   1.733   7.067  0.2368 -0.3910  0.2871
  960POPC   C3A12659   1.094   1.958   7.450  0.0291  0.1042  0.1090
  960POPC   C4A12660   0.904   2.034   7.824 -0.0381  0.2048  0.0442
  960POPC   C1B12661   0.199   1.794   6.528 -0.1129 -0.0436 -0.1062
  960POPC   C2B12662   0.040   1.825   6.974 -0.3805 -0.2478  0.1970
  960POPC   C3B12663   0.016   1.980   7.413  0.1661 -0.0377  0.0633
  960POPC   C4B12664   0.025   2.248   7.706 -0.0904 -0.1711 -0.2339
  961POPC   NC312665  16.547   7.380   5.614 -0.0001 -0.0828  0.2646
  961POPC   PO412666  16.776   7.091   5.836  0.1366 -0.2574  0.1401
  961POPC   GL112667  16.873   7.407   6.118  0.1060  0.2377  0.0988
  961POPC   GL212668  16.884   7.696   5.933  0.1110 -0.0933  0.0546
  961POPC   C1A12669  16.846   7.673   6.545  0.0006 -0.0957 -0.5906
  961POPC   D2A12670  16.917   7.756   7.003 -0.0533 -0.2954  0.0610
  961POPC   C3A12671  17.218   8.008   7.187 -0.0824 -0.0123 -0.2690
  961POPC   C4A12672  17.612   7.955   7.375 -0.4174  0.1347  0.1224
  961POPC   C1B12673  17.289   7.899   5.895 -0.0142 -0.1889  0.0224
  961POPC   C2B12674  17.724   7.937   6.058  0.1324  0.1067 -0.0933
  961POPC   C3B12675  17.741   8.305   6.417  0.2253  0.3192  0.1764
  961POPC   C4B12676  17.928   8.663   6.496  0.2175  0.1220 -0.2771
  962POPC   NC312677  18.025  16.693   6.019  0.0532  0.0703 -0.3942
  962POPC   PO412678  18.406  16.772   6.209 -0.3253 -0.0458  0.1933
  962POPC   GL112679  18.485  16.592   6.591  0.1343 -0.2152  0.0218
  962POPC   GL212680  18.853  16.548   6.715  0.1113 -0.2149  0.3257
  962POPC   C1A12681  18.438  16.638   7.039  0.0091  0.1465  0.0452
  962POPC   D2A12682  18.231  16.603   7.374  0.2237  0.0315  0.0324
  962POPC   C3A12683  18.066  16.874   7.803 -0.0527  0.0606 -0.1110
  962POPC   C4A12684  18.136  17.158   8.102 -0.2078 -0.1855  0.1185
  962POPC   C1B12685  18.991  16.693   7.026 -0.2328 -0.0067  0.0900
  962POPC   C2B12686  18.710  16.633   7.438 -0.2242  0.2124 -0.1378
  962POPC   C3B12687  18.459  16.538   7.813  0.0224 -0.2057 -0.0706
  962POPC   C4B12688  18.222  16.563   8.245  0.3816 -0.1038  0.0046
  963POPC   NC312689  14.980   0.855   6.336 -0.2189 -0.0109 -0.2767
  963POPC   PO412690  15.429   0.921   6.385  0.2009  0.0113  0.0496
  963POPC   GL112691  15.509   1.095   6.702  0.1078  0.2182 -0.0943
  963POPC   GL212692  15.548   1.365   6.740 -0.0569  0.0956  0.0638
  963POPC   C1A12693  15.567   1.059   7.135  0.0783 -0.1144  0.0485
  963POPC   D2A12694  15.952   1.101   7.345 -0.1612  0.0108  0.2998
  963POPC   C3A12695  16.050   1.016   7.757 -0.2285 -0.3799 -0.1084
  963POPC   C4A12696  15.951   1.082   8.113  0.2540  0.0873  0.1051
  963POPC   C1B12697  15.307   1.642   7.080  0.0118  0.0983  0.3341
  963POPC   C2B12698  15.140   1.716   7.527 -0.1009 -0.0847 -0.1413
  963POPC   C3B12699  15.308   1.969   7.866 -0.2252 -0.1188  0.0915
  963POPC   C4B12700  15.455   2.118   8.159  0.2317 -0.2918 -0.2714
  964POPC   NC312701  17.549  12.298   5.393 -0.1827 -0.2515  0.2001
  964POPC   PO412702  17.640  12.568   5.696 -0.0551  0.3036  0.0646
  964POPC   GL112703  17.440  12.192   5.937  0.1109  0.0222  0.0211
  964POPC   GL212704  17.651  12.019   6.113  0.1780 -0.2317 -0.2276
  964POPC   C1A12705  17.345  12.183   6.414  0.1866 -0.3086 -0.1261
  964POPC   D2A12706  17.180  12.478   6.652  0.1284 -0.0154  0.0206
  964POPC   C3A12707  17.214  12.808   6.849 -0.0398 -0.2751  0.0454
  964POPC   C4A12708  17.508  12.897   7.149 -0.0816 -0.1661 -0.1175
  964POPC   C1B12709  17.897  12.109   6.429 -0.0695  0.0634 -0.1088
  964POPC   C2B12710  18.065  11.945   6.753  0.1811 -0.0318  0.0484
  964POPC   C3B12711  18.126  11.779   7.210  0.0144 -0.2140 -0.0292
  964POPC   C4B12712  18.172  11.281   7.209 -0.1645  0.2793  0.0385
  965POPC   NC312713   2.050   3.529   5.990  0.1422  0.3221  0.2306
  965POPC   PO412714   2.171   3.858   5.967 -0.2037 -0.1512 -0.0817
  965POPC   GL112715   2.257   4.055   6.330  0.2816 -0.0228 -0.4458
  965POPC   GL212716   2.513   4.224   6.290  0.0609 -0.0138 -0.2141
  965POPC   C1A12717   2.116   4.002   6.768 -0.1181 -0.2513 -0.0943
  965POPC   D2A12718   2.069   3.909   7.252  0.3667 -0.2623 -0.0627
  965POPC   C3A12719   2.046   4.281   7.446 -0.0861  0.1211 -0.0241
  965POPC   C4A12720   2.011   4.719   7.524  0.1016 -0.0464 -0.0532
  965POPC   C1B12721   2.269   4.459   6.632 -0.0680 -0.1386 -0.2270
  965POPC   C2B12722   2.253   4.482   7.069  0.2416  0.1417  0.2164
  965POPC   C3B12723   2.466   4.791   7.287 -0.3302  0.1884 -0.0355
  965POPC   C4B12724   2.732   4.780   7.724  0.2830 -0.2332 -0.4217
  966POPC   NC312725  18.253  13.434   5.554 -0.2332 -0.3636  0.2984
  966POPC   PO412726  17.938  13.769   5.470 -0.1878  0.3644 -0.0505
  966POPC   GL112727  17.648  13.750   5.906 -0.0059 -0.2590  0.0060
  966POPC   GL212728  17.735  13.479   5.923  0.0021  0.1162 -0.1433
  966POPC   C1A12729  17.536  13.751   6.337  0.3410 -0.0007 -0.0441
  966POPC   D2A12730  17.592  13.712   6.811  0.0765  0.1734  0.1306
  966POPC   C3A12731  17.547  13.886   7.215  0.2991  0.0578  0.2642
  966POPC   C4A12732  17.210  13.619   7.512  0.1859 -0.2585 -0.1002
  966POPC   C1B12733  17.542  13.213   6.308 -0.1429 -0.1995  0.2504
  966POPC   C2B12734  17.591  13.220   6.758 -0.1516  0.1404  0.3939
  966POPC   C3B12735  17.683  13.336   7.187 -0.2453  0.4655 -0.0417
  966POPC   C4B12736  17.671  13.535   7.563 -0.3685 -0.0687 -0.1896
  967POPC   NC312737   7.978   4.336   5.801  0.0036  0.0046 -0.0864
  967POPC   PO412738   7.880   4.675   5.632 -0.0250  0.1558 -0.0609
  967POPC   GL112739   7.708   4.763   5.973  0.3380 -0.3673 -0.1064
  967POPC   GL212740   7.809   4.937   6.159 -0.1433 -0.3861 -0.0397
  967POPC   C1A12741   7.583   4.629   6.431  0.1384 -0.2188 -0.0110
  967POPC   D2A12742   7.543   4.524   6.881  0.2513 -0.2194  0.0517
  967POPC   C3A12743   7.492   4.680   7.295 -0.1773  0.3312  0.2218
  967POPC   C4A12744   7.409   4.558   7.760  0.0288  0.2744 -0.0088
  967POPC   C1B12745   7.746   5.142   6.477 -0.2541 -0.2916  0.1608
  967POPC   C2B12746   7.973   5.268   6.808  0.1352 -0.1495 -0.0873
  967POPC   C3B12747   8.134   5.213   7.242 -0.1539  0.2207  0.1795
  967POPC   C4B12748   8.015   5.313   7.647  0.0226 -0.1523 -0.1306
  968POPC   NC312749  10.203  13.082   5.332  0.1757 -0.1325  0.0812
  968POPC   PO412750  10.182  12.879   5.771  0.3086  0.0637 -0.2472
  968POPC   GL112751  10.580  13.130   5.889 -0.0488  0.2637 -0.0057
  968POPC   GL212752  10.407  13.179   6.122 -0.0275  0.1934  0.1610
  968POPC   C1A12753  10.850  13.363   6.198  0.1897 -0.0811  0.2331
  968POPC   D2A12754  11.061  13.424   6.591 -0.1408  0.2424  0.0135
  968POPC   C3A12755  11.430  13.697   6.645  0.3438 -0.0069  0.2574
  968POPC   C4A12756  11.675  14.108   6.757  0.3712 -0.0099  0.2380
  968POPC   C1B12757  10.527  13.220   6.582  0.4093  0.1739 -0.1785
  968POPC   C2B12758  10.378  13.333   7.014 -0.0522  0.1050  0.2166
  968POPC   C3B12759  10.464  13.623   7.336 -0.4163  0.1628  0.1466
  968POPC   C4B12760  10.209  13.709   7.667  0.0368 -0.0937  0.1542
  969POPC   NC312761  15.247   3.565   5.757 -0.4856  0.1717  0.2199
  969POPC   PO412762  14.839   3.791   5.799  0.0906  0.1665  0.0253
  969POPC   GL112763  14.846   3.763   6.150  0.1308 -0.0687 -0.2143
  969POPC   GL212764  14.796   3.534   6.306  0.0957 -0.1721 -0.1315
  969POPC   C1A12765  15.066   3.896   6.519  0.0658  0.0882 -0.0141
  969POPC   D2A12766  15.219   4.102   6.957  0.2530  0.1969  0.1597
  969POPC   C3A12767  15.604   4.175   7.175 -0.2477  0.2632  0.2504
  969POPC   C4A12768  15.672   4.446   7.526  0.0978 -0.0433 -0.0142
  969POPC   C1B12769  14.616   3.731   6.658 -0.0617  0.0871 -0.0057
  969POPC   C2B12770  14.532   3.927   7.012  0.2178 -0.2140 -0.1079
  969POPC   C3B12771  14.823   3.920   7.286 -0.0733  0.0388  0.5400
  969POPC   C4B12772  14.956   3.884   7.684  0.2874  0.2226  0.1233
  970POPC   NC312773  11.341   4.520   5.496  0.3319 -0.0268  0.4707
  970POPC   PO412774  11.238   4.192   5.779  0.0199  0.2185  0.2454
  970POPC   GL112775  11.278   4.474   6.191 -0.0534 -0.1135  0.0526
  970POPC   GL212776  11.435   4.221   6.439  0.0572  0.2599  0.0879
  970POPC   C1A12777  10.939   4.605   6.492 -0.0257 -0.1046 -0.0793
  970POPC   D2A12778  10.739   4.487   6.743 -0.0224  0.1294  0.1635
  970POPC   C3A12779  10.289   4.371   6.875  0.1080 -0.0604 -0.2514
  970POPC   C4A12780  10.134   4.311   7.347 -0.1050 -0.1752 -0.0540
  970POPC   C1B12781  11.664   3.875   6.571  0.1113  0.1883 -0.1397
  970POPC   C2B12782  11.977   3.648   6.761 -0.3732 -0.0296 -0.1469
  970POPC   C3B12783  12.054   3.761   7.214  0.1817  0.0393 -0.1105
  970POPC   C4B12784  11.952   3.525   7.647 -0.1357  0.0332  0.0016
  971POPC   NC312785   5.667   8.340   5.446  0.1025 -0.0128 -0.0298
  971POPC   PO412786   5.352   8.725   5.550  0.0794  0.0931  0.3075
  971POPC   GL112787   5.104   8.587   5.823  0.0035  0.0314 -0.3160
  971POPC   GL212788   4.908   8.271   5.924  0.0971  0.0127 -0.0006
  971POPC   C1A12789   4.990   8.910   6.197  0.2109 -0.0044  0.1674
  971POPC   D2A12790   4.599   9.026   6.221 -0.1728 -0.1361 -0.2811
  971POPC   C3A12791   4.315   8.895   6.438 -0.1598  0.0795 -0.3690
  971POPC   C4A12792   4.042   9.241   6.571 -0.0622 -0.1427  0.3733
  971POPC   C1B12793   4.723   8.497   6.376 -0.3737 -0.1700 -0.1668
  971POPC   C2B12794   4.781   8.718   6.681  0.1704  0.2489 -0.2821
  971POPC   C3B12795   4.590   8.734   7.027  0.1991  0.2181  0.0221
  971POPC   C4B12796   4.288   8.450   7.212  0.0901 -0.3188  0.3118
  972POPC   NC312797   4.975   2.055   5.643 -0.0947  0.2051 -0.0546
  972POPC   PO412798   5.349   2.328   5.600  0.3333 -0.0197 -0.0181
  972POPC   GL112799   5.328   2.533   5.940  0.0174  0.1494  0.0694
  972POPC   GL212800   5.500   2.357   6.131  0.2417  0.2111  0.3775
  972POPC   C1A12801   5.003   2.465   6.337  0.0005 -0.3716  0.1661
  972POPC   D2A12802   4.932   2.587   6.804 -0.1545  0.0235  0.0340
  972POPC   C3A12803   4.691   2.823   7.087 -0.1781 -0.0801 -0.1061
  972POPC   C4A12804   4.609   3.178   6.865  0.2363 -0.3332 -0.2357
  972POPC   C1B12805   5.513   2.564   6.508  0.2732 -0.1117  0.1093
  972POPC   C2B12806   5.450   2.589   6.986  0.1176 -0.3689  0.0555
  972POPC   C3B12807   5.122   2.567   7.284  0.0471 -0.0788 -0.2422
  972POPC   C4B12808   5.357   2.507   7.623  0.0839 -0.1247  0.0847
  973POPC   NC312809  11.869  15.179   5.663  0.1384 -0.4194 -0.3428
  973POPC   PO412810  12.191  15.472   5.579  0.3356  0.0062  0.1404
  973POPC   GL112811  11.912  15.649   5.832 -0.0780  0.0962 -0.0976
  973POPC   GL212812  11.997  16.008   5.930  0.0464 -0.0262  0.2486
  973POPC   C1A12813  11.819  15.555   6.187  0.1442 -0.0371  0.0442
  973POPC   D2A12814  11.615  15.343   6.522  0.1050 -0.1611 -0.2414
  973POPC   C3A12815  11.169  15.276   6.562  0.1804  0.1478 -0.0678
  973POPC   C4A12816  10.758  15.108   6.348 -0.1777  0.2550  0.0459
  973POPC   C1B12817  12.239  15.901   6.204  0.0532  0.0208  0.1590
  973POPC   C2B12818  12.057  15.728   6.582  0.0532 -0.5103  0.0959
  973POPC   C3B12819  11.698  15.785   6.825  0.0102  0.1424  0.0480
  973POPC   C4B12820  11.469  15.507   7.003 -0.1998 -0.1042  0.1570
  974POPC   NC312821   6.807   4.895   5.815  0.2104  0.2197  0.0117
  974POPC   PO412822   7.065   5.218   5.790  0.1917 -0.0772 -0.1242
  974POPC   GL112823   6.964   5.215   6.232 -0.1873 -0.0943 -0.1146
  974POPC   GL212824   7.215   5.055   6.295  0.0863 -0.2321  0.3578
  974POPC   C1A12825   6.728   5.332   6.493 -0.1282 -0.0293 -0.2129
  974POPC   D2A12826   6.671   5.455   6.844  0.1650  0.0854  0.2118
  974POPC   C3A12827   6.770   5.454   7.294  0.2155 -0.2479 -0.0571
  974POPC   C4A12828   6.840   5.682   7.648  0.3494 -0.1846  0.4370
  974POPC   C1B12829   7.240   4.943   6.702  0.0218 -0.0370 -0.0614
  974POPC   C2B12830   7.531   5.060   6.920  0.0488  0.3018  0.1242
  974POPC   C3B12831   7.633   5.247   7.322 -0.0733  0.1887  0.0867
  974POPC   C4B12832   7.485   5.047   7.668  0.1434  0.0812 -0.0683
  975POPC   NC312833   3.856  13.103   5.644  0.0586 -0.0963  0.2816
  975POPC   PO412834   3.796  12.751   5.548 -0.1364  0.0323  0.1186
  975POPC   GL112835   3.877  12.650   5.971  0.2102 -0.0616 -0.0841
  975POPC   GL212836   4.211  12.799   6.052 -0.0086  0.0503 -0.0415
  975POPC   C1A12837   3.979  12.312   6.209  0.2550 -0.4137 -0.1794
  975POPC   D2A12838   4.024  11.835   6.318  0.2672 -0.1172 -0.3858
  975POPC   C3A12839   3.997  11.823   6.799  0.2047  0.1396 -0.1943
  975POPC   C4A12840   3.790  11.860   7.274 -0.1009 -0.0403 -0.3709
  975POPC   C1B12841   4.091  12.795   6.488  0.1165 -0.0254 -0.1857
  975POPC   C2B12842   4.028  12.747   6.934 -0.1387 -0.0303 -0.1706
  975POPC   C3B12843   4.024  12.904   7.368 -0.0384  0.0428 -0.1456
  975POPC   C4B12844   4.267  13.352   7.533  0.0961  0.3323  0.3266
  976POPC   NC312845   6.212   0.847   6.100  0.2225  0.0651  0.2383
  976POPC   PO412846   6.297   0.424   6.187 -0.0892 -0.0596  0.0358
  976POPC   GL112847   6.109   0.190   6.485  0.1642 -0.0106 -0.0941
  976POPC   GL212848   5.942  -0.060   6.502 -0.0884 -0.2220  0.3145
  976POPC   C1A12849   5.993   0.313   6.944 -0.0718  0.1939  0.0229
  976POPC   D2A12850   5.848   0.289   7.391  0.3097  0.0386  0.1836
  976POPC   C3A12851   5.585   0.067   7.570  0.1575  0.0942  0.1854
  976POPC   C4A12852   5.394  -0.213   7.811 -0.0279 -0.4740 -0.2609
  976POPC   C1B12853   6.246  -0.187   6.777  0.2206 -0.0954 -0.0678
  976POPC   C2B12854   6.264  -0.077   7.253 -0.1552  0.2177  0.0125
  976POPC   C3B12855   6.578  -0.047   7.521 -0.0813 -0.2919  0.1130
  976POPC   C4B12856   6.824  -0.275   7.801 -0.3715 -0.0979  0.1253
  977POPC   NC312857   8.342  11.211   5.412 -0.0160 -0.1873  0.0595
  977POPC   PO412858   8.833  11.441   5.534 -0.0382 -0.1503  0.1438
  977POPC   GL112859   8.666  11.346   5.857 -0.1231  0.0861 -0.1306
  977POPC   GL212860   8.328  11.547   5.793 -0.0643  0.2540  0.3645
  977POPC   C1A12861   8.683  10.954   6.083  0.1610  0.0614 -0.1143
  977POPC   D2A12862   8.667  10.756   6.489  0.3888 -0.0928 -0.0164
  977POPC   C3A12863   8.287  10.646   6.526 -0.1018  0.2351 -0.0230
  977POPC   C4A12864   7.846  10.571   6.596 -0.0370  0.1517 -0.0450
  977POPC   C1B12865   8.037  11.639   6.196 -0.1576  0.1629  0.0139
  977POPC   C2B12866   8.153  11.550   6.672 -0.2052  0.0431 -0.4292
  977POPC   C3B12867   8.034  11.360   7.030  0.1088 -0.0193 -0.2441
  977POPC   C4B12868   8.331  11.028   7.301  0.1498  0.0381 -0.1654
  978POPC   NC312869   2.953  16.822   5.416 -0.1994 -0.2425 -0.1285
  978POPC   PO412870   3.120  16.947   5.779  0.1724 -0.1539 -0.1358
  978POPC   GL112871   3.166  17.139   6.212  0.0823  0.1957  0.2767
  978POPC   GL212872   3.434  17.264   6.354  0.0050  0.1120 -0.0780
  978POPC   C1A12873   3.157  17.039   6.651 -0.2081  0.0231 -0.2357
  978POPC   D2A12874   3.210  17.254   6.994  0.0468 -0.0441  0.2085
  978POPC   C3A12875   3.155  17.150   7.426  0.1681 -0.1357 -0.0564
  978POPC   C4A12876   3.257  17.011   7.791 -0.0303 -0.0440 -0.2659
  978POPC   C1B12877   3.454  17.610   6.575 -0.1714 -0.0328  0.0034
  978POPC   C2B12878   3.402  17.762   6.960 -0.1450 -0.3542  0.0887
  978POPC   C3B12879   3.254  17.657   7.326  0.2647  0.0326 -0.0662
  978POPC   C4B12880   3.189  17.945   7.647 -0.0813  0.3396  0.0965
  979POPC   NC312881  14.917  17.027   5.903  0.1622 -0.1990  0.0735
  979POPC   PO412882  14.528  17.170   5.898  0.1807 -0.2151 -0.0155
  979POPC   GL112883  14.674  17.157   6.348 -0.0270  0.4003 -0.2595
  979POPC   GL212884  14.903  17.218   6.559  0.1274 -0.0663  0.1079
  979POPC   C1A12885  14.477  17.013   6.730  0.2498  0.0065  0.0044
  979POPC   D2A12886  14.440  17.043   7.108  0.0156  0.0958 -0.1932
  979POPC   C3A12887  14.379  16.972   7.495  0.0561  0.0304  0.0778
  979POPC   C4A12888  14.036  16.743   7.744 -0.3655 -0.0297  0.1376
  979POPC   C1B12889  14.938  17.146   7.003 -0.0847  0.3614  0.1933
  979POPC   C2B12890  14.912  17.096   7.452 -0.1851  0.0235  0.1539
  979POPC   C3B12891  14.761  17.156   7.821  0.0623  0.2833  0.0390
  979POPC   C4B12892  14.480  16.958   8.164 -0.2091 -0.1471 -0.0852
  980POPC   NC312893  16.150  10.163   6.102 -0.1067 -0.2441  0.0807
  980POPC   PO412894  16.482  10.468   5.923 -0.0215  0.1404  0.2809
  980POPC   GL112895  16.475  10.530   6.348  0.1864  0.1504 -0.0411
  980POPC   GL212896  16.183  10.483   6.526  0.1359  0.2316 -0.1958
  980POPC   C1A12897  16.740  10.487   6.711  0.0413  0.1013  0.1786
  980POPC   D2A12898  16.922  10.353   7.079  0.1304  0.0388  0.2715
  980POPC   C3A12899  16.648  10.111   7.302 -0.1600 -0.1311 -0.1151
  980POPC   C4A12900  16.592  10.167   7.786  0.0872  0.1642 -0.0030
  980POPC   C1B12901  16.352  10.299   6.937 -0.0444  0.2231 -0.1448
  980POPC   C2B12902  16.185  10.436   7.227 -0.2321 -0.1240 -0.5084
  980POPC   C3B12903  16.249  10.560   7.520 -0.1107 -0.0521 -0.0333
  980POPC   C4B12904  15.995  10.821   7.845  0.3167 -0.2412 -0.1059
  981POPC   NC312905  13.737  11.453   6.323 -0.3389 -0.2304  0.3470
  981POPC   PO412906  13.887  11.855   6.249 -0.0067 -0.2402  0.2565
  981POPC   GL112907  14.043  12.104   6.543 -0.1871  0.1677 -0.0016
  981POPC   GL212908  14.187  11.849   6.716 -0.1297 -0.2746 -0.1484
  981POPC   C1A12909  13.987  12.462   6.806  0.1401 -0.0099 -0.0007
  981POPC   D2A12910  14.014  12.896   6.917  0.0803  0.4568  0.3206
  981POPC   C3A12911  13.997  13.009   7.359  0.1055 -0.2185  0.1437
  981POPC   C4A12912  14.061  12.698   7.667 -0.3327 -0.0150 -0.1340
  981POPC   C1B12913  14.079  11.982   7.075  0.0930 -0.2212  0.0327
  981POPC   C2B12914  14.028  11.992   7.539  0.1370 -0.0308 -0.0746
  981POPC   C3B12915  13.799  11.992   7.905 -0.1624  0.4521 -0.0024
  981POPC   C4B12916  13.602  11.660   8.071 -0.0774 -0.1652 -0.1013
  982YOPC   NC312917   6.975   8.710   5.181  0.0612 -0.0100 -0.0691
  982YOPC   PO412918   7.105   8.529   5.593 -0.4525  0.0079 -0.3558
  982YOPC   GL112919   7.303   8.808   5.976 -0.0243  0.0164 -0.1723
  982YOPC   GL212920   7.629   8.908   6.011 -0.1832 -0.1283  0.1022
  982YOPC   C1A12921   7.189   9.106   6.403 -0.2438 -0.1644  0.0272
  982YOPC   D2A12922   7.277   9.045   6.864 -0.0227 -0.0850 -0.0953
  982YOPC   C3A12923   7.052   8.831   7.156  0.0345  0.0558 -0.1456
  982YOPC   C4A12924   6.827   8.605   7.412  0.3906  0.0853 -0.2267
  982YOPC   C1B12925   7.616   8.903   6.451 -0.0364  0.2364  0.1479
  982YOPC   C2B12926   7.677   8.707   6.833 -0.1647 -0.2535 -0.1421
  982YOPC   D3B12927   7.522   8.635   7.273  0.0265 -0.1946 -0.4177
  982YOPC   C4B12928   7.693   8.683   7.645  0.0977  0.2319  0.0578
  983YOPC   NC312929  10.577  14.666   5.357 -0.0296  0.0532  0.2294
  983YOPC   PO412930  10.263  14.364   5.387 -0.0411  0.0955  0.1152
  983YOPC   GL112931  10.236  14.245   5.802  0.1729 -0.2938 -0.1678
  983YOPC   GL212932   9.953  14.369   5.856 -0.4190 -0.1646 -0.0407
  983YOPC   C1A12933  10.209  14.100   6.236 -0.1032  0.0202 -0.0783
  983YOPC   D2A12934   9.989  13.891   6.564 -0.4433 -0.0354 -0.1162
  983YOPC   C3A12935   9.680  13.918   6.834  0.0654 -0.1637  0.1894
  983YOPC   C4A12936   9.388  13.698   7.032 -0.1690  0.2561  0.1078
  983YOPC   C1B12937   9.774  14.690   5.951 -0.1165  0.1168 -0.0027
  983YOPC   C2B12938   9.489  14.825   6.164  0.0592 -0.1955  0.0330
  983YOPC   D3B12939   9.577  14.873   6.613  0.0841 -0.1773 -0.0737
  983YOPC   C4B12940   9.928  14.773   6.867  0.0933  0.1310 -0.0187
  984YOPC   NC312941  13.781   8.769   5.930  0.1979  0.2539 -0.3277
  984YOPC   PO412942  13.972   9.146   6.112 -0.1160 -0.1062  0.1465
  984YOPC   GL112943  13.996   9.392   6.474 -0.3195 -0.1354  0.1320
  984YOPC   GL212944  13.743   9.489   6.575 -0.0985 -0.1373  0.1877
  984YOPC   C1A12945  14.230   9.242   6.813  0.5542 -0.0344  0.2877
  984YOPC   D2A12946  14.385   8.894   7.023  0.1343  0.1144 -0.0459
  984YOPC   C3A12947  14.300   8.964   7.424 -0.1986 -0.0071 -0.0329
  984YOPC   C4A12948  14.498   8.743   7.790 -0.0115 -0.3987 -0.0223
  984YOPC   C1B12949  13.904   9.569   6.995 -0.2680  0.3161 -0.0123
  984YOPC   C2B12950  14.018   9.330   7.303  0.1282  0.0137 -0.2566
  984YOPC   D3B12951  13.927   9.175   7.723 -0.2531  0.2011  0.0128
  984YOPC   C4B12952  13.658   9.094   7.981  0.0459 -0.2033 -0.0532
  985YOPC   NC312953   3.729  15.822   5.649  0.2231 -0.0551 -0.0330
  985YOPC   PO412954   3.632  15.797   6.050 -0.5802 -0.0390 -0.0558
  985YOPC   GL112955   3.787  15.870   6.421  0.0835 -0.3791 -0.0200
  985YOPC   GL212956   4.072  15.954   6.285 -0.0363  0.1267 -0.2302
  985YOPC   C1A12957   3.551  15.989   6.764 -0.0352  0.1084 -0.2385
  985YOPC   D2A12958   3.109  16.129   6.978  0.2909 -0.2076  0.3767
  985YOPC   C3A12959   3.070  16.169   7.332  0.0767 -0.0661  0.0253
  985YOPC   C4A12960   2.926  16.193   7.770 -0.2599  0.1621 -0.1923
  985YOPC   C1B12961   4.157  15.987   6.780 -0.3925 -0.0575 -0.2927
  985YOPC   C2B12962   3.919  15.906   7.127 -0.0257 -0.0401 -0.0495
  985YOPC   D3B12963   3.515  15.920   7.353 -0.0314  0.2157 -0.2318
  985YOPC   C4B12964   3.325  15.905   7.804 -0.1632  0.1036 -0.0809
  986YOPC   NC312965   6.349   0.386   5.686 -0.0304  0.1801  0.3093
  986YOPC   PO412966   6.678   0.227   5.940 -0.0091 -0.0122  0.2701
  986YOPC   GL112967   6.751   0.286   6.373  0.0311 -0.0362 -0.1654
  986YOPC   GL212968   6.737  -0.050   6.521 -0.2903  0.1761  0.1207
  986YOPC   C1A12969   6.541   0.339   6.753  0.1659  0.1192 -0.3690
  986YOPC   D2A12970   6.412   0.381   7.267  0.4937 -0.0640 -0.0235
  986YOPC   C3A12971   6.264   0.258   7.681  0.2805 -0.0141  0.1105
  986YOPC   C4A12972   6.123  -0.087   7.907 -0.0111  0.5133  0.2784
  986YOPC   C1B12973   6.965   0.097   6.844  0.1421  0.0827  0.1587
  986YOPC   C2B12974   7.339   0.093   6.986 -0.0216 -0.0603 -0.0727
  986YOPC   D3B12975   7.511  -0.210   7.290 -0.2403  0.2227  0.0298
  986YOPC   C4B12976   7.278  -0.563   7.460  0.0475  0.1953  0.1496
  987YOPC   NC312977   6.121   6.544   5.462 -0.4017 -0.1141  0.0176
  987YOPC   PO412978   6.475   6.215   5.384 -0.0774  0.0433  0.1684
  987YOPC   GL112979   6.437   6.359   5.859 -0.0035  0.2374  0.2133
  987YOPC   GL212980   6.122   6.451   6.017  0.1196 -0.1627  0.1156
  987YOPC   C1A12981   6.546   6.599   6.264 -0.4287 -0.1744 -0.0160
  987YOPC   D2A12982   6.277   6.728   6.676 -0.0960  0.0132 -0.3304
  987YOPC   C3A12983   6.211   6.901   6.940 -0.1368  0.1710  0.3328
  987YOPC   C4A12984   6.188   7.363   7.070 -0.3587  0.0400  0.2741
  987YOPC   C1B12985   5.897   6.614   6.416  0.1246 -0.3320  0.1099
  987YOPC   C2B12986   5.623   6.395   6.574  0.0382  0.1476  0.1601
  987YOPC   D3B12987   5.423   6.591   7.044  0.0246  0.2756 -0.0634
  987YOPC   C4B12988   5.260   6.888   7.320  0.0115  0.0657 -0.3112
  988YOPC   NC312989   1.803  10.564   5.564 -0.1174 -0.2294 -0.1334
  988YOPC   PO412990   1.872  10.850   5.783 -0.1405  0.0964  0.0945
  988YOPC   GL112991   1.820  10.682   6.200  0.0140 -0.1493  0.2111
  988YOPC   GL212992   1.537  10.505   6.211  0.2007 -0.1161 -0.0059
  988YOPC   C1A12993   1.814  10.536   6.715  0.0882 -0.0611 -0.4040
  988YOPC   D2A12994   1.743  10.084   6.960  0.2819 -0.0281 -0.0426
  988YOPC   C3A12995   1.559  10.003   7.422  0.2092  0.2624  0.2027
  988YOPC   C4A12996   1.289  10.094   7.838  0.0836  0.0220  0.1712
  988YOPC   C1B12997   1.846  10.198   6.362  0.1962 -0.1553 -0.1713
  988YOPC   C2B12998   2.144  10.195   6.664  0.1236  0.3150 -0.1183
  988YOPC   D3B12999   2.251  10.450   7.038  0.1909  0.1984 -0.0887
  988YOPC   C4B13000   2.173  10.581   7.414 -0.3124  0.2403  0.1568
  989YOPC   NC313001   7.987   6.160   5.715  0.2897  0.3548 -0.0269
  989YOPC   PO413002   7.767   6.547   5.749 -0.2125  0.0669 -0.0367
  989YOPC   GL113003   7.801   6.648   6.112 -0.0585  0.0424 -0.2708
  989YOPC   GL213004   7.826   6.952   6.231  0.2139 -0.2125  0.1424
  989YOPC   C1A13005   7.691   6.479   6.500  0.2235  0.1402  0.0475
  989YOPC   D2A13006   7.910   6.187   6.759  0.2139  0.1605 -0.0586
  989YOPC   C3A13007   8.206   5.963   6.645  0.3147  0.2213  0.0618
  989YOPC   C4A13008   8.288   5.611   6.488 -0.1743  0.1612  0.0043
  989YOPC   C1B13009   7.597   6.923   6.621  0.2658 -0.0881  0.0563
  989YOPC   C2B13010   7.466   6.730   6.999  0.2477 -0.1312  0.0238
  989YOPC   D3B13011   7.600   6.520   7.263 -0.1206  0.0468 -0.3755
  989YOPC   C4B13012   7.902   6.214   7.267 -0.4293  0.0147  0.0225
  990YOPC   NC313013   9.974   2.784   5.640 -0.0922 -0.1979  0.1662
  990YOPC   PO413014   9.955   2.389   5.977  0.1442 -0.0284  0.1349
  990YOPC   GL113015   9.994   2.504   6.363 -0.0847  0.1673  0.1494
  990YOPC   GL213016  10.289   2.282   6.489  0.0563  0.0699  0.2199
  990YOPC   C1A13017  10.007   2.463   6.892  0.3945 -0.0794 -0.0146
  990YOPC   D2A13018  10.222   2.693   7.258 -0.0484 -0.1202 -0.1459
  990YOPC   C3A13019  10.385   2.387   7.573  0.2811  0.3284 -0.0448
  990YOPC   C4A13020  10.525   2.257   7.807  0.0741  0.0747 -0.0461
  990YOPC   C1B13021  10.538   2.316   6.898 -0.1737 -0.2770  0.3057
  990YOPC   C2B13022  10.642   2.113   7.290 -0.1862  0.0655 -0.0560
  990YOPC   D3B13023  10.894   1.771   7.209 -0.2435 -0.0286  0.1185
  990YOPC   C4B13024  11.282   1.719   7.154 -0.2390  0.2360 -0.0515
  991YOPC   NC313025  16.747  13.410   5.233  0.3583  0.0224 -0.1031
  991YOPC   PO413026  16.801  13.645   5.514 -0.1992 -0.0290 -0.0081
  991YOPC   GL113027  16.786  13.398   5.755  0.0385 -0.1206 -0.1306
  991YOPC   GL213028  16.402  13.430   5.710  0.0159 -0.3865  0.1909
  991YOPC   C1A13029  16.798  13.086   6.056 -0.3830  0.4070 -0.0637
  991YOPC   D2A13030  16.957  12.825   6.255 -0.0194  0.0317 -0.0060
  991YOPC   C3A13031  16.731  12.766   6.645 -0.1474 -0.2329 -0.1382
  991YOPC   C4A13032  16.704  13.050   7.066  0.1031 -0.1070  0.0203
  991YOPC   C1B13033  16.158  13.433   6.034  0.0058 -0.1598 -0.1455
  991YOPC   C2B13034  15.816  13.358   6.291  0.2778  0.0750 -0.0730
  991YOPC   D3B13035  15.851  13.272   6.607 -0.4356 -0.1077 -0.1731
  991YOPC   C4B13036  15.836  12.878   6.730 -0.0040  0.1302 -0.1660
  992YOPC   NC313037   0.965   6.380   5.509  0.2919 -0.0635  0.3087
  992YOPC   PO413038   0.634   6.585   5.717  0.2410  0.2682  0.1533
  992YOPC   GL113039   0.756   6.520   6.133 -0.2246  0.3548 -0.0362
  992YOPC   GL213040   1.130   6.632   6.030 -0.1164  0.1205  0.0736
  992YOPC   C1A13041   0.796   6.577   6.544  0.0813  0.3779 -0.0095
  992YOPC   D2A13042   0.756   6.461   6.995 -0.0710 -0.1210  0.1122
  992YOPC   C3A13043   1.042   6.171   7.178  0.1253 -0.2019 -0.1121
  992YOPC   C4A13044   1.075   6.068   7.671 -0.1863 -0.1564  0.2228
  992YOPC   C1B13045   1.297   6.812   6.415 -0.0885 -0.0889  0.1446
  992YOPC   C2B13046   1.249   7.091   6.711  0.2065 -0.1551 -0.0872
  992YOPC   D3B13047   0.991   6.983   7.096  0.1046 -0.2346 -0.2197
  992YOPC   C4B13048   0.606   6.795   7.346 -0.0588 -0.0921  0.0679
  993YOPC   NC313049  14.409   9.181   5.959  0.1608 -0.0683 -0.0085
  993YOPC   PO413050  14.597   8.839   6.094  0.0986  0.1749  0.2783
  993YOPC   GL113051  14.571   8.761   6.545 -0.1558  0.1799  0.4162
  993YOPC   GL213052  14.946   8.758   6.695 -0.1889  0.0124  0.3135
  993YOPC   C1A13053  14.675   8.505   7.009  0.1405  0.1549 -0.2387
  993YOPC   D2A13054  14.729   8.720   7.314 -0.1828  0.3464 -0.1828
  993YOPC   C3A13055  15.052   8.740   7.746  0.0060 -0.0988  0.0830
  993YOPC   C4A13056  15.401   8.563   8.037 -0.1933  0.3895 -0.0580
  993YOPC   C1B13057  15.191   9.058   6.773  0.0748 -0.1832 -0.0380
  993YOPC   C2B13058  15.322   9.265   6.741  0.2215 -0.3049  0.0470
  993YOPC   D3B13059  15.528   9.277   7.155  0.0971 -0.1884  0.0575
  993YOPC   C4B13060  15.743   9.421   7.503 -0.3410  0.2247 -0.0849
  994YOPC   NC313061  16.090  10.857   5.966 -0.1317  0.0344 -0.0168
  994YOPC   PO413062  15.795  10.622   6.095 -0.1388  0.1466  0.0292
  994YOPC   GL113063  15.712  10.705   6.518 -0.1275  0.1807  0.0073
  994YOPC   GL213064  15.344  10.650   6.724 -0.2782  0.1135 -0.2455
  994YOPC   C1A13065  15.898  10.695   6.888 -0.1433 -0.1961  0.0290
  994YOPC   D2A13066  15.881  11.019   7.225 -0.0896 -0.4513  0.0005
  994YOPC   C3A13067  16.283  11.052   7.490 -0.0163  0.1125 -0.4037
  994YOPC   C4A13068  16.564  11.187   7.782 -0.1041  0.4458  0.1304
  994YOPC   C1B13069  15.477  10.851   7.030  0.0842 -0.1538 -0.0371
  994YOPC   C2B13070  15.401  10.934   7.456 -0.3444  0.0259 -0.0432
  994YOPC   D3B13071  15.220  10.739   7.712  0.2681  0.0132 -0.0787
  994YOPC   C4B13072  15.263  10.554   8.096 -0.1965  0.3153  0.0755
  995YOPC   NC313073   4.519   4.830   5.816 -0.1660  0.1028 -0.2088
  995YOPC   PO413074   4.834   4.597   5.596  0.0614  0.3353 -0.2640
  995YOPC   GL113075   4.969   4.763   6.047  0.2644 -0.0469  0.0931
  995YOPC   GL213076   5.219   4.599   6.286  0.1507 -0.0077  0.0237
  995YOPC   C1A13077   4.809   4.698   6.484 -0.0191  0.0460 -0.1055
  995YOPC   D2A13078   4.819   4.917   6.900  0.0056  0.0046  0.0190
  995YOPC   C3A13079   4.999   5.070   7.410 -0.2787  0.0567 -0.0095
  995YOPC   C4A13080   5.021   4.974   7.842  0.0419  0.1950 -0.4205
  995YOPC   C1B13081   5.299   4.494   6.678  0.6118 -0.0884  0.2337
  995YOPC   C2B13082   5.209   4.617   7.005 -0.2718  0.1277 -0.1205
  995YOPC   D3B13083   5.075   4.509   7.404 -0.0601  0.1550 -0.0423
  995YOPC   C4B13084   4.813   4.490   7.748 -0.1662  0.0842 -0.0230
  996YOPC   NC313085  17.152   6.475   5.842  0.0136  0.1118  0.3105
  996YOPC   PO413086  17.223   6.865   5.853 -0.4256 -0.0564 -0.1323
  996YOPC   GL113087  17.079   6.898   6.184 -0.0222 -0.2727 -0.0958
  996YOPC   GL213088  16.952   6.645   6.288  0.1335  0.1618 -0.0123
  996YOPC   C1A13089  17.316   6.872   6.613  0.1278 -0.0622  0.2194
  996YOPC   D2A13090  17.522   7.196   6.903 -0.0838  0.0726  0.0060
  996YOPC   C3A13091  17.957   7.308   6.866 -0.0479  0.1459 -0.0806
  996YOPC   C4A13092  18.320   7.591   6.725 -0.2719 -0.3524 -0.0320
  996YOPC   C1B13093  17.120   6.448   6.760 -0.2235 -0.0074 -0.0912
  996YOPC   C2B13094  17.025   6.392   7.273  0.2032 -0.1882 -0.0636
  996YOPC   D3B13095  17.002   5.949   7.459  0.1724  0.2501  0.3155
  996YOPC   C4B13096  16.667   5.509   7.669 -0.2652 -0.2207 -0.1278
  997YOPC   NC313097   1.843  12.533   5.930 -0.0494  0.0708 -0.1516
  997YOPC   PO413098   2.120  12.311   5.815  0.1164  0.5294 -0.0263
  997YOPC   GL113099   2.212  11.937   6.089  0.1089 -0.0288 -0.0293
  997YOPC   GL213100   1.926  11.915   6.283  0.0241 -0.0558 -0.1571
  997YOPC   C1A13101   2.338  11.800   6.530  0.0761  0.1096 -0.1339
  997YOPC   D2A13102   2.374  11.400   6.611 -0.1763  0.2970  0.1451
  997YOPC   C3A13103   2.319  11.281   7.111  0.1055 -0.0205 -0.0483
  997YOPC   C4A13104   2.291  11.128   7.518  0.0732 -0.0895 -0.0509
  997YOPC   C1B13105   1.994  12.141   6.722  0.0363 -0.0377  0.2144
  997YOPC   C2B13106   2.103  12.223   7.112  0.3022 -0.1733 -0.1096
  997YOPC   D3B13107   1.991  12.506   7.438 -0.1554 -0.3035  0.1112
  997YOPC   C4B13108   2.037  12.782   7.708  0.1433  0.2721  0.0037
  998YOPC   NC313109   2.839  17.870   5.636 -0.0689 -0.0231  0.0969
  998YOPC   PO413110   2.935  18.229   5.872  0.0115 -0.5193  0.3166
  998YOPC   GL113111   3.008  18.473   6.294  0.1966  0.1451  0.0336
  998YOPC   GL213112   2.866  18.229   6.393  0.0451 -0.0367 -0.2222
  998YOPC   C1A13113   2.908  18.878   6.530  0.1241  0.4569 -0.1722
  998YOPC   D2A13114   2.716  18.931   7.040  0.2263  0.2472 -0.1466
  998YOPC   C3A13115   2.348  18.886   6.945  0.0352 -0.1683  0.0069
  998YOPC   C4A13116   2.071  18.378   6.849 -0.0303  0.1271  0.1202
  998YOPC   C1B13117   3.044  17.932   6.617 -0.2651 -0.1263 -0.1866
  998YOPC   C2B13118   3.038  18.059   7.080 -0.0576  0.4795  0.2164
  998YOPC   D3B13119   2.742  18.101   7.425  0.1713 -0.1666 -0.0348
  998YOPC   C4B13120   2.467  18.094   7.718 -0.1330  0.0348 -0.0380
  999YOPC   NC313121   6.970   8.035   5.667  0.0588  0.0790 -0.0976
  999YOPC   PO413122   6.521   7.766   5.690 -0.1771 -0.1161  0.0013
  999YOPC   GL113123   6.238   7.918   6.014 -0.0557 -0.1821  0.2866
  999YOPC   GL213124   6.283   7.701   6.197 -0.0038  0.0946 -0.2407
  999YOPC   C1A13125   5.989   8.057   6.477 -0.0546 -0.0980  0.1266
  999YOPC   D2A13126   6.028   8.222   6.834  0.2002  0.1316  0.3616
  999YOPC   C3A13127   6.123   8.215   7.202  0.0794 -0.2275 -0.1518
  999YOPC   C4A13128   6.202   8.103   7.586 -0.1902 -0.2461  0.0234
  999YOPC   C1B13129   6.403   7.708   6.611 -0.1258  0.1510 -0.0956
  999YOPC   C2B13130   6.369   7.867   6.970 -0.1929 -0.3602  0.1000
  999YOPC   D3B13131   6.574   7.581   7.265 -0.0097 -0.0745  0.2025
  999YOPC   C4B13132   6.576   7.620   7.754  0.1645 -0.1458  0.2080
 1000YOPC   NC313133   6.054  16.278   5.886  0.2527 -0.2823  0.0111
 1000YOPC   PO413134   5.698  16.345   5.810  0.0497 -0.0793 -0.0943
 1000YOPC   GL113135   5.503  16.159   6.152 -0.0195  0.3365  0.1752
 1000YOPC   GL213136   5.825  16.110   6.308  0.1989 -0.2712  0.0149
 1000YOPC   C1A13137   5.500  15.663   6.254 -0.0915 -0.1501  0.0933
 1000YOPC   D2A13138   5.173  15.399   6.372  0.0932 -0.1744 -0.1989
 1000YOPC   C3A13139   5.060  15.138   6.780  0.2231 -0.0281 -0.2557
 1000YOPC   C4A13140   4.722  15.040   7.114  0.1846  0.0333  0.0996
 1000YOPC   C1B13141   5.959  15.824   6.357  0.0108  0.2326  0.3436
 1000YOPC   C2B13142   6.469  15.618   6.487  0.1906  0.2456 -0.0091
 1000YOPC   D3B13143   6.808  15.925   6.509  0.3367 -0.3296  0.2755
 1000YOPC   C4B13144   7.071  16.118   6.241 -0.0835 -0.3502 -0.1940
 1001YOPC   NC313145   9.294  12.659   5.583  0.1011  0.0761 -0.1144
 1001YOPC   PO413146   8.979  12.302   5.611  0.0305  0.0299 -0.0751
 1001YOPC   GL113147   8.851  12.442   5.969 -0.1680  0.0906  0.1535
 1001YOPC   GL213148   8.597  12.584   6.050 -0.2326  0.1050  0.1354
 1001YOPC   C1A13149   9.079  12.483   6.409 -0.0922  0.2676 -0.1092
 1001YOPC   D2A13150   9.026  12.433   6.872  0.1191  0.0704  0.0036
 1001YOPC   C3A13151   8.728  12.090   7.088 -0.0709  0.2076 -0.3369
 1001YOPC   C4A13152   8.791  11.842   7.352 -0.2161 -0.0581 -0.1522
 1001YOPC   C1B13153   8.659  12.246   6.502 -0.0662 -0.2339  0.0258
 1001YOPC   C2B13154   8.463  12.472   6.845 -0.1993  0.2641 -0.3774
 1001YOPC   D3B13155   8.363  12.357   7.239 -0.1869 -0.0857  0.1440
 1001YOPC   C4B13156   8.659  12.235   7.598 -0.0239  0.0459 -0.0607
 1002YOPC   NC313157  14.022   4.922   5.874 -0.0705  0.0225 -0.0816
 1002YOPC   PO413158  14.017   5.348   6.049 -0.0946  0.0294 -0.1010
 1002YOPC   GL113159  14.216   5.104   6.361  0.1874 -0.1356  0.0105
 1002YOPC   GL213160  14.415   5.139   6.517 -0.2368 -0.2435  0.3016
 1002YOPC   C1A13161  14.071   4.858   6.749  0.1039  0.2742  0.2226
 1002YOPC   D2A13162  14.218   4.687   7.171  0.3965 -0.1313  0.0502
 1002YOPC   C3A13163  14.459   4.912   7.367 -0.1214  0.2073 -0.3369
 1002YOPC   C4A13164  14.581   5.239   7.680 -0.0854  0.0856 -0.3058
 1002YOPC   C1B13165  14.751   5.282   6.493 -0.0348 -0.0100  0.4728
 1002YOPC   C2B13166  15.195   5.302   6.656 -0.1421  0.1159 -0.1423
 1002YOPC   D3B13167  15.225   5.347   7.100 -0.2843  0.4239 -0.2122
 1002YOPC   C4B13168  14.806   5.463   7.281  0.0612  0.2386  0.2587
 1003YOPC   NC313169   0.596   6.098   5.944  0.1465  0.0881  0.0056
 1003YOPC   PO413170   1.069   6.063   5.979 -0.1033  0.2729 -0.2606
 1003YOPC   GL113171   1.372   6.241   6.237 -0.2789  0.0930  0.0507
 1003YOPC   GL213172   1.755   6.202   6.197 -0.2749  0.0500 -0.2112
 1003YOPC   C1A13173   1.379   6.308   6.654  0.2319  0.1904 -0.0165
 1003YOPC   D2A13174   1.256   6.640   6.901 -0.0982 -0.0804  0.4198
 1003YOPC   C3A13175   1.476   6.991   7.204 -0.1201 -0.0412  0.0200
 1003YOPC   C4A13176   1.896   7.278   7.332  0.0528  0.0565 -0.0934
 1003YOPC   C1B13177   2.112   6.242   6.310 -0.1070  0.0719 -0.2362
 1003YOPC   C2B13178   2.178   6.263   6.683  0.0644 -0.3315  0.1202
 1003YOPC   D3B13179   1.765   6.178   6.982 -0.1498  0.0852  0.3461
 1003YOPC   C4B13180   1.558   6.247   7.423 -0.5889 -0.2929 -0.0335
 1004YOPC   NC313181   5.665  17.639   5.208  0.1830 -0.0324  0.0381
 1004YOPC   PO413182   5.724  17.411   5.589  0.0038  0.1359  0.1947
 1004YOPC   GL113183   5.719  17.065   5.943 -0.0756  0.1440  0.0416
 1004YOPC   GL213184   5.570  16.760   5.953  0.2025 -0.1595  0.2934
 1004YOPC   C1A13185   5.899  17.018   6.437  0.3766  0.2737  0.3094
 1004YOPC   D2A13186   6.026  17.117   6.797  0.4435 -0.0419 -0.2099
 1004YOPC   C3A13187   5.700  17.457   6.903 -0.0188 -0.0647 -0.0221
 1004YOPC   C4A13188   5.598  17.868   6.768  0.0347  0.0116  0.0670
 1004YOPC   C1B13189   5.639  16.576   6.407 -0.0554  0.3628  0.1530
 1004YOPC   C2B13190   5.611  16.295   6.718 -0.0769 -0.2731 -0.0111
 1004YOPC   D3B13191   5.570  16.403   7.133  0.1400  0.2077 -0.1102
 1004YOPC   C4B13192   5.701  16.045   7.468 -0.2136  0.0405  0.0232
 1005YOPC   NC313193  15.828  11.659   5.962 -0.0470 -0.1560  0.2674
 1005YOPC   PO413194  16.205  11.389   5.993 -0.2937  0.0675  0.1606
 1005YOPC   GL113195  16.259  11.581   6.324 -0.1959  0.0274  0.0537
 1005YOPC   GL213196  16.505  11.456   6.496 -0.0977  0.2462 -0.2082
 1005YOPC   C1A13197  16.500  12.001   6.479 -0.0799 -0.0271  0.0678
 1005YOPC   D2A13198  16.492  12.285   6.839  0.1385  0.2510 -0.1903
 1005YOPC   C3A13199  16.837  12.534   7.059 -0.0016 -0.1649  0.2957
 1005YOPC   C4A13200  16.789  12.716   7.511 -0.3818 -0.2600 -0.0027
 1005YOPC   C1B13201  16.663  11.660   6.829 -0.1211  0.2688 -0.1122
 1005YOPC   C2B13202  16.773  11.764   7.182 -0.0113  0.1084  0.2645
 1005YOPC   D3B13203  16.709  12.123   7.387  0.1594  0.1224 -0.1336
 1005YOPC   C4B13204  17.115  12.345   7.522 -0.3101 -0.0901  0.1984
 1006YOPC   NC313205  11.390   5.502   6.019 -0.0089  0.0075  0.1423
 1006YOPC   PO413206  11.001   5.648   6.000 -0.1570  0.0620  0.0038
 1006YOPC   GL113207  10.805   5.532   6.379 -0.1700  0.3199 -0.1716
 1006YOPC   GL213208  10.830   5.263   6.631  0.0092  0.0749 -0.2450
 1006YOPC   C1A13209  10.698   5.706   6.840 -0.0697  0.2813 -0.4000
 1006YOPC   D2A13210  10.796   5.907   7.141 -0.1142  0.0447 -0.1376
 1006YOPC   C3A13211  10.642   5.610   7.534 -0.0498 -0.0178  0.0057
 1006YOPC   C4A13212  10.556   5.504   7.967  0.0864  0.0054  0.0168
 1006YOPC   C1B13213  10.644   4.901   6.950  0.0913  0.0792 -0.2151
 1006YOPC   C2B13214  10.355   4.740   7.253 -0.0316 -0.3339 -0.0751
 1006YOPC   D3B13215  10.451   4.494   7.627  0.1496 -0.0724 -0.2730
 1006YOPC   C4B13216  10.597   4.243   7.871 -0.1779 -0.1740  0.2496
 1007YOPC   NC313217  16.073   8.208   5.958 -0.0252  0.3038  0.0728
 1007YOPC   PO413218  16.224   8.602   5.872  0.4427  0.1250  0.0730
 1007YOPC   GL113219  16.332   8.423   6.260  0.0999 -0.0024 -0.0016
 1007YOPC   GL213220  16.660   8.640   6.358  0.0845 -0.3226 -0.1218
 1007YOPC   C1A13221  16.239   8.420   6.718 -0.1201 -0.0915 -0.1107
 1007YOPC   D2A13222  16.023   8.496   7.042  0.0567 -0.0756 -0.1560
 1007YOPC   C3A13223  15.934   8.566   7.381  0.1521 -0.0134 -0.2845
 1007YOPC   C4A13224  15.738   8.465   7.681  0.2158  0.0541 -0.3538
 1007YOPC   C1B13225  16.843   8.455   6.645  0.0068  0.0801  0.1331
 1007YOPC   C2B13226  17.089   8.142   6.718 -0.1969  0.0527 -0.1159
 1007YOPC   D3B13227  17.291   7.824   6.379  0.0827  0.0140  0.0813
 1007YOPC   C4B13228  17.400   7.348   6.415 -0.0683 -0.1159 -0.0126
 1008YOPC   NC313229   9.685  16.770   5.401 -0.1242 -0.1060  0.0703
 1008YOPC   PO413230   9.520  17.089   5.644  0.1653 -0.2026 -0.2269
 1008YOPC   GL113231   9.454  17.105   6.089 -0.1999  0.2385  0.1775
 1008YOPC   GL213232   9.801  17.029   6.167 -0.2162  0.1156 -0.0721
 1008YOPC   C1A13233   9.418  16.836   6.634 -0.0847  0.2704  0.2024
 1008YOPC   D2A13234   9.564  16.789   7.006 -0.2521 -0.2788  0.1346
 1008YOPC   C3A13235   9.685  17.246   7.197 -0.0743  0.2533 -0.0103
 1008YOPC   C4A13236   9.456  17.143   7.616 -0.1155  0.0376 -0.1861
 1008YOPC   C1B13237   9.606  16.588   6.253  0.1904 -0.0050  0.0052
 1008YOPC   C2B13238   9.336  16.195   6.130  0.1759 -0.0684 -0.0209
 1008YOPC   D3B13239   8.844  16.185   6.102  0.0184 -0.0923  0.1370
 1008YOPC   C4B13240   8.434  15.975   6.069  0.0058  0.0251  0.1291
 1009YOPC   NC313241  10.387  10.731   5.635  0.1044 -0.1381 -0.0144
 1009YOPC   PO413242  10.151  11.174   5.841 -0.2356 -0.3736 -0.1625
 1009YOPC   GL113243  10.439  11.405   6.192 -0.1970  0.0760 -0.2681
 1009YOPC   GL213244  10.804  11.388   6.179  0.2046  0.1093  0.4414
 1009YOPC   C1A13245  10.465  11.609   6.525 -0.2043  0.0134  0.2515
 1009YOPC   D2A13246  10.326  11.798   6.908  0.0577 -0.0430 -0.2625
 1009YOPC   C3A13247  10.211  11.569   7.258  0.2619 -0.3200 -0.1840
 1009YOPC   C4A13248  10.448  11.154   7.451 -0.0976 -0.3069 -0.3245
 1009YOPC   C1B13249  10.952  11.402   6.628 -0.0255  0.0427 -0.0075
 1009YOPC   C2B13250  11.071  11.108   6.916  0.0067 -0.0492  0.3361
 1009YOPC   D3B13251  11.230  11.103   7.214 -0.2913 -0.0245 -0.0193
 1009YOPC   C4B13252  11.256  10.890   7.714 -0.1252  0.1317  0.0551
 1010YOPC   NC313253  14.588  16.367   5.442  0.0840 -0.0120 -0.2088
 1010YOPC   PO413254  14.484  16.647   5.876 -0.1696 -0.0520  0.1127
 1010YOPC   GL113255  14.803  16.518   6.182  0.2927  0.0152 -0.1573
 1010YOPC   GL213256  14.855  16.699   6.394  0.4265 -0.0845 -0.1944
 1010YOPC   C1A13257  15.181  16.248   6.428  0.2847 -0.3085  0.0220
 1010YOPC   D2A13258  15.430  15.863   6.527  0.0401 -0.0583 -0.0688
 1010YOPC   C3A13259  15.314  15.723   6.775  0.0965  0.0003 -0.1316
 1010YOPC   C4A13260  15.167  15.802   7.190  0.0982  0.0594 -0.0446
 1010YOPC   C1B13261  14.876  16.658   6.787 -0.0410 -0.2873 -0.2267
 1010YOPC   C2B13262  15.059  16.612   7.127 -0.0337  0.0087 -0.2551
 1010YOPC   D3B13263  14.905  16.577   7.559 -0.1415  0.0432 -0.1833
 1010YOPC   C4B13264  14.925  16.671   8.055  0.2767  0.1689  0.0566
 1011YOPC   NC313265   7.185  14.669   5.543 -0.0504 -0.4038  0.0216
 1011YOPC   PO413266   6.803  14.939   5.719 -0.1403 -0.0892  0.4743
 1011YOPC   GL113267   6.869  15.022   6.115 -0.2265 -0.1902 -0.4762
 1011YOPC   GL213268   6.810  14.712   6.238 -0.0072  0.0537 -0.0050
 1011YOPC   C1A13269   6.805  15.180   6.598  0.0300 -0.0852  0.3590
 1011YOPC   D2A13270   6.748  15.480   6.891  0.0262  0.1453 -0.1059
 1011YOPC   C3A13271   6.820  15.466   7.267 -0.0211  0.1799  0.0478
 1011YOPC   C4A13272   6.973  15.209   7.614 -0.0006  0.0546  0.1788
 1011YOPC   C1B13273   7.117  14.719   6.620  0.3279 -0.0168 -0.3526
 1011YOPC   C2B13274   7.288  15.134   6.657  0.0942  0.2272  0.0901
 1011YOPC   D3B13275   7.351  15.346   7.076  0.4119  0.0005 -0.4395
 1011YOPC   C4B13276   7.240  15.653   7.439 -0.0113 -0.2163  0.2390
 1012YOPC   NC313277  18.013   5.621   5.212 -0.2978 -0.2221 -0.2813
 1012YOPC   PO413278  18.152   5.963   5.585 -0.1724 -0.0328 -0.0579
 1012YOPC   GL113279  18.142   6.004   5.993  0.0665  0.1364  0.1708
 1012YOPC   GL213280  18.479   6.159   6.141  0.2170 -0.2548 -0.0464
 1012YOPC   C1A13281  18.099   5.845   6.447  0.3932  0.1182  0.0155
 1012YOPC   D2A13282  18.258   5.544   6.695 -0.1908  0.1199  0.0704
 1012YOPC   C3A13283  18.082   5.756   7.039 -0.1624  0.2662  0.0232
 1012YOPC   C4A13284  17.909   5.944   7.368 -0.0730 -0.1138 -0.1057
 1012YOPC   C1B13285  18.758   6.212   6.505 -0.0610 -0.1625 -0.1146
 1012YOPC   C2B13286  19.243   6.112   6.438 -0.1393  0.0239  0.3305
 1012YOPC   D3B13287  19.262   5.895   6.819 -0.2140 -0.1474 -0.4920
 1012YOPC   C4B13288  19.291   5.698   7.276 -0.3070  0.2913  0.2322
 1013YOPC   NC313289   0.599   4.190   5.506 -0.0911  0.1046 -0.0137
 1013YOPC   PO413290   0.645   4.612   5.615 -0.2668  0.1477 -0.3346
 1013YOPC   GL113291   0.604   4.409   6.014  0.0206  0.0370  0.2352
 1013YOPC   GL213292   0.553   4.653   6.110  0.0876 -0.3361  0.2824
 1013YOPC   C1A13293   0.368   4.251   6.383 -0.1076  0.0197  0.0811
 1013YOPC   D2A13294   0.277   4.342   6.823  0.0216 -0.0142  0.2014
 1013YOPC   C3A13295   0.119   4.694   7.126 -0.0564 -0.0329 -0.0396
 1013YOPC   C4A13296   0.301   4.917   7.474  0.2505 -0.1687 -0.4276
 1013YOPC   C1B13297   0.437   4.853   6.565  0.2419  0.2041 -0.0745
 1013YOPC   C2B13298   0.420   5.051   7.004  0.1292  0.3035 -0.1949
 1013YOPC   D3B13299   0.739   5.118   7.215 -0.3076 -0.0648 -0.2155
 1013YOPC   C4B13300   0.781   4.884   7.586 -0.0507 -0.2585 -0.1560
 1014YOPC   NC313301   3.966   9.207   5.220  0.4613 -0.1409  0.1709
 1014YOPC   PO413302   3.626   9.308   5.579  0.1579  0.0575 -0.1151
 1014YOPC   GL113303   3.719   9.552   5.908 -0.1509  0.0456  0.2312
 1014YOPC   GL213304   4.030   9.659   5.938 -0.3097  0.0893  0.0778
 1014YOPC   C1A13305   3.645   9.920   6.159  0.1039 -0.1987  0.1595
 1014YOPC   D2A13306   3.681  10.042   6.551  0.0607 -0.0419 -0.0795
 1014YOPC   C3A13307   3.698   9.672   6.775 -0.0061  0.3392 -0.1574
 1014YOPC   C4A13308   4.074   9.602   7.076  0.1310  0.0469  0.1570
 1014YOPC   C1B13309   4.037   9.666   6.338 -0.2943  0.1566 -0.1153
 1014YOPC   C2B13310   4.155   9.938   6.688  0.1480  0.0518  0.2663
 1014YOPC   D3B13311   3.994  10.124   7.105  0.1178  0.1321 -0.4469
 1014YOPC   C4B13312   4.167  10.302   7.511 -0.2640  0.1344 -0.1686
 1015YOPC   NC313313   6.236   2.139   5.647 -0.0016  0.1325 -0.2092
 1015YOPC   PO413314   6.217   1.925   5.937  0.0003  0.3437  0.2492
 1015YOPC   GL113315   5.873   2.144   6.232  0.0725  0.1559 -0.1961
 1015YOPC   GL213316   5.978   2.450   6.209  0.1725 -0.1790 -0.0358
 1015YOPC   C1A13317   5.507   2.059   6.535  0.2321 -0.2511 -0.1594
 1015YOPC   D2A13318   5.623   2.104   6.965 -0.0685 -0.0528  0.3370
 1015YOPC   C3A13319   5.484   2.097   7.344  0.2092 -0.2910  0.0054
 1015YOPC   C4A13320   5.519   2.033   7.888 -0.1135  0.1659  0.1442
 1015YOPC   C1B13321   5.961   2.368   6.666 -0.2678 -0.2566  0.1342
 1015YOPC   C2B13322   5.999   2.491   7.062 -0.1903  0.2715  0.0515
 1015YOPC   D3B13323   5.808   2.433   7.445  0.2277  0.1473 -0.2916
 1015YOPC   C4B13324   5.815   2.550   7.882 -0.0937 -0.0343  0.1487
 1016YOPC   NC313325  17.744   3.006   5.722  0.0921 -0.0696 -0.0301
 1016YOPC   PO413326  17.579   2.642   5.776 -0.1020 -0.2715  0.0879
 1016YOPC   GL113327  17.481   2.649   6.227  0.0126  0.2537  0.5468
 1016YOPC   GL213328  17.169   2.492   6.379 -0.2113 -0.1757  0.2835
 1016YOPC   C1A13329  17.444   2.835   6.648 -0.0000 -0.0451  0.0604
 1016YOPC   D2A13330  17.404   2.932   6.991 -0.0557 -0.0544 -0.1184
 1016YOPC   C3A13331  17.123   2.858   7.289 -0.0243 -0.4255  0.0402
 1016YOPC   C4A13332  17.058   2.896   7.622  0.1195  0.1754  0.1592
 1016YOPC   C1B13333  17.127   2.496   6.801 -0.1881  0.0077 -0.1750
 1016YOPC   C2B13334  16.732   2.416   7.063  0.0963 -0.1216 -0.1849
 1016YOPC   D3B13335  16.599   1.998   7.138  0.0893  0.0608 -0.0625
 1016YOPC   C4B13336  16.766   1.573   7.155 -0.0524  0.2297  0.0798
 1017YOPC   NC313337   1.017  14.164   5.484  0.1800 -0.0049 -0.1385
 1017YOPC   PO413338   0.738  14.063   5.777  0.4716  0.0296  0.0252
 1017YOPC   GL113339   0.698  14.007   6.156 -0.4933  0.0163 -0.1325
 1017YOPC   GL213340   0.803  14.249   6.361 -0.0277 -0.0987  0.2271
 1017YOPC   C1A13341   0.612  13.774   6.515 -0.0835 -0.1387  0.0642
 1017YOPC   D2A13342   0.658  13.753   6.995 -0.0825 -0.2249 -0.0122
 1017YOPC   C3A13343   0.899  13.676   7.295 -0.0809  0.1676  0.3365
 1017YOPC   C4A13344   1.019  13.826   7.674 -0.0866 -0.2846 -0.1349
 1017YOPC   C1B13345   0.641  14.239   6.720  0.0672 -0.0840 -0.0038
 1017YOPC   C2B13346   0.547  14.362   7.173  0.0939 -0.0255  0.1754
 1017YOPC   D3B13347   0.566  14.046   7.430 -0.1715 -0.1249 -0.0305
 1017YOPC   C4B13348   0.582  13.876   7.879  0.1949 -0.0943 -0.2033
 1018YOPC   NC313349  16.681  18.232   6.131 -0.3614  0.0696  0.0300
 1018YOPC   PO413350  16.307  18.202   5.935 -0.2245 -0.2378 -0.1440
 1018YOPC   GL113351  16.167  17.960   6.282 -0.0837  0.1896  0.2007
 1018YOPC   GL213352  16.095  17.544   6.294  0.1570  0.0607  0.0471
 1018YOPC   C1A13353  16.150  17.979   6.675  0.0505 -0.2688 -0.0199
 1018YOPC   D2A13354  16.093  18.344   6.810  0.0731  0.2443 -0.1311
 1018YOPC   C3A13355  15.816  18.563   7.031 -0.2942  0.5551  0.1354
 1018YOPC   C4A13356  15.647  18.911   7.001  0.2706 -0.0972 -0.0739
 1018YOPC   C1B13357  15.996  17.495   6.752 -0.0172  0.2078 -0.0935
 1018YOPC   C2B13358  15.900  17.264   7.134  0.0705 -0.0361 -0.3476
 1018YOPC   D3B13359  16.004  17.411   7.577  0.0376  0.2208 -0.1155
 1018YOPC   C4B13360  16.051  17.505   8.010 -0.2855  0.1741  0.0817
 1019YOPC   NC313361  11.230  10.550   5.427 -0.1621  0.0378 -0.2734
 1019YOPC   PO413362  11.565  10.259   5.432  0.0657  0.0037 -0.3421
 1019YOPC   GL113363  11.459  10.421   5.899 -0.0410 -0.2848  0.0101
 1019YOPC   GL213364  11.134  10.502   5.955  0.3129  0.2316 -0.0459
 1019YOPC   C1A13365  11.765  10.305   6.203  0.0699  0.0921  0.2256
 1019YOPC   D2A13366  11.985  10.581   6.525 -0.0818 -0.0112  0.2191
 1019YOPC   C3A13367  11.890  11.016   6.460 -0.1615 -0.1452 -0.1230
 1019YOPC   C4A13368  12.130  11.381   6.701 -0.3140  0.3624  0.0917
 1019YOPC   C1B13369  11.239  10.339   6.325 -0.0650 -0.0647 -0.0292
 1019YOPC   C2B13370  11.073  10.247   6.648  0.1963  0.1204 -0.4327
 1019YOPC   D3B13371  11.191  10.314   7.021  0.1626  0.2731 -0.0217
 1019YOPC   C4B13372  11.254  10.595   7.269  0.0686 -0.4554 -0.2959
 1020YOPC   NC313373  10.956  16.785   5.574 -0.0248  0.2894 -0.0524
 1020YOPC   PO413374  11.305  16.438   5.764 -0.2538 -0.0308  0.1555
 1020YOPC   GL113375  11.610  16.290   6.046 -0.1722 -0.0968  0.0794
 1020YOPC   GL213376  11.730  16.467   6.194 -0.0951 -0.2169  0.3410
 1020YOPC   C1A13377  11.610  16.010   6.349 -0.3095 -0.1685  0.0359
 1020YOPC   D2A13378  11.233  15.935   6.668  0.0988  0.3245  0.2755
 1020YOPC   C3A13379  11.017  15.986   7.143  0.1255 -0.1964 -0.1508
 1020YOPC   C4A13380  11.161  16.223   7.505  0.1414 -0.0122 -0.0159
 1020YOPC   C1B13381  12.011  16.334   6.497  0.2047 -0.3842 -0.0476
 1020YOPC   C2B13382  12.079  16.153   6.908  0.0232 -0.2572 -0.0032
 1020YOPC   D3B13383  12.461  16.111   7.251 -0.2917 -0.1844 -0.1970
 1020YOPC   C4B13384  12.906  16.210   7.481 -0.0818 -0.0540  0.0377
 1021YOPC   NC313385  16.724   4.009   5.537 -0.1144  0.1492 -0.0307
 1021YOPC   PO413386  16.416   4.268   5.652 -0.4606 -0.0183  0.0541
 1021YOPC   GL113387  16.603   4.391   6.007 -0.0611  0.1877 -0.0861
 1021YOPC   GL213388  16.989   4.367   5.903 -0.0262  0.4330 -0.3233
 1021YOPC   C1A13389  16.372   4.470   6.470 -0.0401  0.1329 -0.1146
 1021YOPC   D2A13390  16.443   4.686   6.941 -0.1603 -0.0968 -0.2774
 1021YOPC   C3A13391  16.430   4.664   7.313 -0.1727 -0.1651  0.1008
 1021YOPC   C4A13392  16.509   4.928   7.668  0.2375  0.1486  0.0765
 1021YOPC   C1B13393  17.032   4.359   6.327 -0.0799  0.0986 -0.1678
 1021YOPC   C2B13394  17.348   4.269   6.576 -0.0060  0.0896 -0.1052
 1021YOPC   D3B13395  17.449   4.599   6.877  0.3010  0.3296  0.2642
 1021YOPC   C4B13396  17.311   5.057   6.997 -0.2733 -0.0510 -0.3761
 1022YOPC   NC313397   8.408   2.299   6.168 -0.1824  0.2790 -0.0946
 1022YOPC   PO413398   8.856   2.293   6.224  0.0418  0.3414  0.3125
 1022YOPC   GL113399   9.121   2.225   6.600  0.2304  0.1951 -0.1576
 1022YOPC   GL213400   9.298   1.911   6.588  0.1749 -0.1108  0.0573
 1022YOPC   C1A13401   9.028   2.124   7.079 -0.3849  0.0532 -0.1212
 1022YOPC   D2A13402   8.981   2.275   7.551 -0.0390 -0.1473 -0.0681
 1022YOPC   C3A13403   8.631   2.387   7.801  0.0474  0.3171  0.4583
 1022YOPC   C4A13404   8.205   2.289   7.818  0.0576  0.1751 -0.0798
 1022YOPC   C1B13405   9.425   1.739   7.057  0.0858 -0.1920 -0.3250
 1022YOPC   C2B13406   9.419   1.417   7.395  0.0664  0.0972 -0.1959
 1022YOPC   D3B13407   9.385   1.465   7.874 -0.0060 -0.3028  0.1870
 1022YOPC   C4B13408   9.345   1.794   8.058 -0.0617  0.1234 -0.0573
 1023YOPC   NC313409   7.399   6.971   5.855  0.0466  0.0626  0.0098
 1023YOPC   PO413410   7.709   7.387   5.849 -0.1124 -0.0845 -0.1267
 1023YOPC   GL113411   8.031   7.539   6.062  0.1082  0.1811 -0.0457
 1023YOPC   GL213412   8.165   7.298   6.183  0.2984 -0.2848  0.0269
 1023YOPC   C1A13413   8.277   7.604   6.521  0.0516 -0.1710  0.0176
 1023YOPC   D2A13414   8.396   7.815   6.856 -0.2624 -0.1667 -0.0502
 1023YOPC   C3A13415   8.658   8.225   6.774  0.0138  0.1991 -0.1360
 1023YOPC   C4A13416   8.931   8.426   6.616 -0.1863  0.2027  0.1564
 1023YOPC   C1B13417   7.832   7.374   6.580  0.1374  0.0121  0.0483
 1023YOPC   C2B13418   7.861   7.712   6.853  0.1400 -0.4571 -0.1016
 1023YOPC   D3B13419   8.012   7.634   7.195 -0.1275 -0.0935 -0.2739
 1023YOPC   C4B13420   8.410   7.646   7.418  0.1578 -0.0884 -0.0142
 1024YOPC   NC313421  14.081  13.546   6.219 -0.1749 -0.0228  0.2468
 1024YOPC   PO413422  13.766  13.284   6.099  0.0315  0.1716  0.1358
 1024YOPC   GL113423  13.652  13.381   6.469  0.1453 -0.2239 -0.1166
 1024YOPC   GL213424  13.672  13.079   6.638  0.1467 -0.1779 -0.2263
 1024YOPC   C1A13425  13.997  13.424   6.799 -0.1079 -0.1781 -0.0266
 1024YOPC   D2A13426  14.175  13.497   7.287 -0.0346  0.0007 -0.2725
 1024YOPC   C3A13427  14.030  13.474   7.589 -0.0144 -0.1819 -0.0876
 1024YOPC   C4A13428  13.906  13.193   7.831 -0.4627  0.3519 -0.0709
 1024YOPC   C1B13429  13.564  13.248   6.989  0.0754 -0.0294 -0.1150
 1024YOPC   C2B13430  13.601  13.277   7.395  0.1348  0.3445 -0.0487
 1024YOPC   D3B13431  13.509  13.512   7.652 -0.1876 -0.1475 -0.2416
 1024YOPC   C4B13432  13.297  13.711   8.029  0.0946  0.0009  0.0474
 1025YOPC   NC313433   0.508  14.491   6.042 -0.1529  0.0737 -0.0198
 1025YOPC   PO413434   0.363  14.907   6.080 -0.1594 -0.0468 -0.1972
 1025YOPC   GL113435   0.372  15.020   6.411 -0.2714 -0.0000 -0.1928
 1025YOPC   GL213436   0.644  15.089   6.513  0.4805 -0.2527  0.1519
 1025YOPC   C1A13437   0.211  15.117   6.820 -0.1636  0.3655  0.2052
 1025YOPC   D2A13438   0.285  15.290   7.173 -0.0018  0.0192 -0.0973
 1025YOPC   C3A13439   0.500  15.678   7.468 -0.0022  0.0666  0.2482
 1025YOPC   C4A13440   0.533  15.681   7.956 -0.4749 -0.0209 -0.1749
 1025YOPC   C1B13441   0.746  15.218   6.946 -0.0529  0.0927 -0.2163
 1025YOPC   C2B13442   0.939  15.426   7.295  0.1763  0.0215 -0.0878
 1025YOPC   D3B13443   1.049  15.293   7.620  0.1423  0.1187 -0.1136
 1025YOPC   C4B13444   0.980  15.312   8.051  0.0032 -0.2275  0.2004
 1026YOPC   NC313445  10.891  13.713   5.165  0.4451 -0.0672 -0.1961
 1026YOPC   PO413446  10.957  14.190   5.297 -0.0407 -0.1582 -0.0563
 1026YOPC   GL113447  10.717  14.219   5.626  0.1122  0.3998 -0.0390
 1026YOPC   GL213448  10.626  14.505   5.845  0.0600  0.2093  0.0613
 1026YOPC   C1A13449  10.678  14.146   6.100 -0.0265 -0.1480  0.0761
 1026YOPC   D2A13450  10.646  14.258   6.443  0.0612 -0.1395  0.3733
 1026YOPC   C3A13451  10.733  14.177   6.837 -0.0434 -0.1595 -0.0596
 1026YOPC   C4A13452  10.629  14.088   7.326 -0.1591 -0.0806 -0.1388
 1026YOPC   C1B13453  10.843  14.622   6.185  0.1078  0.3213  0.4244
 1026YOPC   C2B13454  10.751  14.686   6.658  0.3833 -0.0249  0.3797
 1026YOPC   D3B13455  10.817  15.030   6.908 -0.0072  0.2381  0.1229
 1026YOPC   C4B13456  10.981  15.454   7.103  0.0017 -0.0910  0.0172
 1027YOPC   NC313457   3.931  14.097   5.823  0.0831  0.2051  0.1482
 1027YOPC   PO413458   4.091  14.471   5.892 -0.4601 -0.2555 -0.1513
 1027YOPC   GL113459   3.909  14.623   6.209  0.2133 -0.3141  0.2553
 1027YOPC   GL213460   4.086  14.887   6.319 -0.1890  0.0032  0.3213
 1027YOPC   C1A13461   3.543  14.619   6.345  0.1198 -0.3205 -0.1694
 1027YOPC   D2A13462   3.078  14.756   6.488 -0.1120 -0.0942  0.0532
 1027YOPC   C3A13463   3.010  14.631   6.940 -0.2120 -0.2271  0.0525
 1027YOPC   C4A13464   3.233  14.502   7.294 -0.0103  0.2349 -0.1983
 1027YOPC   C1B13465   4.163  14.506   6.691  0.1295 -0.1488  0.0286
 1027YOPC   C2B13466   3.927  14.552   7.143  0.0036 -0.1382  0.0645
 1027YOPC   D3B13467   3.992  14.189   7.426  0.0972 -0.3332 -0.1512
 1027YOPC   C4B13468   4.066  13.796   7.668 -0.1909 -0.2894  0.2047
 1028YOPC   NC313469   9.639   3.220   5.963 -0.1852 -0.0501 -0.1372
 1028YOPC   PO413470   9.261   3.162   6.189 -0.1096 -0.1928  0.0229
 1028YOPC   GL113471   9.405   3.235   6.571  0.3019 -0.3219 -0.0087
 1028YOPC   GL213472   9.221   3.511   6.739  0.0816  0.0193 -0.0848
 1028YOPC   C1A13473   9.559   3.256   7.002  0.2921 -0.2046 -0.2794
 1028YOPC   D2A13474   9.539   3.184   7.473 -0.2473 -0.0085  0.1515
 1028YOPC   C3A13475   9.847   3.370   7.791 -0.2534  0.0686 -0.0229
 1028YOPC   C4A13476  10.078   3.617   7.995 -0.0948  0.0682 -0.0705
 1028YOPC   C1B13477   9.099   3.546   7.201 -0.0746  0.0241  0.0334
 1028YOPC   C2B13478   8.986   3.303   7.620 -0.0217  0.1248 -0.3594
 1028YOPC   D3B13479   9.319   3.130   7.871 -0.0082 -0.0367  0.1088
 1028YOPC   C4B13480   9.493   2.825   7.942 -0.2032  0.1170 -0.3153
 1029YOPC   NC313481   7.686   7.721   5.390 -0.1252  0.1720 -0.2215
 1029YOPC   PO413482   7.402   7.793   5.662 -0.3035 -0.1245 -0.0283
 1029YOPC   GL113483   7.531   7.757   6.112  0.2932 -0.2377  0.0444
 1029YOPC   GL213484   7.192   7.914   6.285 -0.2516  0.3731  0.0126
 1029YOPC   C1A13485   7.828   7.875   6.349  0.2848 -0.1259  0.1556
 1029YOPC   D2A13486   8.148   8.152   6.600  0.0153  0.1934 -0.0345
 1029YOPC   C3A13487   8.082   8.129   7.144  0.2152 -0.0678 -0.0769
 1029YOPC   C4A13488   7.917   8.367   7.236 -0.3719  0.2547  0.2984
 1029YOPC   C1B13489   7.221   8.018   6.687 -0.1269 -0.3364 -0.0859
 1029YOPC   C2B13490   7.313   7.711   7.074  0.1367  0.1027  0.0851
 1029YOPC   D3B13491   7.059   7.365   7.325 -0.2228 -0.0533  0.0951
 1029YOPC   C4B13492   7.082   6.973   7.621  0.2376 -0.0758 -0.1081
 1030YOPC   NC313493   8.034   3.870   5.217 -0.0387  0.2338 -0.1171
 1030YOPC   PO413494   7.817   3.885   5.570 -0.1820 -0.0110  0.0972
 1030YOPC   GL113495   7.601   3.877   5.970 -0.1300 -0.1352 -0.0972
 1030YOPC   GL213496   7.337   4.024   5.991 -0.0776 -0.1699 -0.2240
 1030YOPC   C1A13497   7.653   4.011   6.394  0.3654 -0.0460 -0.0655
 1030YOPC   D2A13498   8.001   4.064   6.748  0.0808  0.0998 -0.3224
 1030YOPC   C3A13499   7.848   4.274   7.198  0.1040  0.0216  0.2805
 1030YOPC   C4A13500   7.878   4.206   7.652  0.3193  0.3612 -0.0010
 1030YOPC   C1B13501   7.173   4.254   6.363 -0.0293 -0.0441  0.0048
 1030YOPC   C2B13502   7.099   4.466   6.716  0.1552  0.2886  0.1072
 1030YOPC   D3B13503   7.047   4.513   7.195  0.0076  0.0571 -0.6334
 1030YOPC   C4B13504   6.862   4.422   7.547  0.2409 -0.1559  0.3537
 1031YOPC   NC313505   5.813  10.302   5.277 -0.1364 -0.2404 -0.0518
 1031YOPC   PO413506   5.361  10.096   5.498  0.0586  0.4063  0.1437
 1031YOPC   GL113507   5.287   9.653   5.759  0.2489 -0.2644  0.0837
 1031YOPC   GL213508   5.219   9.849   6.060  0.0563 -0.1402  0.0419
 1031YOPC   C1A13509   5.050   9.454   6.160  0.0337  0.3310 -0.0253
 1031YOPC   D2A13510   4.940   9.331   6.577  0.2841 -0.2112  0.1200
 1031YOPC   C3A13511   5.229   9.486   6.931 -0.3456 -0.3008 -0.0939
 1031YOPC   C4A13512   5.628   9.238   6.862  0.6962 -0.1090  0.1464
 1031YOPC   C1B13513   4.784   9.976   6.114  0.0264 -0.2559 -0.1871
 1031YOPC   C2B13514   4.438   9.991   6.208  0.0435 -0.1240  0.0231
 1031YOPC   D3B13515   4.037  10.279   6.232 -0.2640 -0.0627  0.0557
 1031YOPC   C4B13516   3.912  10.670   6.064 -0.2391  0.0086  0.0356
 1032YOPC   NC313517   5.344  15.096   5.648 -0.2295 -0.0402  0.0860
 1032YOPC   PO413518   5.689  15.320   5.583 -0.0776 -0.0619  0.0518
 1032YOPC   GL113519   5.621  15.150   6.058  0.0535  0.4082 -0.0445
 1032YOPC   GL213520   5.887  14.945   6.068  0.1755 -0.1113  0.1957
 1032YOPC   C1A13521   5.527  15.005   6.560 -0.0698 -0.1737  0.1205
 1032YOPC   D2A13522   5.640  15.026   6.991  0.0521  0.1284  0.2235
 1032YOPC   C3A13523   6.007  15.169   7.202  0.2389 -0.0229  0.1926
 1032YOPC   C4A13524   5.933  15.604   7.343  0.1226  0.1346  0.1505
 1032YOPC   C1B13525   5.969  14.861   6.456 -0.2527  0.2800  0.1132
 1032YOPC   C2B13526   6.196  15.191   6.745 -0.1350 -0.0711 -0.0905
 1032YOPC   D3B13527   6.058  15.617   6.836  0.1795 -0.0475  0.0629
 1032YOPC   C4B13528   5.948  16.036   7.002  0.1313 -0.0328 -0.0917
 1033YOPC   NC313529  10.814  12.326   5.733 -0.0609 -0.2371  0.0600
 1033YOPC   PO413530  10.657  12.659   6.040  0.0798 -0.0411 -0.3739
 1033YOPC   GL113531  10.695  12.644   6.494  0.2517  0.4106  0.1533
 1033YOPC   GL213532  10.911  12.873   6.583  0.1639 -0.1627 -0.0226
 1033YOPC   C1A13533  10.403  12.715   6.793  0.4457  0.1812  0.3694
 1033YOPC   D2A13534  10.322  12.895   7.171  0.0890  0.1797 -0.3334
 1033YOPC   C3A13535   9.909  13.022   7.227  0.0301  0.0800  0.1815
 1033YOPC   C4A13536   9.542  13.159   7.088 -0.2453  0.0021  0.5531
 1033YOPC   C1B13537  10.820  13.171   6.946 -0.0772  0.2603  0.2126
 1033YOPC   C2B13538  10.649  13.131   7.442 -0.3292  0.2336  0.2431
 1033YOPC   D3B13539  10.591  12.883   7.768  0.0684 -0.2079 -0.1537
 1033YOPC   C4B13540  10.500  12.429   7.963  0.4082  0.0956 -0.0189
 1034YOPC   NC313541   2.746  13.463   5.306  0.2789  0.0337  0.2375
 1034YOPC   PO413542   3.016  13.308   5.589  0.0989 -0.5318  0.4467
 1034YOPC   GL113543   3.160  13.350   6.021  0.1739 -0.0300  0.0708
 1034YOPC   GL213544   2.981  13.182   6.113 -0.2951 -0.2697 -0.1115
 1034YOPC   C1A13545   3.384  13.170   6.360  0.1023  0.2755 -0.0403
 1034YOPC   D2A13546   3.741  13.140   6.654 -0.0419  0.1273  0.1622
 1034YOPC   C3A13547   3.794  13.221   7.080 -0.1403 -0.0007 -0.2602
 1034YOPC   C4A13548   3.756  13.273   7.502  0.0128 -0.0041  0.1584
 1034YOPC   C1B13549   2.883  13.031   6.479  0.4833  0.1206 -0.0836
 1034YOPC   C2B13550   2.721  13.099   6.991  0.0417 -0.0160 -0.0528
 1034YOPC   D3B13551   2.934  13.112   7.383 -0.0936 -0.0173  0.3669
 1034YOPC   C4B13552   2.779  13.292   7.800  0.0806 -0.1127  0.1262
 1035YOPC   NC313553   9.229   5.506   5.607  0.2114 -0.0207  0.0116
 1035YOPC   PO413554   9.307   5.013   5.873  0.0633  0.1598  0.1345
 1035YOPC   GL113555   9.539   5.035   6.235 -0.1254 -0.2187  0.1581
 1035YOPC   GL213556   9.920   5.011   6.289  0.2783 -0.0317  0.1234
 1035YOPC   C1A13557   9.247   5.067   6.552  0.2875  0.0174  0.1403
 1035YOPC   D2A13558   9.125   4.961   6.975 -0.0258  0.1501  0.1689
 1035YOPC   C3A13559   8.896   4.595   7.179 -0.0476  0.0330  0.0012
 1035YOPC   C4A13560   8.930   4.433   7.526 -0.3968  0.4076 -0.2011
 1035YOPC   C1B13561  10.049   4.827   6.668 -0.2518 -0.3635 -0.0263
 1035YOPC   C2B13562   9.930   4.751   7.010 -0.0004  0.3262  0.0743
 1035YOPC   D3B13563   9.934   4.770   7.504 -0.1419 -0.0611  0.1007
 1035YOPC   C4B13564  10.162   4.657   7.961  0.0048  0.2665  0.2171
 1036YOPC   NC313565   1.523   0.104   5.478  0.0278  0.0772  0.0284
 1036YOPC   PO413566   1.235   0.154   5.882 -0.1782 -0.4226  0.0466
 1036YOPC   GL113567   1.131   0.195   6.355 -0.3262  0.3080 -0.2094
 1036YOPC   GL213568   1.472   0.170   6.576 -0.2692  0.3220  0.2838
 1036YOPC   C1A13569   0.983   0.335   6.711 -0.1260  0.1760  0.0051
 1036YOPC   D2A13570   0.817   0.610   6.994 -0.0136 -0.2755  0.2811
 1036YOPC   C3A13571   0.960   0.700   7.475 -0.0701  0.3539  0.2741
 1036YOPC   C4A13572   1.156   0.509   7.831 -0.1319 -0.0403 -0.0108
 1036YOPC   C1B13573   1.778   0.416   6.637  0.0562 -0.1455 -0.3589
 1036YOPC   C2B13574   1.887   0.390   7.055  0.0618 -0.1190 -0.0715
 1036YOPC   D3B13575   1.846   0.079   7.314  0.0856  0.0552 -0.2290
 1036YOPC   C4B13576   1.528  -0.151   7.412 -0.2171 -0.2369 -0.1227
 1037YOPC   NC313577  18.012   8.431   5.517  0.0935  0.1164 -0.0496
 1037YOPC   PO413578  18.346   8.780   5.461  0.1509 -0.2174  0.2012
 1037YOPC   GL113579  18.417   9.092   5.731  0.0436  0.2830 -0.1144
 1037YOPC   GL213580  18.494   8.992   6.000  0.0916 -0.0995  0.1559
 1037YOPC   C1A13581  18.256   9.369   6.158 -0.0612 -0.0161  0.1836
 1037YOPC   D2A13582  18.209   9.119   6.515  0.1864 -0.0524  0.0890
 1037YOPC   C3A13583  18.148   8.885   6.924  0.1305  0.1156 -0.0560
 1037YOPC   C4A13584  18.024   8.736   7.412 -0.5752  0.1376 -0.0297
 1037YOPC   C1B13585  18.491   8.587   6.277 -0.2207 -0.2983 -0.0034
 1037YOPC   C2B13586  18.335   8.469   6.630 -0.1548  0.0024 -0.1200
 1037YOPC   D3B13587  17.930   8.454   6.968  0.2452  0.0330  0.0683
 1037YOPC   C4B13588  17.568   8.216   6.963  0.0903  0.0282  0.2597
 1038YOPC   NC313589   4.450  10.553   5.666  0.0870  0.3765 -0.1347
 1038YOPC   PO413590   4.539  10.964   5.712 -0.1147 -0.0470  0.3483
 1038YOPC   GL113591   4.394  10.872   6.092 -0.3364  0.0937  0.0869
 1038YOPC   GL213592   4.602  10.655   6.189 -0.1588 -0.0601  0.0057
 1038YOPC   C1A13593   4.226  10.741   6.493  0.1944  0.0547  0.1458
 1038YOPC   D2A13594   3.972  10.429   6.696  0.2926  0.1253 -0.2882
 1038YOPC   C3A13595   3.675  10.447   6.936 -0.1490  0.0230  0.1777
 1038YOPC   C4A13596   3.280  10.276   6.918  0.1543 -0.2338 -0.0820
 1038YOPC   C1B13597   4.512  10.363   6.525  0.2406 -0.0779 -0.1989
 1038YOPC   C2B13598   4.395  10.523   6.955  0.1076  0.0647 -0.1103
 1038YOPC   D3B13599   4.652  10.316   7.262  0.1748  0.1443 -0.1371
 1038YOPC   C4B13600   4.828  10.135   7.714  0.0204  0.3669  0.0058
 1039YOPC   NC313601  12.654   5.315   5.494  0.0536  0.1731 -0.0125
 1039YOPC   PO413602  12.484   5.327   5.848 -0.1450  0.0720 -0.1622
 1039YOPC   GL113603  12.610   5.048   6.178 -0.2882  0.3275  0.3238
 1039YOPC   GL213604  12.776   4.711   6.118  0.2938 -0.1162  0.1635
 1039YOPC   C1A13605  12.735   4.871   6.626  0.1656 -0.0273 -0.3465
 1039YOPC   D2A13606  12.568   4.611   6.937  0.2845 -0.1697 -0.1202
 1039YOPC   C3A13607  12.605   4.555   7.247  0.1068  0.1023  0.1095
 1039YOPC   C4A13608  12.498   4.232   7.437  0.1620  0.3204  0.0346
 1039YOPC   C1B13609  12.399   4.600   6.321 -0.2712  0.0451 -0.0056
 1039YOPC   C2B13610  12.179   4.789   6.441 -0.2029 -0.2404  0.0814
 1039YOPC   D3B13611  12.068   4.723   6.828  0.1705 -0.0776 -0.2246
 1039YOPC   C4B13612  11.780   4.920   7.066 -0.0946 -0.0664  0.1680
 1040YOPC   NC313613  15.918  15.272   5.779 -0.1930 -0.3734  0.2217
 1040YOPC   PO413614  16.290  15.105   5.668  0.1475  0.1035 -0.1768
 1040YOPC   GL113615  16.526  15.253   5.948 -0.0947  0.0640  0.3267
 1040YOPC   GL213616  16.827  15.328   6.099 -0.3274 -0.3186 -0.0708
 1040YOPC   C1A13617  16.394  15.230   6.322  0.1676  0.0541  0.0590
 1040YOPC   D2A13618  16.416  15.338   6.790  0.0676  0.3360 -0.0819
 1040YOPC   C3A13619  16.239  15.104   7.057  0.1023 -0.2362 -0.0165
 1040YOPC   C4A13620  16.043  14.951   7.466 -0.2616 -0.0122  0.4545
 1040YOPC   C1B13621  16.974  15.177   6.549  0.4285 -0.1463  0.1193
 1040YOPC   C2B13622  16.858  15.109   6.978  0.2765  0.1860 -0.3485
 1040YOPC   D3B13623  17.095  15.508   7.272 -0.0168 -0.1222 -0.0992
 1040YOPC   C4B13624  17.120  15.713   7.623 -0.2186  0.0101 -0.1907
 1041YOPC   NC313625   8.343  16.772   5.040 -0.2325 -0.0539 -0.1769
 1041YOPC   PO413626   8.342  16.501   5.328  0.0977  0.0600  0.4812
 1041YOPC   GL113627   8.470  16.625   5.823 -0.1309  0.0334 -0.5738
 1041YOPC   GL213628   8.700  16.795   5.903  0.0515  0.1151  0.2260
 1041YOPC   C1A13629   8.534  16.589   6.317 -0.0576  0.1166 -0.1314
 1041YOPC   D2A13630   8.229  16.335   6.437 -0.1405  0.0427  0.2650
 1041YOPC   C3A13631   8.385  16.255   6.934  0.0319 -0.2850 -0.1286
 1041YOPC   C4A13632   8.356  16.398   7.315  0.1222  0.0547 -0.2660
 1041YOPC   C1B13633   9.141  16.728   6.148  0.0923  0.4243  0.0207
 1041YOPC   C2B13634   9.142  16.407   6.516  0.0411 -0.0941 -0.1726
 1041YOPC   D3B13635   9.517  16.222   6.593  0.0405 -0.1791  0.0259
 1041YOPC   C4B13636   9.938  16.242   6.406  0.0862 -0.1237 -0.1870
 1042YOPC   NC313637  13.932   2.739   5.902 -0.2422 -0.0522 -0.0385
 1042YOPC   PO413638  13.726   3.154   5.925 -0.0791  0.3057 -0.2153
 1042YOPC   GL113639  13.605   3.281   6.272  0.1229  0.0834 -0.1981
 1042YOPC   GL213640  13.756   3.573   6.255 -0.0568 -0.2422  0.0177
 1042YOPC   C1A13641  13.575   3.003   6.632  0.1203  0.0581  0.2801
 1042YOPC   D2A13642  13.282   3.117   6.964 -0.0356 -0.1416 -0.1888
 1042YOPC   C3A13643  13.029   2.750   7.193 -0.0828 -0.0359  0.0651
 1042YOPC   C4A13644  12.931   2.479   7.477 -0.0984 -0.0685 -0.3127
 1042YOPC   C1B13645  13.694   3.443   6.741  0.0982 -0.2722  0.0489
 1042YOPC   C2B13646  13.562   3.494   7.134 -0.0496  0.0410 -0.0572
 1042YOPC   D3B13647  13.248   3.538   7.367 -0.1656  0.2633  0.0899
 1042YOPC   C4B13648  13.174   3.931   7.557 -0.1390  0.2019  0.2270
 1043YOPC   NC313649   4.303  16.921   6.051 -0.2598  0.1474 -0.0669
 1043YOPC   PO413650   3.917  16.792   5.918  0.1206  0.1240 -0.2774
 1043YOPC   GL113651   3.869  16.939   6.306 -0.0865  0.0137  0.0715
 1043YOPC   GL213652   4.051  16.829   6.564  0.2476  0.3515 -0.3848
 1043YOPC   C1A13653   3.768  17.273   6.720  0.0783 -0.0764 -0.1132
 1043YOPC   D2A13654   3.683  17.292   7.146  0.0367  0.1227  0.6039
 1043YOPC   C3A13655   3.922  17.359   7.365 -0.0139  0.3679 -0.0856
 1043YOPC   C4A13656   4.164  16.980   7.648  0.0675  0.0712  0.2426
 1043YOPC   C1B13657   3.999  16.917   7.101 -0.0334 -0.2104  0.2262
 1043YOPC   C2B13658   3.876  16.568   7.532  0.1084 -0.0533 -0.0420
 1043YOPC   D3B13659   3.931  16.163   7.540 -0.0197  0.1040 -0.0813
 1043YOPC   C4B13660   3.917  15.772   7.638  0.1700 -0.4741 -0.2422
 1044YOPC   NC313661   8.356  17.526   5.427  0.0420  0.0381 -0.1977
 1044YOPC   PO413662   8.272  17.622   5.866  0.1121  0.3898  0.1794
 1044YOPC   GL113663   8.309  17.560   6.344 -0.3376 -0.1767 -0.2283
 1044YOPC   GL213664   8.550  17.655   6.425 -0.2389 -0.0996 -0.0666
 1044YOPC   C1A13665   8.425  17.144   6.453 -0.3189 -0.1682  0.0626
 1044YOPC   D2A13666   8.506  16.796   6.786  0.0226  0.1193  0.2492
 1044YOPC   C3A13667   8.239  16.838   7.098 -0.1489  0.0389  0.3733
 1044YOPC   C4A13668   7.978  16.928   7.342  0.0676 -0.0386  0.1269
 1044YOPC   C1B13669   8.557  17.443   6.831 -0.0325 -0.2385  0.1613
 1044YOPC   C2B13670   8.695  17.114   7.163 -0.1872 -0.0514  0.2064
 1044YOPC   D3B13671   8.577  17.003   7.547 -0.1028 -0.0716  0.1579
 1044YOPC   C4B13672   8.304  16.770   7.758 -0.0308  0.0630 -0.0371
 1045YOPC   NC313673  13.192   6.813   6.079 -0.0696 -0.0668 -0.1366
 1045YOPC   PO413674  13.218   6.402   5.991  0.0964 -0.0842  0.0888
 1045YOPC   GL113675  13.370   6.111   6.359 -0.4061  0.0689 -0.2502
 1045YOPC   GL213676  13.227   5.902   6.401  0.2646 -0.0105  0.1174
 1045YOPC   C1A13677  13.459   6.066   6.855  0.1557  0.0350 -0.3289
 1045YOPC   D2A13678  13.469   6.116   7.310  0.1575 -0.2092 -0.0490
 1045YOPC   C3A13679  13.322   6.484   7.712 -0.1162 -0.0644  0.2228
 1045YOPC   C4A13680  13.165   6.459   8.054 -0.0466  0.0177  0.0879
 1045YOPC   C1B13681  13.209   5.529   6.530  0.2329  0.1077  0.1529
 1045YOPC   C2B13682  13.097   5.277   6.859  0.0519  0.1291 -0.0738
 1045YOPC   D3B13683  13.169   5.338   7.205  0.0839 -0.0125  0.1219
 1045YOPC   C4B13684  13.078   5.382   7.682  0.3073 -0.0553 -0.3906
 1046YOPC   NC313685  16.984  16.737   5.963 -0.5077 -0.2144  0.0417
 1046YOPC   PO413686  17.501  16.754   6.087 -0.1554 -0.0198 -0.1508
 1046YOPC   GL113687  17.343  16.735   6.529 -0.2288 -0.0209 -0.0510
 1046YOPC   GL213688  17.099  16.697   6.473  0.1110 -0.1094 -0.0558
 1046YOPC   C1A13689  17.504  16.933   6.920 -0.0155  0.1882 -0.5353
 1046YOPC   D2A13690  17.830  16.900   7.258  0.0930 -0.2450 -0.0271
 1046YOPC   C3A13691  17.623  16.632   7.589 -0.2136  0.0157  0.1118
 1046YOPC   C4A13692  17.337  16.421   8.014 -0.0092 -0.0503  0.1205
 1046YOPC   C1B13693  16.968  17.007   6.877  0.0273 -0.3725  0.0101
 1046YOPC   C2B13694  16.998  17.169   7.249  0.0133 -0.0261  0.0540
 1046YOPC   D3B13695  17.107  17.229   7.713  0.1519  0.0211  0.4574
 1046YOPC   C4B13696  17.059  17.083   8.120 -0.2684 -0.1001  0.1121
 1047YOPC   NC313697  16.153   1.382   6.400 -0.2902 -0.3564  0.3292
 1047YOPC   PO413698  15.927   1.687   6.548 -0.2043 -0.2437  0.4353
 1047YOPC   GL113699  16.210   1.827   6.809  0.0510 -0.2053  0.0427
 1047YOPC   GL213700  16.448   1.499   6.797  0.2949  0.0912  0.0745
 1047YOPC   C1A13701  15.972   2.002   7.212 -0.3284  0.2787 -0.0288
 1047YOPC   D2A13702  15.698   2.003   7.510 -0.0268  0.2098  0.0006
 1047YOPC   C3A13703  15.831   1.943   7.906 -0.0623 -0.1327  0.1393
 1047YOPC   C4A13704  16.019   1.621   8.109 -0.0539 -0.1438 -0.0827
 1047YOPC   C1B13705  16.271   1.493   7.231 -0.1938  0.0457  0.0481
 1047YOPC   C2B13706  16.149   1.558   7.580 -0.3522 -0.1296 -0.2239
 1047YOPC   D3B13707  16.317   2.016   7.689  0.3989 -0.0153  0.2167
 1047YOPC   C4B13708  16.217   2.419   7.865  0.2098 -0.0942 -0.0004
 1048YOPC   NC313709   0.319   3.063   5.534  0.0592  0.2454  0.1720
 1048YOPC   PO413710   0.364   3.458   5.703  0.2959 -0.1172  0.2723
 1048YOPC   GL113711   0.169   3.387   6.043  0.2682  0.4009  0.1509
 1048YOPC   GL213712   0.231   3.696   6.277  0.0003 -0.3821  0.3529
 1048YOPC   C1A13713   0.373   3.265   6.472  0.0661  0.2347  0.0103
 1048YOPC   D2A13714   0.447   2.813   6.618  0.1306 -0.1486  0.0924
 1048YOPC   C3A13715   0.331   2.682   6.976  0.1777 -0.0742  0.4021
 1048YOPC   C4A13716   0.089   2.520   7.297 -0.0960  0.1227 -0.2812
 1048YOPC   C1B13717   0.254   3.663   6.705  0.2519  0.0064  0.1706
 1048YOPC   C2B13718   0.317   3.654   7.132  0.3340  0.1296  0.0101
 1048YOPC   D3B13719   0.247   4.049   7.234 -0.4042 -0.0489  0.2195
 1048YOPC   C4B13720  -0.120   4.231   7.288 -0.2494  0.0829 -0.2930
 1049YOPC   NC313721  10.925   1.629   5.986  0.4611 -0.1890  0.1073
 1049YOPC   PO413722  10.873   1.257   6.055 -0.3109  0.1974 -0.0393
 1049YOPC   GL113723  10.676   1.332   6.470  0.0493  0.0544  0.2790
 1049YOPC   GL213724  10.565   1.125   6.712 -0.0643 -0.0977  0.2089
 1049YOPC   C1A13725  10.955   1.505   6.815 -0.2188 -0.3119 -0.2114
 1049YOPC   D2A13726  10.965   1.315   7.341  0.0915 -0.0904 -0.0148
 1049YOPC   C3A13727  10.582   1.160   7.535  0.1031 -0.2945  0.1943
 1049YOPC   C4A13728  10.324   1.455   7.877 -0.3586  0.1203 -0.2691
 1049YOPC   C1B13729  10.488   0.658   6.684  0.1108 -0.0210 -0.0589
 1049YOPC   C2B13730  10.794   0.355   6.786 -0.0443 -0.2244  0.2674
 1049YOPC   D3B13731  10.888   0.216   7.157 -0.1897  0.1471  0.0683
 1049YOPC   C4B13732  11.070   0.107   7.544 -0.0040  0.1326 -0.0011
 1050YOPC   NC313733   1.409   9.850   5.965 -0.0154  0.0771 -0.2655
 1050YOPC   PO413734   1.078   9.752   5.929 -0.1361  0.1707 -0.0676
 1050YOPC   GL113735   0.845   9.689   6.197 -0.3183  0.0576 -0.1331
 1050YOPC   GL213736   0.522   9.772   6.142  0.2137 -0.0276 -0.2217
 1050YOPC   C1A13737   0.674   9.413   6.382  0.0034  0.1535 -0.0537
 1050YOPC   D2A13738   0.355   9.185   6.378 -0.3020  0.3628 -0.0494
 1050YOPC   C3A13739   0.253   9.111   6.810  0.1813  0.5000  0.4658
 1050YOPC   C4A13740   0.074   9.128   7.220 -0.1170  0.1526  0.1300
 1050YOPC   C1B13741   0.202   9.667   6.422  0.2381  0.0397  0.4446
 1050YOPC   C2B13742  -0.311   9.698   6.492  0.0327  0.2860 -0.0038
 1050YOPC   D3B13743  -0.692   9.428   6.605  0.0641  0.0818  0.1420
 1050YOPC   C4B13744  -0.778   9.023   6.560 -0.1463 -0.0038  0.0956
 1051YOPC   NC313745  17.585  11.606   5.740 -0.0749 -0.0568  0.1036
 1051YOPC   PO413746  17.223  11.782   5.870  0.2457  0.0701 -0.1176
 1051YOPC   GL113747  17.451  11.564   6.225  0.2093 -0.3442 -0.0350
 1051YOPC   GL213748  17.716  11.634   6.427  0.3398 -0.0595 -0.1841
 1051YOPC   C1A13749  17.456  11.258   6.487 -0.0455  0.2648  0.2087
 1051YOPC   D2A13750  17.448  11.232   6.934  0.1606 -0.0173 -0.1082
 1051YOPC   C3A13751  17.285  11.597   7.118  0.2145 -0.1199 -0.1242
 1051YOPC   C4A13752  17.123  11.860   7.541 -0.1617  0.0977  0.1184
 1051YOPC   C1B13753  17.842  11.488   6.831 -0.1264  0.4273 -0.2668
 1051YOPC   C2B13754  17.711  11.447   7.310  0.0337  0.0545 -0.3003
 1051YOPC   D3B13755  18.021  11.545   7.686  0.0581  0.0900 -0.1253
 1051YOPC   C4B13756  18.002  11.921   7.944  0.4531 -0.2331  0.1138
 1052YOPC   NC313757  15.184  14.410   5.826 -0.3037  0.1813  0.1028
 1052YOPC   PO413758  15.421  14.868   5.899  0.0777  0.3467  0.0384
 1052YOPC   GL113759  15.316  14.807   6.208 -0.0957  0.1287 -0.0389
 1052YOPC   GL213760  15.586  14.726   6.365  0.3364  0.0289 -0.0549
 1052YOPC   C1A13761  15.142  14.803   6.615  0.5679  0.1021 -0.1961
 1052YOPC   D2A13762  15.149  14.586   7.024  0.1261  0.1151 -0.1931
 1052YOPC   C3A13763  15.259  14.836   7.398 -0.3735  0.2287  0.1038
 1052YOPC   C4A13764  15.087  14.835   7.819  0.0997  0.0178  0.0210
 1052YOPC   C1B13765  15.594  14.668   6.750 -0.1680  0.0827  0.1406
 1052YOPC   C2B13766  15.683  14.937   7.092 -0.0447  0.0278 -0.0906
 1052YOPC   D3B13767  15.755  14.595   7.403  0.0646 -0.3316 -0.1963
 1052YOPC   C4B13768  15.755  14.263   7.729 -0.0756  0.2258 -0.1221
 1053YOPC   NC313769   4.603  13.678   5.572 -0.2124  0.1071 -0.1876
 1053YOPC   PO413770   4.864  13.380   5.859  0.1880  0.0052 -0.0249
 1053YOPC   GL113771   4.927  13.119   6.105 -0.0530  0.0804  0.0182
 1053YOPC   GL213772   4.683  13.129   6.290 -0.2672  0.3544  0.2542
 1053YOPC   C1A13773   5.189  13.024   6.347  0.1666 -0.0174  0.2052
 1053YOPC   D2A13774   5.534  12.891   6.644 -0.1758 -0.4304 -0.1773
 1053YOPC   C3A13775   5.507  12.778   7.085 -0.5275 -0.2605 -0.3259
 1053YOPC   C4A13776   5.482  12.834   7.556 -0.2034 -0.0425 -0.0071
 1053YOPC   C1B13777   4.912  13.408   6.567  0.1807 -0.0672  0.2548
 1053YOPC   C2B13778   4.962  13.470   6.956  0.2008 -0.2406  0.0350
 1053YOPC   D3B13779   5.242  13.863   6.914 -0.1365  0.2293  0.3224
 1053YOPC   C4B13780   5.309  14.257   6.956 -0.0360 -0.1372 -0.2824
 1054YOPC   NC313781  11.020   0.190   5.689 -0.0961  0.0001 -0.3733
 1054YOPC   PO413782  11.191   0.122   6.179  0.2173  0.2188  0.3726
 1054YOPC   GL113783  11.260   0.098   6.630 -0.0391 -0.0222  0.1162
 1054YOPC   GL213784  11.595   0.126   6.627  0.0257  0.0596 -0.4789
 1054YOPC   C1A13785  11.366   0.103   7.080 -0.0108 -0.1383 -0.2375
 1054YOPC   D2A13786  11.608   0.003   7.503  0.2263  0.1748  0.0433
 1054YOPC   C3A13787  11.994   0.278   7.611 -0.0826 -0.0565 -0.2802
 1054YOPC   C4A13788  12.318   0.368   7.909  0.2537  0.2294  0.2848
 1054YOPC   C1B13789  11.857   0.077   7.052  0.3128 -0.1515  0.1557
 1054YOPC   C2B13790  12.093  -0.199   7.313  0.2480 -0.0394  0.0317
 1054YOPC   D3B13791  11.988  -0.368   7.685  0.1832  0.1594 -0.0374
 1054YOPC   C4B13792  11.865  -0.644   7.893  0.0383 -0.2131 -0.0646
 1055YOPC   NC313793   8.618   4.894   5.505 -0.2766  0.2540 -0.1479
 1055YOPC   PO413794   8.897   5.160   5.629  0.0156 -0.0129  0.3221
 1055YOPC   GL113795   8.991   5.239   6.157 -0.1390 -0.2596 -0.2571
 1055YOPC   GL213796   9.130   5.545   6.165 -0.0131 -0.2261 -0.1264
 1055YOPC   C1A13797   8.736   5.264   6.554  0.1354  0.0014 -0.1138
 1055YOPC   D2A13798   8.436   5.087   6.869  0.2836 -0.1441  0.2252
 1055YOPC   C3A13799   8.513   4.926   7.244 -0.2278  0.0127 -0.1231
 1055YOPC   C4A13800   8.765   5.075   7.551  0.1793  0.2187  0.1124
 1055YOPC   C1B13801   9.160   5.538   6.508  0.2062 -0.0732 -0.3717
 1055YOPC   C2B13802   9.183   5.462   6.869 -0.0363  0.4326 -0.0278
 1055YOPC   D3B13803   8.791   5.346   7.154 -0.0807  0.1459  0.2167
 1055YOPC   C4B13804   8.485   5.471   7.476  0.1807  0.0448 -0.1963
 1056YOPC   NC313805   6.093  17.359   5.901 -0.1978  0.3280  0.4164
 1056YOPC   PO413806   6.396  17.730   6.034 -0.2645 -0.1164  0.5944
 1056YOPC   GL113807   6.698  17.597   6.200  0.2104 -0.0496 -0.1012
 1056YOPC   GL213808   6.631  17.835   6.473 -0.0877 -0.2327 -0.0525
 1056YOPC   C1A13809   6.925  17.394   6.554  0.1940  0.1000 -0.0311
 1056YOPC   D2A13810   7.021  17.566   7.078  0.0147 -0.2833 -0.6095
 1056YOPC   C3A13811   7.244  17.296   7.465  0.0001 -0.2513 -0.0420
 1056YOPC   C4A13812   7.497  17.109   7.736  0.1406 -0.0728  0.2315
 1056YOPC   C1B13813   6.648  17.956   6.963  0.1249 -0.1532  0.1140
 1056YOPC   C2B13814   6.504  17.682   7.283 -0.1537 -0.1108 -0.0844
 1056YOPC   D3B13815   6.768  17.526   7.553 -0.2227 -0.0634 -0.0025
 1056YOPC   C4B13816   6.710  17.327   7.946  0.3321  0.2284 -0.1831
 1057YOPC   NC313817  15.860   2.017   6.124 -0.1945 -0.3088 -0.1750
 1057YOPC   PO413818  15.509   2.197   6.001  0.3111  0.2544  0.2215
 1057YOPC   GL113819  15.373   2.345   6.389  0.0638 -0.0623  0.0478
 1057YOPC   GL213820  15.109   2.619   6.448  0.0227 -0.1535  0.5299
 1057YOPC   C1A13821  15.469   2.525   6.835  0.2879  0.0542  0.2352
 1057YOPC   D2A13822  15.381   2.777   7.235  0.4090 -0.1454 -0.0983
 1057YOPC   C3A13823  15.373   2.629   7.596 -0.1833  0.1911 -0.3640
 1057YOPC   C4A13824  15.736   2.478   7.931  0.0171  0.0324  0.1187
 1057YOPC   C1B13825  15.139   2.906   6.795  0.0840  0.0861 -0.1493
 1057YOPC   C2B13826  15.282   3.222   7.133 -0.0359 -0.0280 -0.0358
 1057YOPC   D3B13827  15.370   3.162   7.548  0.1536 -0.2275  0.2038
 1057YOPC   C4B13828  15.337   3.034   7.953  0.1478  0.1445 -0.3681
 1058YOPC   NC313829  10.654   8.313   5.900  0.0690  0.1472 -0.2374
 1058YOPC   PO413830  10.444   8.436   6.243  0.1693  0.2548 -0.1497
 1058YOPC   GL113831  10.212   8.649   6.529  0.0317 -0.1337  0.1363
 1058YOPC   GL213832  10.231   8.990   6.587  0.0768 -0.1239 -0.1158
 1058YOPC   C1A13833  10.007   8.558   6.929  0.2168  0.0362 -0.2086
 1058YOPC   D2A13834   9.863   8.276   7.253 -0.3489 -0.3072 -0.2348
 1058YOPC   C3A13835   9.573   8.410   7.539  0.1670  0.1368  0.1679
 1058YOPC   C4A13836   9.452   8.388   8.048 -0.2736  0.3098  0.0352
 1058YOPC   C1B13837  10.122   9.099   7.004  0.0008 -0.1388 -0.2087
 1058YOPC   C2B13838   9.786   9.287   7.333 -0.3551  0.0513 -0.0597
 1058YOPC   D3B13839   9.853   9.423   7.730 -0.0243 -0.3526  0.1235
 1058YOPC   C4B13840   9.903   9.540   8.140 -0.0292  0.3584 -0.1353
 1059YOPC   NC313841  10.204  16.227   5.772  0.1103  0.0243  0.3178
 1059YOPC   PO413842  10.640  16.319   5.572 -0.0153 -0.0851 -0.0049
 1059YOPC   GL113843  10.658  16.387   6.057  0.1458  0.0228 -0.0865
 1059YOPC   GL213844  10.492  16.082   6.192  0.1738  0.3797 -0.0157
 1059YOPC   C1A13845  10.812  16.325   6.477 -0.0813 -0.0231 -0.2136
 1059YOPC   D2A13846  10.654  16.128   6.823 -0.1981  0.2506 -0.0809
 1059YOPC   C3A13847  10.294  16.425   7.029 -0.0117 -0.0439  0.1712
 1059YOPC   C4A13848  10.089  16.894   7.244  0.3061  0.2072 -0.2048
 1059YOPC   C1B13849  10.237  15.837   6.579  0.0731  0.1699  0.0947
 1059YOPC   C2B13850  10.078  15.551   6.880  0.1050 -0.0639 -0.2513
 1059YOPC   D3B13851   9.761  15.263   6.931  0.0758  0.0915 -0.1523
 1059YOPC   C4B13852   9.465  15.053   7.116  0.0580  0.0736 -0.1370
 1060YOPC   NC313853  17.503   0.763   6.381 -0.0346  0.3292  0.3150
 1060YOPC   PO413854  17.248   0.502   6.353  0.0092  0.1454  0.0139
 1060YOPC   GL113855  17.277   0.529   6.767 -0.0557  0.3029 -0.0532
 1060YOPC   GL213856  17.522   0.742   6.896 -0.0045 -0.1963 -0.0190
 1060YOPC   C1A13857  17.109   0.521   7.279 -0.2095  0.4008 -0.0057
 1060YOPC   D2A13858  17.171   0.534   7.716  0.1199  0.0431  0.0182
 1060YOPC   C3A13859  16.788   0.293   7.920  0.0175  0.0927  0.3146
 1060YOPC   C4A13860  16.448   0.180   8.238  0.1538  0.0771 -0.2654
 1060YOPC   C1B13861  17.457   0.891   7.285 -0.3013 -0.0538 -0.2370
 1060YOPC   C2B13862  17.530   1.049   7.663 -0.0385  0.2085 -0.0952
 1060YOPC   D3B13863  17.407   0.949   8.058  0.0193 -0.0575  0.2446
 1060YOPC   C4B13864  17.274   0.970   8.468  0.1954 -0.2156 -0.4650
 1061YOPC   NC313865  12.215  18.354   6.044 -0.1921 -0.1334  0.4451
 1061YOPC   PO413866  12.390  17.969   5.878 -0.0209 -0.1234  0.0254
 1061YOPC   GL113867  12.318  17.871   6.317  0.1263  0.1989  0.0004
 1061YOPC   GL213868  12.599  18.075   6.438 -0.0547 -0.0343  0.2381
 1061YOPC   C1A13869  12.145  17.641   6.610 -0.0630 -0.3321 -0.4377
 1061YOPC   D2A13870  12.209  17.743   6.977  0.0605 -0.2664 -0.2449
 1061YOPC   C3A13871  12.024  17.630   7.413 -0.0438 -0.0040 -0.0937
 1061YOPC   C4A13872  12.137  17.262   7.730  0.0291  0.1417  0.5034
 1061YOPC   C1B13873  12.747  17.724   6.652 -0.0110  0.0221 -0.2497
 1061YOPC   C2B13874  12.625  17.516   7.011  0.0838 -0.1103 -0.0025
 1061YOPC   D3B13875  12.706  17.303   7.390 -0.0277  0.0750  0.0231
 1061YOPC   C4B13876  12.632  17.089   7.828  0.0078  0.0862 -0.0803
 1062YOPC   NC313877   0.699  12.039   5.261  0.2504  0.0831  0.1161
 1062YOPC   PO413878   0.577  11.871   5.675 -0.0438 -0.0026  0.2320
 1062YOPC   GL113879   0.480  12.016   6.093  0.1470 -0.0667  0.3432
 1062YOPC   GL213880   0.353  12.251   6.168  0.0916  0.0495  0.4114
 1062YOPC   C1A13881   0.661  11.876   6.546 -0.2070 -0.0298 -0.2872
 1062YOPC   D2A13882   0.588  11.448   6.618  0.0283 -0.2659 -0.0303
 1062YOPC   C3A13883   0.457  11.141   6.889 -0.2373  0.0765  0.1442
 1062YOPC   C4A13884   0.481  11.059   7.319 -0.6103 -0.3171 -0.1811
 1062YOPC   C1B13885   0.474  12.382   6.565  0.0082 -0.0921 -0.1941
 1062YOPC   C2B13886   0.485  12.328   6.974  0.0687  0.0977  0.0056
 1062YOPC   D3B13887   0.578  12.080   7.330 -0.0477 -0.0296 -0.0985
 1062YOPC   C4B13888   0.512  11.707   7.620 -0.0798  0.1475  0.0569
 1063YOPC   NC313889   7.158  13.131   5.498 -0.2751 -0.2172 -0.0963
 1063YOPC   PO413890   7.150  13.547   5.626  0.3633  0.0702  0.2122
 1063YOPC   GL113891   7.163  13.493   6.063 -0.1497 -0.0553  0.0300
 1063YOPC   GL213892   6.819  13.382   6.069  0.0147  0.1036 -0.1837
 1063YOPC   C1A13893   7.279  13.649   6.363 -0.0016 -0.2040  0.2109
 1063YOPC   D2A13894   7.597  13.943   6.526 -0.0253 -0.2512  0.2859
 1063YOPC   C3A13895   7.311  14.216   6.856 -0.0327 -0.2286  0.3589
 1063YOPC   C4A13896   7.042  14.569   7.120  0.3034  0.2152  0.3797
 1063YOPC   C1B13897   6.475  13.322   6.328  0.1167  0.0429  0.0521
 1063YOPC   C2B13898   6.266  13.552   6.737 -0.0091 -0.1780 -0.0179
 1063YOPC   D3B13899   6.361  13.463   7.124 -0.0197  0.1627 -0.1166
 1063YOPC   C4B13900   6.364  13.330   7.508  0.2446  0.0145 -0.0838
 1064YOPC   NC313901   2.955  10.195   5.481 -0.4391 -0.1014 -0.1406
 1064YOPC   PO413902   3.412  10.183   5.502  0.3541  0.1811 -0.0420
 1064YOPC   GL113903   3.371  10.208   5.928 -0.2058  0.1635 -0.2186
 1064YOPC   GL213904   3.011  10.303   6.004 -0.2287  0.1856 -0.1218
 1064YOPC   C1A13905   3.514  10.475   6.215  0.2040  0.0822  0.0911
 1064YOPC   D2A13906   3.538  10.676   6.444 -0.0419  0.3528 -0.4200
 1064YOPC   C3A13907   3.778  10.973   6.684 -0.0806  0.0491 -0.1319
 1064YOPC   C4A13908   4.099  10.889   7.075 -0.1063  0.1148 -0.0318
 1064YOPC   C1B13909   2.821  10.304   6.294 -0.2471  0.4236 -0.2851
 1064YOPC   C2B13910   2.593   9.968   6.523 -0.1168 -0.0726  0.1060
 1064YOPC   D3B13911   2.744  10.339   6.899 -0.1946 -0.3410 -0.0174
 1064YOPC   C4B13912   2.965  10.492   7.224  0.3419 -0.0227 -0.4459
 1065YOPC   NC313913   0.337   7.670   5.662  0.1988 -0.1106  0.2425
 1065YOPC   PO413914   0.028   7.373   5.438 -0.1068 -0.2528  0.0197
 1065YOPC   GL113915  -0.018   7.291   5.892  0.2520  0.2754  0.2706
 1065YOPC   GL213916  -0.248   7.082   5.959  0.0563 -0.2568  0.1753
 1065YOPC   C1A13917   0.200   7.440   6.243 -0.0102 -0.0874  0.1044
 1065YOPC   D2A13918   0.440   7.575   6.640 -0.2200  0.0890 -0.4100
 1065YOPC   C3A13919   0.359   8.028   6.813 -0.0371  0.2858  0.3962
 1065YOPC   C4A13920   0.434   8.156   7.239  0.0736  0.1917 -0.1170
 1065YOPC   C1B13921  -0.064   7.029   6.419  0.0268 -0.2688 -0.0617
 1065YOPC   C2B13922   0.153   7.139   6.775 -0.2127  0.0230  0.0560
 1065YOPC   D3B13923  -0.026   7.323   7.154 -0.1349 -0.2358 -0.1271
 1065YOPC   C4B13924  -0.193   7.491   7.552  0.0350 -0.1308 -0.0713
 1066YOPC   NC313925  18.290   1.421   5.465  0.0867 -0.1898 -0.1761
 1066YOPC   PO413926  18.173   1.798   5.803  0.0821  0.0241  0.0374
 1066YOPC   GL113927  18.331   2.066   6.174 -0.2200  0.2249 -0.2017
 1066YOPC   GL213928  18.162   2.225   6.034  0.0598 -0.0274  0.2630
 1066YOPC   C1A13929  18.305   2.232   6.732 -0.1030  0.0282 -0.0625
 1066YOPC   D2A13930  18.078   2.307   7.094 -0.1501 -0.0449 -0.0278
 1066YOPC   C3A13931  17.882   2.031   7.414  0.1813 -0.0565 -0.1284
 1066YOPC   C4A13932  17.877   1.899   7.792 -0.1170 -0.1024  0.2725
 1066YOPC   C1B13933  18.488   2.505   6.253  0.1514 -0.0733 -0.3567
 1066YOPC   C2B13934  18.755   2.355   6.572 -0.2258 -0.2248  0.0944
 1066YOPC   D3B13935  18.761   2.173   7.027 -0.0199  0.1279 -0.1097
 1066YOPC   C4B13936  18.894   2.098   7.487 -0.0413 -0.2316  0.1859
 1067YOPC   NC313937  18.288  15.813   5.776  0.0544 -0.3637  0.1120
 1067YOPC   PO413938  18.411  15.402   5.937  0.1201 -0.2257 -0.1722
 1067YOPC   GL113939  18.472  15.455   6.317  0.0827  0.0382 -0.0453
 1067YOPC   GL213940  18.701  15.524   6.540  0.0492  0.2228  0.1971
 1067YOPC   C1A13941  18.303  15.580   6.772  0.2704  0.3681  0.1719
 1067YOPC   D2A13942  18.377  15.705   7.232  0.1452  0.1659 -0.0534
 1067YOPC   C3A13943  18.478  15.422   7.624  0.2115 -0.0646  0.3415
 1067YOPC   C4A13944  18.583  15.333   8.077  0.3241  0.2163 -0.2103
 1067YOPC   C1B13945  18.821  15.764   6.953 -0.0054  0.0361  0.1812
 1067YOPC   C2B13946  18.836  16.225   7.183  0.1379  0.0814  0.1161
 1067YOPC   D3B13947  19.185  16.398   7.361  0.0381  0.2550  0.0873
 1067YOPC   C4B13948  19.434  16.692   7.244 -0.0166 -0.1064  0.1203
 1068YOPC   NC313949  12.437   1.770   5.829 -0.1762  0.2169 -0.1182
 1068YOPC   PO413950  12.712   1.647   6.110 -0.1898  0.0950 -0.1761
 1068YOPC   GL113951  12.555   1.806   6.470  0.1013  0.0738  0.0269
 1068YOPC   GL213952  12.643   2.210   6.485  0.0933  0.1428 -0.1352
 1068YOPC   C1A13953  12.501   1.688   6.900  0.1962 -0.3613  0.1219
 1068YOPC   D2A13954  12.527   1.546   7.276 -0.0066 -0.1390  0.1554
 1068YOPC   C3A13955  12.510   1.153   7.469  0.0064 -0.3135  0.0136
 1068YOPC   C4A13956  12.329   0.791   7.624 -0.0445 -0.0936  0.3940
 1068YOPC   C1B13957  12.940   1.949   6.777 -0.1538  0.1057 -0.1259
 1068YOPC   C2B13958  13.076   2.133   7.163 -0.0202 -0.1448  0.0367
 1068YOPC   D3B13959  13.210   1.822   7.465 -0.0979  0.0827  0.0625
 1068YOPC   C4B13960  13.552   1.811   7.776  0.1130  0.1969  0.1061
 1069YOPC   NC313961   0.085   0.848   6.081 -0.1791  0.2761  0.0609
 1069YOPC   PO413962   0.024   1.236   5.905 -0.1338 -0.0244  0.1339
 1069YOPC   GL113963  -0.009   1.498   6.178  0.2333 -0.2178  0.0088
 1069YOPC   GL213964   0.173   1.299   6.362  0.0849  0.2490 -0.2192
 1069YOPC   C1A13965  -0.305   1.794   6.525  0.3927 -0.2727 -0.0545
 1069YOPC   D2A13966  -0.511   1.941   6.861  0.1528 -0.0147  0.1334
 1069YOPC   C3A13967  -0.835   1.906   7.084 -0.0121  0.1465  0.0435
 1069YOPC   C4A13968  -0.997   1.957   7.592  0.1111 -0.0260  0.2683
 1069YOPC   C1B13969   0.014   1.307   6.818 -0.0280  0.0591 -0.4132
 1069YOPC   C2B13970   0.080   1.182   7.198 -0.2345 -0.3106 -0.0355
 1069YOPC   D3B13971  -0.069   1.348   7.517  0.0483 -0.0134  0.1247
 1069YOPC   C4B13972  -0.046   1.737   7.836  0.1064 -0.0414  0.3242
 1070YOPC   NC313973  14.718  15.000   6.086 -0.1082 -0.0458  0.1067
 1070YOPC   PO413974  14.280  14.851   6.072 -0.0441 -0.1599 -0.2233
 1070YOPC   GL113975  14.343  14.942   6.506  0.2570  0.1734 -0.1134
 1070YOPC   GL213976  14.687  14.981   6.589  0.1013  0.3786  0.0395
 1070YOPC   C1A13977  14.257  14.883   6.849  0.0429 -0.0463 -0.2275
 1070YOPC   D2A13978  14.217  15.007   7.198 -0.0210 -0.2673 -0.2557
 1070YOPC   C3A13979  13.892  14.763   7.378  0.1639 -0.2227 -0.0931
 1070YOPC   C4A13980  13.919  14.494   7.704 -0.5743  0.0993 -0.0505
 1070YOPC   C1B13981  14.706  15.022   7.041 -0.1505  0.2501  0.0640
 1070YOPC   C2B13982  14.752  15.054   7.462 -0.0968 -0.1738 -0.0127
 1070YOPC   D3B13983  14.337  15.144   7.721  0.0185 -0.2211  0.1257
 1070YOPC   C4B13984  13.982  15.155   7.669 -0.1303  0.2405  0.2938
 1071YOPC   NC313985   9.118   2.664   6.075  0.2321 -0.3502 -0.0923
 1071YOPC   PO413986   9.419   2.337   6.169  0.1125  0.1879  0.0210
 1071YOPC   GL113987   9.596   2.327   6.622  0.2792 -0.0314 -0.0196
 1071YOPC   GL213988   9.804   1.993   6.780  0.0615 -0.0397  0.0315
 1071YOPC   C1A13989   9.493   2.330   7.014 -0.1673  0.3601 -0.1510
 1071YOPC   D2A13990   9.514   2.355   7.460  0.2706  0.0679 -0.3162
 1071YOPC   C3A13991   9.866   2.321   7.778 -0.2916 -0.3327 -0.0529
 1071YOPC   C4A13992  10.083   2.093   8.083 -0.0069 -0.2804  0.1136
 1071YOPC   C1B13993   9.953   2.177   7.323  0.1663  0.2078  0.3815
 1071YOPC   C2B13994  10.211   1.883   7.639 -0.2708 -0.0516  0.0617
 1071YOPC   D3B13995  10.453   1.619   7.380  0.4747  0.0471  0.0209
 1071YOPC   C4B13996  10.459   1.355   7.090 -0.2630  0.0587 -0.0658
 1072YOPC   NC313997   4.504  15.853   6.039  0.1745  0.0967  0.1213
 1072YOPC   PO413998   4.595  16.280   5.706 -0.0113  0.1298 -0.1002
 1072YOPC   GL113999   4.460  16.399   6.202  0.1651 -0.1992 -0.1959
 1072YOPC   GL214000   4.727  16.417   6.273 -0.1613 -0.0049  0.0360
 1072YOPC   C1A14001   4.278  16.439   6.524  0.2991 -0.0353 -0.3251
 1072YOPC   D2A14002   3.933  16.380   6.938 -0.1108 -0.0104  0.0527
 1072YOPC   C3A14003   3.469  16.382   7.175  0.2336  0.0030  0.0670
 1072YOPC   C4A14004   3.429  16.365   7.700 -0.1787  0.1647 -0.1630
 1072YOPC   C1B14005   4.776  16.280   6.724  0.3322 -0.1812 -0.0101
 1072YOPC   C2B14006   4.658  16.036   7.024  0.0378  0.2011 -0.5492
 1072YOPC   D3B14007   4.386  16.201   7.248  0.3606 -0.2531 -0.0242
 1072YOPC   C4B14008   4.337  16.396   7.647 -0.2794 -0.0619  0.1115
 1073YOPC   NC314009  13.172  13.796   5.656 -0.0891  0.4264  0.0078
 1073YOPC   PO414010  13.500  14.127   5.774 -0.1631  0.3430 -0.1966
 1073YOPC   GL114011  13.653  14.403   6.185 -0.0925  0.0376 -0.0540
 1073YOPC   GL214012  13.805  14.662   6.023  0.2945  0.1449 -0.0613
 1073YOPC   C1A14013  13.740  14.615   6.638  0.1771  0.0894 -0.0176
 1073YOPC   D2A14014  13.989  14.497   6.958 -0.0015  0.4369  0.3458
 1073YOPC   C3A14015  13.749  14.280   7.281 -0.0083  0.0804 -0.1803
 1073YOPC   C4A14016  13.468  14.160   7.697  0.2434 -0.0092 -0.1564
 1073YOPC   C1B14017  13.462  14.829   6.226 -0.4892  0.0611 -0.3487
 1073YOPC   C2B14018  13.397  15.259   6.365  0.0701  0.0660  0.3197
 1073YOPC   D3B14019  13.293  15.369   6.723  0.1030  0.3784 -0.0724
 1073YOPC   C4B14020  13.095  15.299   7.030 -0.0895  0.0275 -0.2260
 1074YOPC   NC314021   8.355   1.518   5.819 -0.1323 -0.1298  0.0417
 1074YOPC   PO414022   8.606   1.867   6.038 -0.0215 -0.1849 -0.1305
 1074YOPC   GL114023   8.843   1.743   6.418 -0.0874 -0.0206 -0.1248
 1074YOPC   GL214024   9.128   1.521   6.359 -0.6501  0.0645  0.0143
 1074YOPC   C1A14025   8.694   1.956   6.770 -0.3910  0.0617  0.2303
 1074YOPC   D2A14026   8.534   2.046   7.172 -0.2364 -0.1296  0.1021
 1074YOPC   C3A14027   8.508   1.828   7.607 -0.4825  0.1803  0.3746
 1074YOPC   C4A14028   8.321   1.828   7.993 -0.2606  0.0862  0.4242
 1074YOPC   C1B14029   9.072   1.527   6.825 -0.0239 -0.0391  0.0047
 1074YOPC   C2B14030   8.847   1.656   7.245  0.0773 -0.1103  0.1007
 1074YOPC   D3B14031   9.096   1.764   7.571  0.2585 -0.0936  0.0576
 1074YOPC   C4B14032   8.852   1.944   7.965  0.1342  0.0393  0.3433
 1075YOPC   NC314033  13.316   5.946   5.851  0.1350 -0.1351  0.2100
 1075YOPC   PO414034  13.609   5.830   6.083 -0.2237  0.1396  0.2750
 1075YOPC   GL114035  13.692   5.698   6.383  0.1213  0.1475 -0.0096
 1075YOPC   GL214036  13.675   5.326   6.408 -0.0949 -0.1232 -0.0506
 1075YOPC   C1A14037  13.612   5.636   6.904  0.0879  0.0582  0.0748
 1075YOPC   D2A14038  13.557   5.629   7.348  0.0473 -0.0476 -0.5148
 1075YOPC   C3A14039  13.573   5.355   7.673  0.0772 -0.0995  0.1300
 1075YOPC   C4A14040  13.708   5.088   7.959  0.0042 -0.0034  0.0797
 1075YOPC   C1B14041  13.631   5.132   6.779  0.3817  0.0432  0.2182
 1075YOPC   C2B14042  13.602   5.127   7.207 -0.2449  0.0223  0.1162
 1075YOPC   D3B14043  13.821   4.875   7.441 -0.2327 -0.1446  0.0247
 1075YOPC   C4B14044  13.686   4.592   7.692 -0.0913  0.0195  0.0659
 1076YOPC   NC314045   2.521  15.076   5.884 -0.2903 -0.0004 -0.2423
 1076YOPC   PO414046   2.814  15.398   5.755 -0.4155 -0.1208 -0.2267
 1076YOPC   GL114047   2.730  15.457   6.147 -0.1419  0.1207 -0.0357
 1076YOPC   GL214048   2.897  15.211   6.427  0.2964  0.0627  0.2329
 1076YOPC   C1A14049   2.619  15.733   6.331  0.1337 -0.1602 -0.1852
 1076YOPC   D2A14050   2.731  16.186   6.526 -0.0220 -0.2157 -0.2026
 1076YOPC   C3A14051   2.577  16.632   6.704  0.0600 -0.1384  0.1065
 1076YOPC   C4A14052   2.520  16.662   7.181 -0.2317  0.1433 -0.0019
 1076YOPC   C1B14053   2.811  15.110   6.888  0.2365 -0.0831 -0.2203
 1076YOPC   C2B14054   2.906  14.948   7.290  0.0381  0.0881 -0.0668
 1076YOPC   D3B14055   2.711  15.166   7.474 -0.1954 -0.1033 -0.1302
 1076YOPC   C4B14056   2.552  15.333   7.905 -0.1707 -0.1307  0.2973
 1077YOPC   NC314057   4.151  10.006   5.307  0.0041 -0.1784  0.3391
 1077YOPC   PO414058   4.131   9.732   5.459  0.1069 -0.0510 -0.0436
 1077YOPC   GL114059   4.358   9.367   5.666  0.0440 -0.2963 -0.0902
 1077YOPC   GL214060   4.611   9.445   5.964 -0.4565 -0.0442  0.1479
 1077YOPC   C1A14061   4.195   9.165   5.970 -0.2820  0.1786 -0.3654
 1077YOPC   D2A14062   3.889   8.894   6.019  0.1185  0.1592 -0.0917
 1077YOPC   C3A14063   3.611   9.002   6.254 -0.0008  0.1711  0.0068
 1077YOPC   C4A14064   3.194   9.009   6.461 -0.1366 -0.0186 -0.2437
 1077YOPC   C1B14065   4.468   9.495   6.427  0.1845  0.0461  0.0900
 1077YOPC   C2B14066   4.428   9.243   6.869  0.2814 -0.0667 -0.1053
 1077YOPC   D3B14067   4.822   9.181   7.096  0.2636 -0.0145 -0.0102
 1077YOPC   C4B14068   5.240   9.138   7.285 -0.1858  0.2355 -0.0333
 1078YOPC   NC314069   6.241  14.201   5.889 -0.1016 -0.1414 -0.1213
 1078YOPC   PO414070   6.230  14.557   5.792  0.0539 -0.1131  0.5288
 1078YOPC   GL114071   6.290  14.606   6.182  0.0630 -0.2092  0.3535
 1078YOPC   GL214072   6.508  14.338   6.344  0.1019 -0.0950  0.0891
 1078YOPC   C1A14073   6.437  14.852   6.558 -0.3506 -0.0791  0.1938
 1078YOPC   D2A14074   6.740  14.962   6.994 -0.2090 -0.1245 -0.1725
 1078YOPC   C3A14075   6.570  15.069   7.367  0.0650  0.0609 -0.3233
 1078YOPC   C4A14076   6.481  15.238   7.775  0.5802 -0.0082 -0.2678
 1078YOPC   C1B14077   6.651  14.373   6.797 -0.0921 -0.0380  0.0176
 1078YOPC   C2B14078   6.749  14.159   7.274 -0.0889  0.0459 -0.2049
 1078YOPC   D3B14079   7.111  14.078   7.326  0.0149 -0.1696  0.1243
 1078YOPC   C4B14080   7.366  14.429   7.552  0.1023 -0.1419 -0.0819
 1079YOPC   NC314081   2.899   1.012   5.882  0.1362  0.0151 -0.1918
 1079YOPC   PO414082   2.588   1.189   6.192 -0.1160  0.2196 -0.1696
 1079YOPC   GL114083   2.335   1.323   6.478 -0.2251 -0.2264 -0.0401
 1079YOPC   GL214084   2.303   1.626   6.536  0.3658 -0.5293 -0.2066
 1079YOPC   C1A14085   2.321   1.040   6.907 -0.3863 -0.0173  0.2095
 1079YOPC   D2A14086   2.406   0.941   7.339 -0.4692 -0.2038  0.0298
 1079YOPC   C3A14087   2.654   0.984   7.721 -0.0215 -0.0315 -0.0042
 1079YOPC   C4A14088   3.184   1.086   7.768  0.1810 -0.1350 -0.1523
 1079YOPC   C1B14089   2.395   1.543   6.958 -0.3040  0.0303 -0.1059
 1079YOPC   C2B14090   2.520   1.443   7.383 -0.0133 -0.0495 -0.0697
 1079YOPC   D3B14091   2.848   1.441   7.582 -0.1153 -0.1644  0.2087
 1079YOPC   C4B14092   3.141   1.661   7.559  0.0616 -0.2696 -0.0699
 1080YOPC   NC314093  13.080  16.580   5.140  0.0048  0.0693  0.1881
 1080YOPC   PO414094  12.793  16.529   5.487 -0.0297  0.2678  0.2220
 1080YOPC   GL114095  12.764  16.560   5.905 -0.0796  0.0121 -0.1139
 1080YOPC   GL214096  12.949  16.832   5.996 -0.2790 -0.0745  0.0516
 1080YOPC   C1A14097  12.483  16.353   6.259 -0.0895 -0.0877 -0.1042
 1080YOPC   D2A14098  12.529  16.087   6.612  0.1191  0.2276  0.0698
 1080YOPC   C3A14099  12.600  15.682   6.429 -0.2514  0.0481 -0.0662
 1080YOPC   C4A14100  12.873  15.392   6.437  0.0779  0.0600  0.1646
 1080YOPC   C1B14101  12.633  16.817   6.298 -0.0504 -0.0282 -0.2194
 1080YOPC   C2B14102  12.435  16.669   6.655  0.0901  0.2384 -0.4061
 1080YOPC   D3B14103  12.664  16.512   6.948 -0.0149  0.3202  0.2149
 1080YOPC   C4B14104  12.992  16.212   6.976  0.0838 -0.1104 -0.1942
 1081YOPC   NC314105  11.909   8.735   5.870 -0.1301  0.0998  0.2993
 1081YOPC   PO414106  11.961   9.007   6.151 -0.3209  0.0381 -0.3519
 1081YOPC   GL114107  12.122   8.993   6.609 -0.1537  0.0764  0.1104
 1081YOPC   GL214108  12.186   9.236   6.582 -0.0518  0.0709  0.0915
 1081YOPC   C1A14109  12.229   8.880   7.085  0.2585  0.3306  0.3071
 1081YOPC   D2A14110  12.309   8.851   7.427  0.0687 -0.0481  0.4117
 1081YOPC   C3A14111  12.748   8.832   7.572  0.3494  0.1998 -0.2329
 1081YOPC   C4A14112  12.986   8.541   7.858 -0.4217  0.0651  0.0292
 1081YOPC   C1B14113  11.975   9.423   6.899 -0.1907  0.2940  0.1865
 1081YOPC   C2B14114  11.803   9.454   7.301 -0.0723  0.4548 -0.2135
 1081YOPC   D3B14115  11.807   9.017   7.604  0.3674  0.1369 -0.2569
 1081YOPC   C4B14116  12.168   8.920   7.872  0.2859  0.2689 -0.1215
 1082YOPC   NC314117   7.934  15.168   5.413  0.2778  0.3247 -0.3701
 1082YOPC   PO414118   7.528  15.059   5.275 -0.1460  0.1860 -0.0402
 1082YOPC   GL114119   7.526  15.076   5.689  0.1727  0.1715 -0.0646
 1082YOPC   GL214120   7.760  15.255   5.897  0.0814 -0.1209 -0.0821
 1082YOPC   C1A14121   7.427  14.983   6.146  0.0726  0.0245  0.0923
 1082YOPC   D2A14122   7.541  14.750   6.474 -0.1284 -0.1247  0.2877
 1082YOPC   C3A14123   7.453  14.682   6.981 -0.3921  0.2608 -0.0245
 1082YOPC   C4A14124   7.261  14.930   7.349 -0.0194 -0.1925 -0.2939
 1082YOPC   C1B14125   7.515  15.526   6.169 -0.0827 -0.3708  0.0419
 1082YOPC   C2B14126   7.156  15.539   6.454  0.2913  0.3649 -0.1970
 1082YOPC   D3B14127   7.240  15.748   6.835  0.0976  0.0156  0.1024
 1082YOPC   C4B14128   7.558  15.905   7.090  0.2052  0.0491 -0.0448
 1083YOPC   NC314129  17.102  14.951   5.797  0.0840  0.1140  0.3348
 1083YOPC   PO414130  16.756  14.947   5.622 -0.0580  0.3417  0.2362
 1083YOPC   GL114131  16.694  14.801   6.115 -0.0064  0.2401 -0.0601
 1083YOPC   GL214132  16.462  14.775   6.158  0.1050  0.1657  0.1035
 1083YOPC   C1A14133  16.584  14.875   6.613  0.0899 -0.2324 -0.3925
 1083YOPC   D2A14134  16.581  14.684   6.983 -0.1072  0.0285  0.2120
 1083YOPC   C3A14135  16.576  14.847   7.314 -0.2010  0.0047  0.2061
 1083YOPC   C4A14136  16.692  15.284   7.445 -0.0627 -0.0741 -0.0876
 1083YOPC   C1B14137  16.220  14.537   6.280  0.0295 -0.0467 -0.0229
 1083YOPC   C2B14138  15.897  14.323   6.491 -0.0645 -0.0720 -0.3237
 1083YOPC   D3B14139  15.966  14.178   6.849 -0.1971  0.2293  0.0207
 1083YOPC   C4B14140  15.815  14.145   7.249 -0.0292 -0.2530  0.1097
 1084YOPC   NC314141  14.938  11.261   6.150 -0.0828  0.2851  0.2220
 1084YOPC   PO414142  15.347  11.457   6.226  0.4054 -0.1513 -0.0395
 1084YOPC   GL114143  15.751  11.323   6.381  0.1906  0.1161  0.1905
 1084YOPC   GL214144  15.656  11.204   6.624 -0.1687  0.1442 -0.3168
 1084YOPC   C1A14145  16.132  11.296   6.821  0.1859  0.1195  0.2073
 1084YOPC   D2A14146  16.415  11.396   7.168 -0.0047  0.0380 -0.1466
 1084YOPC   C3A14147  16.505  11.671   7.561  0.1659  0.1712  0.0187
 1084YOPC   C4A14148  16.722  11.908   7.862  0.2158  0.1545  0.0448
 1084YOPC   C1B14149  15.741  11.448   7.020  0.0682 -0.1013 -0.0860
 1084YOPC   C2B14150  15.941  11.497   7.398 -0.2972 -0.1088  0.1259
 1084YOPC   D3B14151  15.765  11.195   7.674  0.0336  0.0774  0.2717
 1084YOPC   C4B14152  15.534  10.939   8.029 -0.1360 -0.0019 -0.3986
 1085YOPC   NC314153   3.433  12.438   5.773  0.0301  0.1166 -0.0805
 1085YOPC   PO414154   2.977  12.256   5.701 -0.3048  0.1717 -0.0769
 1085YOPC   GL114155   2.979  12.393   6.135  0.2986  0.0638 -0.1741
 1085YOPC   GL214156   3.035  12.674   6.202 -0.1822 -0.5306  0.1036
 1085YOPC   C1A14157   3.216  12.271   6.507 -0.1031 -0.1984  0.4418
 1085YOPC   D2A14158   3.053  12.195   6.886 -0.0467  0.1555 -0.0873
 1085YOPC   C3A14159   3.325  12.211   7.265 -0.1452  0.1154  0.3862
 1085YOPC   C4A14160   3.492  12.078   7.629 -0.1748  0.2759  0.0071
 1085YOPC   C1B14161   2.838  12.548   6.661 -0.0991 -0.0019  0.4071
 1085YOPC   C2B14162   2.833  12.649   7.228  0.0894  0.2194  0.0117
 1085YOPC   D3B14163   2.968  12.496   7.556  0.0416 -0.0289  0.1568
 1085YOPC   C4B14164   3.180  12.404   7.930  0.0519  0.1569 -0.1065
 1086YOPC   NC314165   5.097   0.371   5.976  0.3317  0.0795 -0.2409
 1086YOPC   PO414166   4.832   0.066   6.102 -0.2958  0.2379  0.6473
 1086YOPC   GL114167   4.814   0.214   6.461  0.1042  0.2409  0.1560
 1086YOPC   GL214168   4.590   0.084   6.541  0.0336 -0.2318  0.0781
 1086YOPC   C1A14169   5.032   0.211   6.858 -0.0176  0.2273 -0.1827
 1086YOPC   D2A14170   5.340   0.303   7.157  0.1336  0.0542  0.0242
 1086YOPC   C3A14171   5.089   0.381   7.559  0.3683  0.4744 -0.0269
 1086YOPC   C4A14172   4.951   0.681   7.936  0.0753  0.0471 -0.0230
 1086YOPC   C1B14173   4.505   0.149   6.964 -0.0694  0.4014 -0.1450
 1086YOPC   C2B14174   4.561   0.078   7.413  0.0484  0.3446  0.1662
 1086YOPC   D3B14175   4.463   0.342   7.767  0.0022 -0.3857  0.1505
 1086YOPC   C4B14176   3.946   0.434   7.983  0.0713  0.1133 -0.0201
 1087YOPC   NC314177   1.267   5.075   6.044 -0.1647 -0.0237 -0.0286
 1087YOPC   PO414178   0.848   5.060   5.877 -0.3345 -0.0547  0.3799
 1087YOPC   GL114179   0.509   5.278   6.115 -0.1994 -0.0399 -0.1892
 1087YOPC   GL214180   0.570   5.669   6.189  0.2471 -0.1095 -0.2532
 1087YOPC   C1A14181  -0.008   5.337   6.237  0.0182 -0.0390  0.2288
 1087YOPC   D2A14182  -0.468   5.454   6.206  0.2391  0.0362 -0.0647
 1087YOPC   C3A14183  -0.617   5.487   6.717  0.0914 -0.0486  0.1683
 1087YOPC   C4A14184  -0.823   5.671   7.118 -0.1408 -0.2446 -0.0345
 1087YOPC   C1B14185   0.261   5.719   6.405  0.3754 -0.0881  0.1144
 1087YOPC   C2B14186   0.103   5.993   6.814  0.1413 -0.0821 -0.0225
 1087YOPC   D3B14187   0.469   6.089   7.129  0.0630 -0.1949  0.0284
 1087YOPC   C4B14188   0.555   5.950   7.492 -0.0814  0.0573  0.0006
 1088YOPC   NC314189  15.986   9.026   5.671 -0.2526 -0.0472 -0.0575
 1088YOPC   PO414190  15.828   9.268   5.926  0.0768  0.2694 -0.2851
 1088YOPC   GL114191  15.717   9.281   6.378 -0.1195 -0.1595 -0.0043
 1088YOPC   GL214192  15.632   9.567   6.480 -0.0640 -0.3801 -0.0793
 1088YOPC   C1A14193  15.837   9.211   6.775 -0.0869  0.0557 -0.0557
 1088YOPC   D2A14194  16.043   8.987   7.150  0.1521 -0.0601 -0.2625
 1088YOPC   C3A14195  16.076   8.971   7.627 -0.1655  0.2108 -0.1389
 1088YOPC   C4A14196  16.308   9.304   7.917  0.0527 -0.0327 -0.0036
 1088YOPC   C1B14197  15.572   9.658   6.815  0.1213  0.3066  0.2834
 1088YOPC   C2B14198  15.536   9.799   7.212 -0.3059  0.1217 -0.0376
 1088YOPC   D3B14199  15.833  10.116   7.394 -0.0827 -0.0477  0.0777
 1088YOPC   C4B14200  16.085  10.089   7.728 -0.4587  0.1648  0.0652
 1089YOPC   NC314201  12.086   1.432   5.574  0.1185  0.0443  0.1152
 1089YOPC   PO414202  12.234   0.954   5.663  0.1236  0.1257 -0.0655
 1089YOPC   GL114203  12.041   1.184   6.014  0.1938  0.0406 -0.0239
 1089YOPC   GL214204  12.296   1.437   6.140  0.1305 -0.1389 -0.0092
 1089YOPC   C1A14205  11.732   1.255   6.353 -0.2188 -0.1604 -0.0855
 1089YOPC   D2A14206  11.615   0.930   6.676 -0.2133  0.0309  0.0997
 1089YOPC   C3A14207  11.573   0.553   6.973 -0.0647  0.2139 -0.0738
 1089YOPC   C4A14208  11.465   0.509   7.419 -0.1718 -0.0598 -0.1342
 1089YOPC   C1B14209  12.251   1.244   6.535  0.2936 -0.0171 -0.2446
 1089YOPC   C2B14210  12.470   1.158   6.951 -0.0625  0.1939  0.1359
 1089YOPC   D3B14211  12.463   0.829   7.119 -0.2890 -0.2409  0.0663
 1089YOPC   C4B14212  12.243   0.414   7.205  0.1993 -0.0092 -0.2243
 1090YOPC   NC314213  12.084  14.480   5.780 -0.1590 -0.1537  0.0662
 1090YOPC   PO414214  12.151  14.026   5.703 -0.1391 -0.0436  0.4674
 1090YOPC   GL114215  12.083  14.155   6.137 -0.0017 -0.2421  0.0290
 1090YOPC   GL214216  12.089  14.423   6.394  0.2788  0.0196 -0.0777
 1090YOPC   C1A14217  12.016  13.942   6.534 -0.0969  0.2846  0.3008
 1090YOPC   D2A14218  11.904  13.706   6.871  0.0537  0.2277  0.1947
 1090YOPC   C3A14219  12.096  13.699   7.230  0.2659 -0.2052  0.1491
 1090YOPC   C4A14220  12.116  13.407   7.528 -0.0853  0.1770  0.1275
 1090YOPC   C1B14221  12.232  14.558   6.747 -0.1201 -0.0786 -0.1952
 1090YOPC   C2B14222  12.315  14.689   7.119 -0.0697  0.0889 -0.2076
 1090YOPC   D3B14223  11.976  14.715   7.429  0.0941  0.0526 -0.1569
 1090YOPC   C4B14224  12.001  14.462   7.802  0.1394  0.1640  0.1929
 1091YOPC   NC314225   2.033  14.172   5.765 -0.2308 -0.0574 -0.0591
 1091YOPC   PO414226   2.107  13.701   5.908 -0.1760  0.1301  0.2205
 1091YOPC   GL114227   2.134  13.430   6.279 -0.2099 -0.3933  0.2768
 1091YOPC   GL214228   2.428  13.311   6.290 -0.0422 -0.0546  0.1773
 1091YOPC   C1A14229   2.021  13.095   6.521 -0.0889  0.0814 -0.4171
 1091YOPC   D2A14230   1.618  13.019   6.734 -0.0765  0.0915 -0.0834
 1091YOPC   C3A14231   1.619  12.959   7.220 -0.4756 -0.0336 -0.2628
 1091YOPC   C4A14232   1.825  13.253   7.620  0.0602 -0.0195 -0.1759
 1091YOPC   C1B14233   2.520  13.375   6.640 -0.1874  0.1617 -0.2187
 1091YOPC   C2B14234   2.537  13.649   7.055 -0.3146 -0.0678 -0.0793
 1091YOPC   D3B14235   2.458  13.484   7.413  0.2717  0.1939 -0.2272
 1091YOPC   C4B14236   2.286  13.321   7.767 -0.0937  0.0060  0.0109
 1092YOPC   NC314237  11.739   6.396   6.092  0.1708  0.0416  0.1528
 1092YOPC   PO414238  11.881   6.064   6.323 -0.2344 -0.3771  0.0133
 1092YOPC   GL114239  12.063   6.100   6.672 -0.1645 -0.1683  0.1321
 1092YOPC   GL214240  11.975   5.844   6.826 -0.1178  0.0427 -0.0730
 1092YOPC   C1A14241  12.565   6.198   6.850  0.1264  0.1666  0.0672
 1092YOPC   D2A14242  12.630   6.116   7.341 -0.0329  0.0984  0.1409
 1092YOPC   C3A14243  12.757   6.149   7.804 -0.3109 -0.1066  0.1856
 1092YOPC   C4A14244  12.871   6.164   8.222  0.3356  0.0010  0.4480
 1092YOPC   C1B14245  12.365   5.691   6.840 -0.0129 -0.3939 -0.0793
 1092YOPC   C2B14246  12.723   5.549   7.187  0.0673  0.3401  0.2049
 1092YOPC   D3B14247  12.535   5.492   7.595  0.2247 -0.2431 -0.2367
 1092YOPC   C4B14248  12.245   5.787   7.849  0.3369 -0.0364 -0.1983
 1093YOPC   NC314249   8.554   3.471   5.811  0.1566  0.1697 -0.0300
 1093YOPC   PO414250   8.580   3.398   6.294 -0.1101 -0.1852 -0.1122
 1093YOPC   GL114251   8.839   3.248   6.589 -0.1856 -0.0438  0.2196
 1093YOPC   GL214252   8.666   3.377   6.917 -0.0187  0.3320 -0.0636
 1093YOPC   C1A14253   8.741   2.879   6.821 -0.1470  0.0091  0.0487
 1093YOPC   D2A14254   8.628   2.582   7.196  0.1748  0.1105  0.1108
 1093YOPC   C3A14255   8.316   2.617   7.467 -0.4230 -0.2211 -0.1850
 1093YOPC   C4A14256   8.101   2.855   7.764  0.1282 -0.0011  0.2368
 1093YOPC   C1B14257   8.240   3.582   7.053  0.3190  0.0814 -0.3614
 1093YOPC   C2B14258   7.999   3.755   7.348 -0.0325 -0.2341  0.0496
 1093YOPC   D3B14259   8.309   3.941   7.699 -0.1957 -0.1492 -0.0303
 1093YOPC   C4B14260   8.562   4.090   7.980  0.2964  0.1636 -0.3021
 1094YOPC   NC314261  15.821   2.979   5.946 -0.2122 -0.3254  0.1954
 1094YOPC   PO414262  15.596   3.259   6.002  0.3697  0.0423  0.1009
 1094YOPC   GL114263  15.722   3.354   6.391 -0.0377  0.0374  0.2014
 1094YOPC   GL214264  16.006   3.089   6.511  0.3800 -0.4238  0.1617
 1094YOPC   C1A14265  15.627   3.199   6.775 -0.0657  0.1749  0.2538
 1094YOPC   D2A14266  15.798   3.059   7.095  0.2384  0.0313 -0.0099
 1094YOPC   C3A14267  16.185   3.118   7.379 -0.2176 -0.1503 -0.1620
 1094YOPC   C4A14268  16.297   3.005   7.771 -0.1895  0.2546 -0.2560
 1094YOPC   C1B14269  16.298   3.242   6.795 -0.0953  0.0714 -0.0732
 1094YOPC   C2B14270  16.328   3.645   7.125 -0.1180 -0.1107 -0.2669
 1094YOPC   D3B14271  16.021   3.933   7.416 -0.1517  0.0090  0.0722
 1094YOPC   C4B14272  15.646   3.985   7.642 -0.0205  0.2718 -0.3564
 1095YOPC   NC314273   6.703  13.496   5.510 -0.2039 -0.0198 -0.0750
 1095YOPC   PO414274   6.563  13.869   5.618  0.2203  0.0617 -0.0335
 1095YOPC   GL114275   6.721  13.946   6.046 -0.1266  0.2083 -0.0247
 1095YOPC   GL214276   7.072  14.096   6.174 -0.0031 -0.1149  0.2356
 1095YOPC   C1A14277   6.489  13.813   6.387 -0.2494  0.0452  0.0889
 1095YOPC   D2A14278   6.067  13.945   6.603 -0.0832  0.1483 -0.0648
 1095YOPC   C3A14279   5.815  13.777   6.914  0.1076  0.3987  0.2385
 1095YOPC   C4A14280   5.868  13.725   7.337  0.0006 -0.2838  0.3588
 1095YOPC   C1B14281   6.953  13.936   6.560  0.2073  0.0642  0.0060
 1095YOPC   C2B14282   6.619  13.865   6.919 -0.1480  0.0136 -0.0846
 1095YOPC   D3B14283   6.282  13.988   7.128 -0.0578  0.0718  0.2649
 1095YOPC   C4B14284   5.941  14.232   7.264 -0.1673 -0.0674 -0.4289
 1096YOPC   NC314285   1.671   2.025   5.646 -0.0355 -0.3423  0.3595
 1096YOPC   PO414286   1.348   1.881   5.903 -0.0722  0.2468 -0.0421
 1096YOPC   GL114287   1.520   1.657   6.165 -0.1192 -0.0111  0.1220
 1096YOPC   GL214288   1.869   1.768   6.185 -0.0363  0.0505 -0.0530
 1096YOPC   C1A14289   1.488   1.656   6.661 -0.0074  0.3506 -0.1418
 1096YOPC   D2A14290   1.700   1.658   7.049 -0.0405  0.0961 -0.1644
 1096YOPC   C3A14291   1.493   1.640   7.481 -0.1186  0.2914 -0.0184
 1096YOPC   C4A14292   1.425   1.880   7.818  0.1337 -0.2806  0.0871
 1096YOPC   C1B14293   1.821   2.006   6.566  0.0073 -0.2030  0.1078
 1096YOPC   C2B14294   2.071   2.045   6.996 -0.2583 -0.3571  0.0829
 1096YOPC   D3B14295   2.159   1.805   7.417 -0.0723 -0.2023  0.1338
 1096YOPC   C4B14296   1.961   1.775   7.854  0.0599  0.1180  0.1356
 1097YOPC   NC314297   7.964   5.525   5.227 -0.0591  0.0753 -0.0187
 1097YOPC   PO414298   7.718   5.719   5.637 -0.0774 -0.1985  0.0814
 1097YOPC   GL114299   7.642   5.698   5.990  0.3129 -0.3045  0.2752
 1097YOPC   GL214300   7.528   5.404   6.099 -0.2586 -0.0762 -0.0329
 1097YOPC   C1A14301   7.802   5.651   6.397 -0.2358  0.0757  0.2582
 1097YOPC   D2A14302   7.686   5.687   6.877 -0.0616  0.2142 -0.2434
 1097YOPC   C3A14303   8.057   5.718   7.069 -0.2186 -0.0432 -0.0576
 1097YOPC   C4A14304   8.446   5.899   7.104 -0.1524 -0.0299  0.1054
 1097YOPC   C1B14305   7.347   5.565   6.448  0.0585  0.2113 -0.0533
 1097YOPC   C2B14306   7.180   5.438   6.854  0.0943 -0.0570  0.4135
 1097YOPC   D3B14307   7.289   5.593   7.191 -0.1653  0.2320 -0.3273
 1097YOPC   C4B14308   7.668   5.722   7.363 -0.0879  0.2859 -0.1496
 1098YOPC   NC314309   8.150  13.449   4.994  0.0809 -0.0617 -0.0071
 1098YOPC   PO414310   8.320  13.747   5.273 -0.5457 -0.4183  0.0240
 1098YOPC   GL114311   8.421  13.845   5.723 -0.0204  0.0275 -0.0380
 1098YOPC   GL214312   8.588  14.072   5.769  0.0365 -0.0131  0.1134
 1098YOPC   C1A14313   8.635  13.676   6.197  0.0253  0.0523  0.0403
 1098YOPC   D2A14314   8.630  13.697   6.527  0.3537  0.0110 -0.1108
 1098YOPC   C3A14315   8.867  13.801   6.807 -0.1681 -0.0208  0.1102
 1098YOPC   C4A14316   8.903  13.791   7.293  0.0157 -0.2394 -0.1556
 1098YOPC   C1B14317   8.597  14.259   6.226  0.0794  0.1454  0.1014
 1098YOPC   C2B14318   8.710  14.250   6.605  0.1301  0.3390  0.0689
 1098YOPC   D3B14319   8.548  14.280   7.009  0.2939  0.0530  0.0081
 1098YOPC   C4B14320   8.416  14.240   7.500  0.0650  0.2551  0.1882
 1099YOPC   NC314321   1.445  17.095   5.792  0.1128  0.3581 -0.0486
 1099YOPC   PO414322   1.766  16.798   6.046  0.0549 -0.0196 -0.0226
 1099YOPC   GL114323   1.832  16.791   6.415 -0.0579 -0.2289  0.0174
 1099YOPC   GL214324   1.634  16.460   6.619 -0.0333 -0.1714  0.0160
 1099YOPC   C1A14325   2.120  17.008   6.773  0.4667 -0.2296 -0.1236
 1099YOPC   D2A14326   2.563  17.185   6.654  0.0029 -0.1783  0.1162
 1099YOPC   C3A14327   2.781  17.084   7.060  0.1228 -0.1024  0.0738
 1099YOPC   C4A14328   2.606  17.089   7.521  0.0538  0.1388  0.0012
 1099YOPC   C1B14329   1.509  16.673   6.977  0.0517  0.0333 -0.0311
 1099YOPC   C2B14330   1.582  16.727   7.472  0.1217 -0.2975  0.2061
 1099YOPC   D3B14331   1.752  16.522   7.748 -0.1765 -0.0043 -0.1965
 1099YOPC   C4B14332   1.749  16.366   8.169 -0.1902  0.0443  0.0266
 1100YOPC   NC314333   5.830   8.728   5.756 -0.2055 -0.1579  0.2896
 1100YOPC   PO414334   6.253   8.889   5.981  0.1200 -0.1196  0.0529
 1100YOPC   GL114335   6.646   8.807   6.132  0.4111 -0.2004  0.2174
 1100YOPC   GL214336   6.868   9.039   6.042 -0.0897 -0.4252 -0.2330
 1100YOPC   C1A14337   6.818   8.774   6.497  0.2480 -0.0541  0.1979
 1100YOPC   D2A14338   6.790   9.125   6.866  0.1062  0.1883 -0.0660
 1100YOPC   C3A14339   6.636   9.079   7.304  0.1050  0.0954 -0.0727
 1100YOPC   C4A14340   6.614   8.955   7.792 -0.2044 -0.1016 -0.1373
 1100YOPC   C1B14341   6.759   9.293   6.436 -0.3158 -0.2362 -0.0479
 1100YOPC   C2B14342   6.446   9.531   6.773 -0.2638 -0.0442  0.1945
 1100YOPC   D3B14343   6.658   9.580   7.126  0.3381  0.1356  0.0623
 1100YOPC   C4B14344   6.845   9.747   7.495 -0.0933 -0.1847  0.1946
 1101YOPC   NC314345   8.625   7.603   5.528  0.0295  0.1799 -0.0454
 1101YOPC   PO414346   8.570   7.304   5.869  0.0039  0.0979  0.1555
 1101YOPC   GL114347   8.658   7.399   6.203  0.2296  0.1101 -0.0553
 1101YOPC   GL214348   8.694   7.591   6.280  0.0699  0.1501  0.1932
 1101YOPC   C1A14349   8.740   7.515   6.768 -0.2208  0.5910 -0.2598
 1101YOPC   D2A14350   8.799   7.622   7.135 -0.4023  0.2020 -0.1276
 1101YOPC   C3A14351   8.723   8.008   7.208 -0.0077  0.0470 -0.0981
 1101YOPC   C4A14352   8.849   8.483   7.315  0.1549 -0.0854 -0.0597
 1101YOPC   C1B14353   9.164   7.433   6.345 -0.0318  0.0207 -0.0913
 1101YOPC   C2B14354   9.625   7.552   6.513  0.0714  0.1459  0.0757
 1101YOPC   D3B14355   9.656   7.369   6.898  0.3732  0.0661 -0.0049
 1101YOPC   C4B14356   9.577   7.100   7.200  0.3947  0.0395 -0.1526
 1102YOPC   NC314357   5.196   3.024   5.945  0.0736 -0.2881 -0.0816
 1102YOPC   PO414358   5.603   3.011   6.080 -0.0666  0.2662 -0.0254
 1102YOPC   GL114359   5.549   3.211   6.448  0.4143  0.3924  0.0748
 1102YOPC   GL214360   5.329   3.453   6.208  0.0150  0.0556  0.0997
 1102YOPC   C1A14361   5.653   3.006   6.823 -0.1502 -0.3268  0.2297
 1102YOPC   D2A14362   5.689   2.888   7.289 -0.1355  0.2397 -0.1195
 1102YOPC   C3A14363   5.797   2.967   7.673 -0.0898 -0.0189 -0.0540
 1102YOPC   C4A14364   5.650   3.250   7.949 -0.0386 -0.3056 -0.0167
 1102YOPC   C1B14365   5.232   3.578   6.681 -0.1732 -0.0244  0.2435
 1102YOPC   C2B14366   5.432   3.429   6.976 -0.0397 -0.1694 -0.1958
 1102YOPC   D3B14367   5.358   3.567   7.390  0.2399 -0.3695 -0.3346
 1102YOPC   C4B14368   5.469   3.641   7.709 -0.2671  0.2544  0.0277
 1103YOPC   NC314369  11.947   2.606   6.049 -0.2243  0.2844  0.1459
 1103YOPC   PO414370  12.205   2.861   5.879 -0.1035  0.0135  0.1373
 1103YOPC   GL114371  12.255   3.045   6.260  0.2366  0.0973  0.0483
 1103YOPC   GL214372  12.251   2.819   6.478  0.2979  0.0806  0.0751
 1103YOPC   C1A14373  12.570   3.140   6.679 -0.1958 -0.2568 -0.0131
 1103YOPC   D2A14374  12.840   3.227   7.116 -0.2367 -0.4218 -0.2205
 1103YOPC   C3A14375  12.856   3.026   7.574  0.3637 -0.1068  0.1104
 1103YOPC   C4A14376  12.740   3.125   7.986 -0.1443  0.0343 -0.2933
 1103YOPC   C1B14377  12.276   2.663   6.842 -0.0525 -0.4215  0.0972
 1103YOPC   C2B14378  12.515   2.810   7.201  0.2201 -0.2102 -0.0731
 1103YOPC   D3B14379  12.379   2.849   7.566  0.0638  0.3007  0.3776
 1103YOPC   C4B14380  12.308   2.866   7.992 -0.1826 -0.1810 -0.3459
 1104YOPC   NC314381  11.736   8.132   6.074 -0.1244 -0.2033  0.0319
 1104YOPC   PO414382  11.526   8.570   6.093 -0.0134 -0.0825 -0.1223
 1104YOPC   GL114383  11.423   8.458   6.433 -0.1584  0.0591 -0.2714
 1104YOPC   GL214384  11.434   8.175   6.458 -0.1718 -0.1412 -0.0502
 1104YOPC   C1A14385  11.274   8.673   6.792 -0.1158  0.0740  0.4944
 1104YOPC   D2A14386  10.963   8.829   7.062  0.0250  0.0845  0.0089
 1104YOPC   C3A14387  11.046   8.946   7.458 -0.3049 -0.2759  0.1429
 1104YOPC   C4A14388  11.359   9.117   7.712 -0.0542 -0.0556  0.3147
 1104YOPC   C1B14389  11.369   8.230   6.928  0.2146  0.1378 -0.0531
 1104YOPC   C2B14390  11.191   8.184   7.362  0.0961  0.5018  0.0516
 1104YOPC   D3B14391  10.883   7.900   7.524  0.4384 -0.1835  0.3435
 1104YOPC   C4B14392  10.881   7.662   7.897 -0.1077 -0.0968 -0.1043
 1105YOPC   NC314393  14.684  10.405   6.003  0.0518  0.0856 -0.2661
 1105YOPC   PO414394  15.016  10.707   6.038 -0.3627  0.2427 -0.0671
 1105YOPC   GL114395  14.920  10.645   6.491  0.0528  0.0889  0.0838
 1105YOPC   GL214396  14.681  10.607   6.482  0.3947 -0.2362 -0.2200
 1105YOPC   C1A14397  14.932  10.672   6.945 -0.2056 -0.3803  0.0575
 1105YOPC   D2A14398  14.837  10.628   7.406  0.4754  0.0181  0.0298
 1105YOPC   C3A14399  14.833  10.435   7.754  0.0199  0.2998 -0.1166
 1105YOPC   C4A14400  14.726  10.438   8.181  0.2092  0.1576 -0.2125
 1105YOPC   C1B14401  14.333  10.649   6.741 -0.1235 -0.0835  0.0217
 1105YOPC   C2B14402  13.970  10.726   6.946  0.0147  0.1534 -0.2574
 1105YOPC   D3B14403  13.889  10.583   7.324 -0.0657 -0.2731  0.0892
 1105YOPC   C4B14404  13.625  10.398   7.625  0.3289 -0.1704 -0.3278
 1106YOPC   NC314405  11.552   7.388   5.797  0.2666 -0.0862  0.1637
 1106YOPC   PO414406  11.869   7.238   5.741  0.0468 -0.0742  0.0200
 1106YOPC   GL114407  11.772   7.191   6.152  0.3824  0.0929  0.0048
 1106YOPC   GL214408  11.876   7.371   6.346 -0.1251 -0.0092  0.0527
 1106YOPC   C1A14409  11.902   6.895   6.495 -0.3212 -0.1982 -0.0417
 1106YOPC   D2A14410  12.087   6.540   6.810 -0.2364  0.0072  0.1353
 1106YOPC   C3A14411  12.324   6.646   7.137 -0.0308 -0.0980  0.3541
 1106YOPC   C4A14412  12.373   6.606   7.651 -0.1512 -0.4498 -0.0111
 1106YOPC   C1B14413  11.626   7.418   6.740  0.0910  0.1275  0.2846
 1106YOPC   C2B14414  11.586   7.257   7.092  0.2083 -0.3835 -0.0416
 1106YOPC   D3B14415  11.885   6.958   7.118 -0.0380 -0.1391  0.0435
 1106YOPC   C4B14416  11.887   6.783   7.488  0.3039 -0.0162 -0.2992
 1107YOPC   NC314417   3.703   8.169   5.600 -0.3487  0.2169 -0.0661
 1107YOPC   PO414418   3.290   8.090   5.560  0.3780  0.2640 -0.0156
 1107YOPC   GL114419   3.105   8.079   5.880  0.3864  0.0590  0.2014
 1107YOPC   GL214420   2.728   8.037   5.900 -0.0377  0.0998  0.1818
 1107YOPC   C1A14421   3.005   8.038   6.323 -0.1926  0.2041  0.0578
 1107YOPC   D2A14422   3.195   8.175   6.779  0.2878 -0.0646 -0.1505
 1107YOPC   C3A14423   3.601   8.162   6.803  0.1882 -0.0392  0.0689
 1107YOPC   C4A14424   3.774   8.401   7.128  0.0160  0.1278 -0.0462
 1107YOPC   C1B14425   2.507   7.979   6.235  0.0061  0.0037  0.0054
 1107YOPC   C2B14426   2.410   7.650   6.452  0.0247  0.1021 -0.2081
 1107YOPC   D3B14427   2.369   7.701   6.896  0.1679  0.1580 -0.0435
 1107YOPC   C4B14428   2.503   8.023   7.201  0.1057 -0.0637  0.0244
 1108YOPC   NC314429   2.166   9.470   5.407 -0.0655 -0.1099 -0.0846
 1108YOPC   PO414430   2.334   9.905   5.560 -0.3809  0.1857  0.0870
 1108YOPC   GL114431   2.570  10.000   5.890 -0.1165 -0.3460 -0.4172
 1108YOPC   GL214432   2.330   9.955   6.107  0.0872 -0.0934 -0.0421
 1108YOPC   C1A14433   2.966   9.823   6.119  0.2275 -0.0964  0.1573
 1108YOPC   D2A14434   3.176   9.998   6.457  0.1456 -0.3993  0.0760
 1108YOPC   C3A14435   3.171   9.815   6.730 -0.1607 -0.1786  0.0950
 1108YOPC   C4A14436   2.942   9.840   7.083  0.1281  0.5474  0.0076
 1108YOPC   C1B14437   2.160   9.807   6.342  0.1382  0.0783  0.1776
 1108YOPC   C2B14438   1.986   9.385   6.311  0.0110  0.0592 -0.1363
 1108YOPC   D3B14439   1.872   9.104   6.620  0.2679  0.2362  0.0764
 1108YOPC   C4B14440   2.092   9.167   6.994  0.0064 -0.3145  0.0889
 1109YOPC   NC314441  13.640   1.961   6.157 -0.0653 -0.0224 -0.1395
 1109YOPC   PO414442  13.643   2.409   6.148 -0.1894  0.2532  0.2364
 1109YOPC   GL114443  13.929   2.423   6.478  0.0235  0.5089 -0.1335
 1109YOPC   GL214444  13.831   2.157   6.577 -0.1203  0.1248  0.0367
 1109YOPC   C1A14445  14.291   2.520   6.731  0.0253  0.0998 -0.2550
 1109YOPC   D2A14446  14.675   2.610   6.748  0.0881 -0.2111 -0.2923
 1109YOPC   C3A14447  14.891   2.757   7.151  0.0762 -0.2216 -0.0743
 1109YOPC   C4A14448  14.968   2.897   7.534  0.0425 -0.2686 -0.0627
 1109YOPC   C1B14449  13.967   2.150   6.947  0.1082  0.0433 -0.0009
 1109YOPC   C2B14450  14.001   2.433   7.344 -0.0064  0.3910 -0.2372
 1109YOPC   D3B14451  13.826   2.429   7.803  0.5095 -0.0872 -0.3281
 1109YOPC   C4B14452  13.684   2.170   8.147  0.0523 -0.0337  0.0180
 1110YOPC   NC314453  15.818  18.137   5.943  0.1107  0.0386 -0.1131
 1110YOPC   PO414454  15.744  17.690   6.008 -0.3074 -0.4070  0.0297
 1110YOPC   GL114455  15.545  17.379   6.335  0.2468  0.0954 -0.3408
 1110YOPC   GL214456  15.381  17.136   6.255  0.3784 -0.0700  0.1424
 1110YOPC   C1A14457  15.499  17.343   6.760 -0.0508 -0.0541 -0.2752
 1110YOPC   D2A14458  15.283  17.464   7.149 -0.1054  0.3683  0.1820
 1110YOPC   C3A14459  15.170  17.816   7.289  0.0313  0.1057  0.0403
 1110YOPC   C4A14460  15.095  18.210   7.427  0.1676 -0.2171 -0.0267
 1110YOPC   C1B14461  15.293  16.915   6.543  0.2659  0.1858 -0.1507
 1110YOPC   C2B14462  15.403  16.927   7.014  0.1722 -0.1317 -0.0397
 1110YOPC   D3B14463  15.507  17.055   7.444  0.0249 -0.4348  0.0567
 1110YOPC   C4B14464  15.774  17.056   7.858 -0.0841  0.0538  0.2076
 1111YOPC   NC314465  15.308   1.912   5.557  0.0982  0.2385 -0.0621
 1111YOPC   PO414466  15.009   1.985   5.811  0.1891  0.0565  0.3144
 1111YOPC   GL114467  14.949   1.980   6.310 -0.1718 -0.3987 -0.1385
 1111YOPC   GL214468  14.855   2.216   6.483  0.1034 -0.1170 -0.0901
 1111YOPC   C1A14469  15.030   1.763   6.690 -0.2301  0.1149 -0.3276
 1111YOPC   D2A14470  14.799   1.711   7.074  0.2170  0.1858  0.1991
 1111YOPC   C3A14471  14.788   1.973   7.346 -0.0877  0.1417  0.0487
 1111YOPC   C4A14472  15.002   2.323   7.434  0.1478 -0.0595 -0.3758
 1111YOPC   C1B14473  14.976   2.169   6.918 -0.1093  0.2098  0.0251
 1111YOPC   C2B14474  15.395   2.098   7.158  0.0866 -0.0203  0.1562
 1111YOPC   D3B14475  15.799   2.510   7.244 -0.1519 -0.0082  0.1143
 1111YOPC   C4B14476  15.856   2.793   7.595 -0.1150 -0.1309 -0.2108
 1112YOPC   NC314477   9.953   1.483   5.975  0.0172 -0.0304  0.0171
 1112YOPC   PO414478   9.537   1.686   6.119 -0.1812  0.1933  0.4071
 1112YOPC   GL114479   9.647   1.541   6.454  0.0833 -0.0041 -0.0982
 1112YOPC   GL214480   9.783   1.306   6.403 -0.1551 -0.0595 -0.0718
 1112YOPC   C1A14481   9.518   1.247   6.808 -0.2981  0.2397 -0.0988
 1112YOPC   D2A14482   9.605   0.992   7.150 -0.0575 -0.2397 -0.2130
 1112YOPC   C3A14483   9.408   0.948   7.588  0.0045  0.1988  0.1388
 1112YOPC   C4A14484   9.437   0.598   7.824  0.1875  0.1329  0.1511
 1112YOPC   C1B14485   9.975   1.400   6.869 -0.1442  0.1771 -0.1129
 1112YOPC   C2B14486  10.053   1.220   7.271  0.1528 -0.0407 -0.1721
 1112YOPC   D3B14487   9.909   1.351   7.623  0.0706 -0.0332  0.1413
 1112YOPC   C4B14488   9.832   1.617   7.907  0.0975  0.0453  0.0928
 1113YOPC   NC314489   1.850   8.758   5.614  0.1021  0.1782  0.0093
 1113YOPC   PO414490   1.651   8.365   5.615 -0.0856  0.1827 -0.0595
 1113YOPC   GL114491   1.790   8.295   5.934  0.0666 -0.2833 -0.0284
 1113YOPC   GL214492   1.727   8.026   5.950 -0.3080 -0.3306  0.0457
 1113YOPC   C1A14493   1.997   8.250   6.326 -0.1891  0.1253  0.1455
 1113YOPC   D2A14494   2.168   8.127   6.538 -0.2723  0.1657  0.3959
 1113YOPC   C3A14495   2.102   8.202   6.884 -0.0502  0.2357 -0.1173
 1113YOPC   C4A14496   2.032   8.185   7.351 -0.0254 -0.0227  0.1407
 1113YOPC   C1B14497   1.569   8.065   6.426 -0.1786 -0.0714 -0.3207
 1113YOPC   C2B14498   1.413   8.142   6.799 -0.4484 -0.3369  0.1732
 1113YOPC   D3B14499   1.585   8.194   7.055  0.3107 -0.1579 -0.1667
 1113YOPC   C4B14500   1.590   8.329   7.497  0.0963 -0.2023 -0.3992
 1114YOPC   NC314501   4.179   7.641   5.232 -0.0280 -0.0325  0.2650
 1114YOPC   PO414502   3.854   7.482   5.528  0.0998 -0.3711 -0.1511
 1114YOPC   GL114503   3.925   7.770   5.745  0.1365 -0.1695  0.3746
 1114YOPC   GL214504   4.173   7.908   5.682 -0.2814 -0.0390 -0.1029
 1114YOPC   C1A14505   3.909   7.879   6.143  0.0696  0.1325 -0.0997
 1114YOPC   D2A14506   4.039   7.946   6.529  0.1083  0.0733  0.1742
 1114YOPC   C3A14507   4.060   8.055   6.947  0.1592 -0.2043 -0.1651
 1114YOPC   C4A14508   4.275   7.929   7.439  0.2324  0.0934 -0.0422
 1114YOPC   C1B14509   4.364   8.187   5.888  0.0589  0.3028  0.1322
 1114YOPC   C2B14510   4.291   8.459   6.174 -0.0855  0.0524 -0.3720
 1114YOPC   D3B14511   3.813   8.417   6.291 -0.1857 -0.1096  0.0375
 1114YOPC   C4B14512   3.479   8.221   6.308  0.1679 -0.1443  0.0544
 1115YOPC   NC314513   9.668  11.057   5.694 -0.3654  0.0534  0.0254
 1115YOPC   PO414514   9.525  10.653   5.519  0.1590  0.0310 -0.0210
 1115YOPC   GL114515   9.378  10.795   5.989  0.2141 -0.0549  0.1222
 1115YOPC   GL214516   9.580  10.909   6.156 -0.2554  0.2957  0.0483
 1115YOPC   C1A14517   9.132  10.942   6.263 -0.0067  0.2832  0.0651
 1115YOPC   D2A14518   9.042  11.171   6.490 -0.1554  0.1113  0.1190
 1115YOPC   C3A14519   8.982  11.564   6.299  0.2803  0.3540 -0.1769
 1115YOPC   C4A14520   8.989  12.041   6.198 -0.2058 -0.1276  0.3086
 1115YOPC   C1B14521   9.530  10.869   6.603 -0.0667  0.0082  0.0413
 1115YOPC   C2B14522   9.419  11.199   6.877 -0.0327 -0.2253 -0.0352
 1115YOPC   D3B14523   9.307  11.046   7.245 -0.3606 -0.0693 -0.0701
 1115YOPC   C4B14524   9.337  10.776   7.569  0.0432  0.1353 -0.0101
 1116YOPC   NC314525   6.509  16.352   5.871  0.0397  0.0771 -0.2670
 1116YOPC   PO414526   6.480  15.902   5.562 -0.0523 -0.0317  0.0692
 1116YOPC   GL114527   6.305  15.850   5.911  0.0665  0.2336  0.1445
 1116YOPC   GL214528   6.414  15.944   6.176  0.2098  0.0213 -0.1080
 1116YOPC   C1A14529   6.144  15.455   5.994 -0.2259 -0.0648  0.0555
 1116YOPC   D2A14530   5.902  15.328   6.367  0.0436  0.0191 -0.1835
 1116YOPC   C3A14531   5.623  15.455   6.668  0.0371 -0.1936  0.0554
 1116YOPC   C4A14532   5.519  15.664   7.053  0.0526 -0.0357 -0.4767
 1116YOPC   C1B14533   6.300  16.119   6.586 -0.3350  0.2458  0.5188
 1116YOPC   C2B14534   6.470  16.002   6.883  0.1249  0.1013 -0.1195
 1116YOPC   D3B14535   6.776  15.995   7.271  0.0361 -0.2527  0.1548
 1116YOPC   C4B14536   7.061  16.206   7.548 -0.0113 -0.1516 -0.0626
 1117YOPC   NC314537   4.039  15.486   5.922  0.3961 -0.0140  0.0591
 1117YOPC   PO414538   4.398  15.391   5.753 -0.0224  0.0027  0.2446
 1117YOPC   GL114539   4.372  15.355   6.267  0.3425 -0.2119  0.0901
 1117YOPC   GL214540   4.229  15.529   6.507 -0.0972 -0.1490 -0.1741
 1117YOPC   C1A14541   4.480  15.132   6.627 -0.0801  0.0589 -0.4306
 1117YOPC   D2A14542   4.138  14.969   6.881 -0.1045  0.3879  0.1201
 1117YOPC   C3A14543   3.839  14.900   6.769  0.0189  0.0958 -0.0173
 1117YOPC   C4A14544   3.512  14.603   6.825  0.0504  0.3508 -0.1061
 1117YOPC   C1B14545   4.126  15.460   6.932 -0.0647  0.0171 -0.1410
 1117YOPC   C2B14546   4.312  15.546   7.330 -0.0822 -0.2762 -0.0304
 1117YOPC   D3B14547   4.683  15.312   7.657  0.0879 -0.1273  0.4064
 1117YOPC   C4B14548   4.634  15.068   8.050  0.0703 -0.1769  0.1893
 1118YOPC   NC314549   7.247  11.881   5.093 -0.0339  0.0521  0.0926
 1118YOPC   PO414550   7.146  12.127   5.492  0.2704  0.0372  0.2063
 1118YOPC   GL114551   7.429  12.089   5.897 -0.1428  0.1012 -0.1650
 1118YOPC   GL214552   7.456  12.470   5.913 -0.1846 -0.1409 -0.1404
 1118YOPC   C1A14553   7.743  12.163   6.216  0.0357  0.0199  0.1096
 1118YOPC   D2A14554   8.180  12.043   6.523  0.0144  0.1825  0.4125
 1118YOPC   C3A14555   8.226  11.928   6.955 -0.2333 -0.2491 -0.1623
 1118YOPC   C4A14556   8.465  11.525   7.149 -0.2131 -0.1586 -0.2243
 1118YOPC   C1B14557   7.212  12.610   6.429  0.1105 -0.0000  0.3991
 1118YOPC   C2B14558   7.188  12.603   6.835 -0.1893  0.0293  0.1793
 1118YOPC   D3B14559   7.486  12.538   7.148 -0.2843 -0.2472  0.1832
 1118YOPC   C4B14560   7.509  12.536   7.626 -0.2555  0.2503  0.0899
 1119YOPC   NC314561   5.331   9.066   5.183 -0.0928  0.2870  0.1225
 1119YOPC   PO414562   5.672   9.203   5.572 -0.0331 -0.3453 -0.1834
 1119YOPC   GL114563   5.761   9.213   6.003 -0.4635 -0.0608 -0.1751
 1119YOPC   GL214564   5.632   9.485   6.084  0.2521 -0.0056 -0.2217
 1119YOPC   C1A14565   5.863   9.201   6.434  0.1414  0.1516  0.1526
 1119YOPC   D2A14566   6.313   9.014   6.480 -0.2976 -0.1640  0.1861
 1119YOPC   C3A14567   6.267   9.126   6.912 -0.1570 -0.2624 -0.0045
 1119YOPC   C4A14568   6.069   9.289   7.224  0.1284  0.1344  0.3175
 1119YOPC   C1B14569   5.439   9.612   6.428 -0.1728  0.0894 -0.0756
 1119YOPC   C2B14570   5.102   9.828   6.514 -0.1008 -0.2960 -0.2993
 1119YOPC   D3B14571   4.832   9.737   6.770  0.3396 -0.0263  0.0448
 1119YOPC   C4B14572   4.495   9.932   7.018  0.1541 -0.1495 -0.1878
 1120YOPC   NC314573   7.010  17.247   4.991 -0.1470  0.2488 -0.0564
 1120YOPC   PO414574   7.405  17.050   5.135 -0.0747  0.2478 -0.0818
 1120YOPC   GL114575   7.488  17.061   5.547 -0.0532 -0.2042 -0.1939
 1120YOPC   GL214576   7.286  16.906   5.838  0.0213  0.1125  0.1620
 1120YOPC   C1A14577   7.815  17.087   5.839  0.0775 -0.0091  0.0720
 1120YOPC   D2A14578   8.023  16.767   6.212 -0.0998 -0.1955 -0.0143
 1120YOPC   C3A14579   7.939  16.763   6.640  0.0458 -0.2675  0.0160
 1120YOPC   C4A14580   7.699  16.469   6.933 -0.0029  0.0126 -0.0787
 1120YOPC   C1B14581   7.729  16.621   5.678  0.2621 -0.1332  0.0345
 1120YOPC   C2B14582   8.033  16.317   5.928 -0.0611 -0.4614  0.0707
 1120YOPC   D3B14583   7.781  16.276   6.270 -0.0071  0.0048 -0.2218
 1120YOPC   C4B14584   7.940  16.015   6.702  0.0916 -0.2755 -0.2840
 1121YOPC   NC314585   3.568  11.653   5.521  0.1883 -0.1490 -0.2296
 1121YOPC   PO414586   3.240  11.954   5.388 -0.1313  0.1046 -0.0187
 1121YOPC   GL114587   3.221  11.782   5.816 -0.2404 -0.2491 -0.1196
 1121YOPC   GL214588   3.350  12.007   6.063  0.0822 -0.2628 -0.1972
 1121YOPC   C1A14589   3.289  11.439   6.186  0.1576 -0.2275  0.2803
 1121YOPC   D2A14590   3.307  11.126   6.555  0.3204  0.2123 -0.1501
 1121YOPC   C3A14591   3.308  11.338   7.005 -0.0178  0.1442  0.2353
 1121YOPC   C4A14592   3.355  11.699   7.312 -0.2332 -0.0355 -0.1982
 1121YOPC   C1B14593   3.539  11.948   6.324  0.2314 -0.1797 -0.0172
 1121YOPC   C2B14594   3.796  12.241   6.664  0.1509 -0.3194 -0.0505
 1121YOPC   D3B14595   3.820  12.316   7.083  0.3082  0.0550 -0.0147
 1121YOPC   C4B14596   3.882  12.444   7.491  0.1891 -0.0260 -0.4046
 1122YOPC   NC314597  13.196  17.649   5.995 -0.2615 -0.2288 -0.2473
 1122YOPC   PO414598  13.466  17.965   5.824 -0.2141  0.0442  0.3353
 1122YOPC   GL114599  13.410  18.061   6.258 -0.0700  0.0696 -0.1205
 1122YOPC   GL214600  13.567  18.271   6.444 -0.1299 -0.0075 -0.0539
 1122YOPC   C1A14601  13.053  18.151   6.620 -0.2233 -0.0710  0.1128
 1122YOPC   D2A14602  12.955  18.058   6.983  0.2724  0.2326  0.2847
 1122YOPC   C3A14603  12.876  18.065   7.428 -0.0907  0.1714  0.0114
 1122YOPC   C4A14604  12.861  18.150   7.848 -0.0689 -0.1062 -0.0532
 1122YOPC   C1B14605  13.493  18.134   6.891  0.2691  0.0186  0.0374
 1122YOPC   C2B14606  13.314  18.159   7.411  0.1819 -0.0432  0.1363
 1122YOPC   D3B14607  13.354  18.012   7.780  0.3563 -0.1517 -0.1766
 1122YOPC   C4B14608  13.129  17.806   8.150 -0.2211  0.0855  0.0579
 1123YOPC   NC314609   3.772   3.976   5.867  0.3512  0.4007 -0.1052
 1123YOPC   PO414610   3.366   4.213   5.679 -0.0703 -0.1834 -0.1639
 1123YOPC   GL114611   3.152   4.522   5.953  0.2967  0.0775 -0.1580
 1123YOPC   GL214612   2.860   4.653   5.979 -0.1534  0.0242  0.1295
 1123YOPC   C1A14613   3.288   4.674   6.222 -0.0315 -0.1861  0.0036
 1123YOPC   D2A14614   3.416   4.619   6.603  0.3934 -0.1319 -0.2839
 1123YOPC   C3A14615   3.682   4.860   6.814  0.3392 -0.3197  0.0720
 1123YOPC   C4A14616   3.836   4.878   7.225 -0.0608 -0.1829 -0.0029
 1123YOPC   C1B14617   2.785   4.609   6.408  0.1449  0.2750  0.1270
 1123YOPC   C2B14618   2.789   4.655   6.930  0.4022  0.0435 -0.0097
 1123YOPC   D3B14619   2.959   4.625   7.266  0.4770  0.4066 -0.1008
 1123YOPC   C4B14620   3.327   4.648   7.240 -0.0691  0.1066 -0.0111
 1124YOPC   NC314621   6.565  12.674   4.911 -0.1384  0.1765 -0.0479
 1124YOPC   PO414622   6.807  12.604   5.293  0.0667  0.0360  0.1544
 1124YOPC   GL114623   7.030  12.655   5.736  0.1694  0.5258  0.2723
 1124YOPC   GL214624   6.916  12.485   5.944 -0.0582 -0.3092 -0.0933
 1124YOPC   C1A14625   7.114  12.928   6.106 -0.1884 -0.1933 -0.1121
 1124YOPC   D2A14626   7.246  13.152   6.471  0.2697  0.1629 -0.2125
 1124YOPC   C3A14627   7.034  13.472   6.764 -0.0272  0.0024 -0.1072
 1124YOPC   C4A14628   7.319  13.729   6.846  0.0298  0.2151 -0.0100
 1124YOPC   C1B14629   6.650  12.334   6.297  0.2259  0.0185  0.2492
 1124YOPC   C2B14630   6.548  12.536   6.670  0.2594  0.2678 -0.0435
 1124YOPC   D3B14631   6.640  12.438   6.995  0.2955 -0.0656 -0.2418
 1124YOPC   C4B14632   6.883  12.251   7.274 -0.0400  0.3116  0.2066
 1125YOPC   NC314633  10.603   5.378   5.942  0.0159  0.0100  0.0689
 1125YOPC   PO414634  10.911   5.064   5.926 -0.3040 -0.2623 -0.1613
 1125YOPC   GL114635  11.248   5.108   6.320  0.0695 -0.1866 -0.3901
 1125YOPC   GL214636  11.511   4.753   6.545  0.2856  0.1616 -0.0711
 1125YOPC   C1A14637  11.236   5.077   6.799  0.0726  0.0274  0.1600
 1125YOPC   D2A14638  11.122   4.852   7.108 -0.2734 -0.4362  0.0605
 1125YOPC   C3A14639  11.346   4.934   7.560  0.0690  0.0445 -0.1245
 1125YOPC   C4A14640  11.322   4.904   8.047  0.1273 -0.1559 -0.1158
 1125YOPC   C1B14641  11.716   5.139   6.524  0.3120  0.0075 -0.0073
 1125YOPC   C2B14642  12.104   5.198   6.713  0.1404  0.1042  0.0546
 1125YOPC   D3B14643  12.085   5.364   7.141  0.2221 -0.2807 -0.1306
 1125YOPC   C4B14644  12.198   5.724   7.309 -0.3730 -0.3162  0.1363
 1126YOPC   NC314645  10.799   6.076   6.130  0.0369  0.1965 -0.1978
 1126YOPC   PO414646  10.782   6.482   6.187 -0.0540  0.0531  0.0547
 1126YOPC   GL114647  10.959   6.269   6.527  0.0580  0.0695  0.1321
 1126YOPC   GL214648  10.677   6.149   6.625  0.0907 -0.0584 -0.2674
 1126YOPC   C1A14649  11.163   6.408   6.852 -0.2642  0.1058  0.5320
 1126YOPC   D2A14650  11.241   6.461   7.325  0.3974  0.0250 -0.0843
 1126YOPC   C3A14651  11.379   6.901   7.371 -0.1571  0.1334  0.0588
 1126YOPC   C4A14652  11.254   7.228   7.609  0.0173 -0.0823  0.3864
 1126YOPC   C1B14653  10.664   6.406   6.962  0.0580  0.1263  0.0596
 1126YOPC   C2B14654  10.762   6.379   7.444 -0.3942 -0.0301  0.0456
 1126YOPC   D3B14655  11.125   6.336   7.822 -0.0315  0.1879  0.1049
 1126YOPC   C4B14656  11.389   6.217   8.163 -0.0427  0.1557 -0.1988
 1127YOPC   NC314657  16.882  14.090   5.600  0.3159 -0.0463 -0.1340
 1127YOPC   PO414658  16.892  14.514   5.705 -0.1142  0.0196  0.1763
 1127YOPC   GL114659  17.081  14.490   6.054 -0.0753  0.2241  0.2591
 1127YOPC   GL214660  17.105  14.165   6.169 -0.0765  0.0118  0.0186
 1127YOPC   C1A14661  17.213  14.721   6.358  0.0895  0.0056 -0.0309
 1127YOPC   D2A14662  17.116  14.758   6.705 -0.2988 -0.0823 -0.3621
 1127YOPC   C3A14663  17.115  14.702   7.201  0.0462 -0.1121 -0.0881
 1127YOPC   C4A14664  17.153  14.631   7.603 -0.3355  0.1170  0.0563
 1127YOPC   C1B14665  17.046  13.978   6.454  0.3165 -0.1858  0.2148
 1127YOPC   C2B14666  17.036  13.891   6.971 -0.0607  0.1385 -0.0457
 1127YOPC   D3B14667  16.755  13.761   7.338 -0.0528  0.0776  0.2540
 1127YOPC   C4B14668  16.681  13.414   7.605 -0.1281  0.0824 -0.2886
 1128YOPC   NC314669   2.312   3.331   5.623  0.0277  0.0137 -0.2745
 1128YOPC   PO414670   2.494   3.323   6.068 -0.0172 -0.1389  0.0360
 1128YOPC   GL114671   2.499   3.406   6.483  0.0874 -0.1491 -0.0365
 1128YOPC   GL214672   2.304   3.567   6.528  0.1176  0.1411  0.1561
 1128YOPC   C1A14673   2.715   3.260   6.864  0.0464  0.0580 -0.1980
 1128YOPC   D2A14674   2.784   3.159   7.298  0.1069 -0.1107  0.3472
 1128YOPC   C3A14675   2.961   3.311   7.593  0.1152  0.0334 -0.3221
 1128YOPC   C4A14676   2.949   3.535   7.973  0.2508  0.3595  0.3542
 1128YOPC   C1B14677   2.322   3.616   6.939 -0.2616 -0.0290  0.0363
 1128YOPC   C2B14678   2.461   3.613   7.302 -0.1441  0.1322  0.1727
 1128YOPC   D3B14679   2.347   3.760   7.760  0.1075 -0.3269  0.1517
 1128YOPC   C4B14680   1.978   3.904   7.807 -0.1178 -0.0549 -0.1557
 1129YOPC   NC314681   4.715   3.529   5.983  0.0587  0.0632 -0.1345
 1129YOPC   PO414682   4.920   3.801   6.028  0.0329  0.2569  0.0114
 1129YOPC   GL114683   5.213   4.012   6.396 -0.0804  0.1265  0.4809
 1129YOPC   GL214684   4.926   4.165   6.588 -0.0860  0.0062 -0.3166
 1129YOPC   C1A14685   5.263   4.080   6.951  0.0880  0.1140  0.1386
 1129YOPC   D2A14686   5.198   4.024   7.353 -0.1806  0.1380 -0.1272
 1129YOPC   C3A14687   5.334   4.238   7.703  0.0592  0.1550 -0.1453
 1129YOPC   C4A14688   5.318   4.616   7.862 -0.0559 -0.2296 -0.1055
 1129YOPC   C1B14689   4.703   4.401   6.938 -0.0637  0.3312 -0.0057
 1129YOPC   C2B14690   4.573   4.714   7.312 -0.3850 -0.1061 -0.1432
 1129YOPC   D3B14691   4.219   4.829   7.570  0.0346 -0.0423 -0.3202
 1129YOPC   C4B14692   3.910   4.692   7.796  0.0788  0.1910  0.0850
 1130YOPC   NC314693   5.559  17.536   6.087 -0.0007 -0.0185  0.1088
 1130YOPC   PO414694   5.790  17.942   6.126 -0.2707 -0.0047 -0.0743
 1130YOPC   GL114695   6.083  17.775   6.473  0.0509 -0.0797 -0.2576
 1130YOPC   GL214696   6.253  17.448   6.428  0.4033 -0.0062 -0.2051
 1130YOPC   C1A14697   6.100  17.732   6.935  0.2684 -0.1674  0.2645
 1130YOPC   D2A14698   6.010  17.640   7.280 -0.4320  0.1355  0.4503
 1130YOPC   C3A14699   6.159  17.295   7.369  0.2748  0.4715 -0.3523
 1130YOPC   C4A14700   6.293  16.842   7.428 -0.1403  0.0517 -0.2560
 1130YOPC   C1B14701   6.452  17.411   6.785 -0.0013  0.0402 -0.2565
 1130YOPC   C2B14702   6.615  17.176   7.158 -0.0514 -0.0040 -0.2488
 1130YOPC   D3B14703   6.863  16.978   7.496 -0.0162  0.2477  0.2967
 1130YOPC   C4B14704   7.013  16.669   7.725 -0.2356  0.0052 -0.0427
 1131YOPC   NC314705  12.211  11.716   5.792 -0.0494 -0.0584 -0.2443
 1131YOPC   PO414706  12.478  12.074   6.030  0.1346  0.1236 -0.1946
 1131YOPC   GL114707  12.271  11.916   6.292 -0.1370 -0.0190  0.1073
 1131YOPC   GL214708  12.026  11.712   6.264  0.1048  0.0706 -0.0488
 1131YOPC   C1A14709  12.330  11.887   6.747  0.1011  0.1183 -0.1566
 1131YOPC   D2A14710  12.627  12.090   7.038 -0.2998 -0.0211 -0.1950
 1131YOPC   C3A14711  12.602  11.950   7.441  0.0555  0.0157  0.0815
 1131YOPC   C4A14712  12.708  12.029   7.864  0.4977  0.0006 -0.0670
 1131YOPC   C1B14713  11.820  11.757   6.664 -0.1644 -0.0662  0.0403
 1131YOPC   C2B14714  11.899  11.834   7.080  0.1781 -0.0258 -0.1212
 1131YOPC   D3B14715  11.706  11.866   7.407  0.1088  0.3451 -0.2169
 1131YOPC   C4B14716  11.469  12.192   7.720 -0.1797 -0.0734  0.1142
 1132YOPC   NC314717  13.656   0.057   6.027 -0.0295 -0.2004 -0.0034
 1132YOPC   PO414718  13.935   0.498   5.970  0.1805  0.2589  0.2300
 1132YOPC   GL114719  13.798   0.462   6.389 -0.0274 -0.0531  0.5020
 1132YOPC   GL214720  14.137   0.474   6.479  0.1197  0.0574 -0.1982
 1132YOPC   C1A14721  13.689   0.308   6.778  0.0022  0.1080  0.0917
 1132YOPC   D2A14722  13.793   0.022   7.110  0.0353  0.3799  0.2904
 1132YOPC   C3A14723  13.867   0.015   7.637  0.2891 -0.3133  0.1659
 1132YOPC   C4A14724  13.760  -0.131   8.012 -0.1160  0.0204 -0.1039
 1132YOPC   C1B14725  14.180   0.361   6.867  0.0028  0.0033  0.0117
 1132YOPC   C2B14726  14.212   0.155   7.290  0.2497 -0.3194 -0.4230
 1132YOPC   D3B14727  14.083   0.452   7.566 -0.2094 -0.1188  0.0352
 1132YOPC   C4B14728  14.019   0.379   8.011  0.1912 -0.1610  0.2421
 1133YOPC   NC314729  14.860   0.698   5.661 -0.1809 -0.1660 -0.1109
 1133YOPC   PO414730  14.816   0.533   5.972  0.0731  0.0643  0.0334
 1133YOPC   GL114731  14.740   0.401   6.391 -0.0388  0.2064 -0.0203
 1133YOPC   GL214732  14.624   0.064   6.300 -0.2382  0.1304  0.4059
 1133YOPC   C1A14733  14.694   0.502   6.797 -0.2756  0.0748  0.0745
 1133YOPC   D2A14734  14.729   0.167   7.086  0.0382  0.0490  0.1398
 1133YOPC   C3A14735  14.727   0.184   7.544  0.0821  0.3502 -0.0383
 1133YOPC   C4A14736  14.867   0.068   7.911  0.1018  0.0066  0.0195
 1133YOPC   C1B14737  14.795  -0.092   6.692 -0.1991 -0.2023 -0.0415
 1133YOPC   C2B14738  14.904  -0.325   6.994 -0.0054 -0.1794 -0.0724
 1133YOPC   D3B14739  15.180  -0.630   6.757  0.2565  0.0305  0.0008
 1133YOPC   C4B14740  15.140  -0.741   6.434  0.3716  0.0838 -0.1273
 1134YOPC   NC314741  13.643   4.607   5.643  0.3574  0.1815  0.0398
 1134YOPC   PO414742  14.079   4.489   5.602 -0.1994  0.1306 -0.0748
 1134YOPC   GL114743  13.991   4.407   6.027 -0.0587 -0.0510  0.1114
 1134YOPC   GL214744  13.944   4.709   6.287 -0.0034  0.1021 -0.3956
 1134YOPC   C1A14745  13.934   4.208   6.470 -0.1409  0.0438 -0.0610
 1134YOPC   D2A14746  13.969   3.856   6.648 -0.5795  0.0252  0.1621
 1134YOPC   C3A14747  13.986   3.897   7.069  0.1244  0.0826  0.2184
 1134YOPC   C4A14748  14.218   4.221   7.336  0.0220 -0.0451 -0.1433
 1134YOPC   C1B14749  14.348   4.520   6.394  0.1060 -0.1673 -0.0763
 1134YOPC   C2B14750  14.285   4.311   6.785 -0.3733 -0.0251  0.0196
 1134YOPC   D3B14751  13.893   4.430   6.959  0.0769 -0.1545 -0.0056
 1134YOPC   C4B14752  13.577   4.645   7.087  0.4109 -0.3525  0.2381
 1135YOPC   NC314753  14.372  12.843   6.064  0.1829  0.2447 -0.1460
 1135YOPC   PO414754  14.478  13.234   6.026 -0.3467 -0.0594 -0.1294
 1135YOPC   GL114755  14.592  13.528   6.344  0.0407  0.1938 -0.0349
 1135YOPC   GL214756  14.959  13.537   6.426 -0.2409  0.1653 -0.1225
 1135YOPC   C1A14757  14.527  13.574   6.726  0.0041 -0.1463  0.3202
 1135YOPC   D2A14758  14.698  13.698   7.166  0.1832 -0.4084 -0.0869
 1135YOPC   C3A14759  14.525  13.601   7.605  0.1726  0.0418  0.1382
 1135YOPC   C4A14760  14.220  13.652   8.092  0.0073  0.1116  0.1294
 1135YOPC   C1B14761  15.092  13.598   6.858  0.1606 -0.0194  0.2592
 1135YOPC   C2B14762  15.181  13.511   7.263 -0.1101 -0.0345  0.1604
 1135YOPC   D3B14763  15.047  13.496   7.684 -0.2212 -0.5130  0.2697
 1135YOPC   C4B14764  15.002  13.741   8.066 -0.0122 -0.1574  0.1297
 1136YOPC   NC314765  13.587  12.280   6.003  0.1333  0.0421 -0.0125
 1136YOPC   PO414766  14.110  12.416   6.088 -0.0309  0.0530  0.0899
 1136YOPC   GL114767  14.418  12.444   6.477 -0.2935  0.1672  0.1383
 1136YOPC   GL214768  14.420  12.707   6.687 -0.0993 -0.1936 -0.2682
 1136YOPC   C1A14769  14.534  12.194   6.869 -0.3301 -0.1284 -0.1666
 1136YOPC   D2A14770  14.761  11.864   7.118 -0.1832 -0.3026  0.0873
 1136YOPC   C3A14771  15.151  11.720   6.962  0.0354  0.1748 -0.0149
 1136YOPC   C4A14772  15.409  11.713   6.807  0.1078 -0.1011  0.2509
 1136YOPC   C1B14773  14.348  12.595   7.124  0.5385 -0.0775  0.2106
 1136YOPC   C2B14774  14.388  12.301   7.397  0.1893 -0.0218 -0.1701
 1136YOPC   D3B14775  14.677  12.142   7.584  0.0464 -0.2021 -0.3013
 1136YOPC   C4B14776  14.824  12.026   8.001 -0.1762  0.0608  0.0675
 1137YOPC   NC314777   0.279  14.121   5.804  0.1757  0.2627  0.1192
 1137YOPC   PO414778  -0.061  14.390   5.929 -0.0560 -0.4895 -0.0707
 1137YOPC   GL114779  -0.026  14.585   6.279  0.0338  0.2241  0.0597
 1137YOPC   GL214780   0.269  14.506   6.440 -0.0450 -0.4959 -0.1698
 1137YOPC   C1A14781  -0.169  14.592   6.724 -0.0922 -0.0954 -0.1668
 1137YOPC   D2A14782   0.056  14.546   7.119 -0.0673 -0.1052  0.0256
 1137YOPC   C3A14783  -0.000  14.897   7.385 -0.0674 -0.0935 -0.1932
 1137YOPC   C4A14784   0.091  14.876   7.922 -0.0441 -0.2093  0.1344
 1137YOPC   C1B14785   0.422  14.674   6.760  0.0575  0.1210  0.1810
 1137YOPC   C2B14786   0.491  14.844   7.184  0.1366 -0.0171  0.0723
 1137YOPC   D3B14787   0.416  14.625   7.551 -0.0444 -0.1417  0.0721
 1137YOPC   C4B14788   0.689  14.391   7.771  0.0311 -0.3356 -0.3151
 1138YOPC   NC314789  15.277  12.675   5.758  0.2571 -0.1917 -0.0718
 1138YOPC   PO414790  15.256  13.198   5.604 -0.0140  0.0057  0.0419
 1138YOPC   GL114791  15.334  13.320   6.060  0.1029  0.1183  0.1044
 1138YOPC   GL214792  15.458  12.999   6.158  0.0178 -0.0422 -0.0293
 1138YOPC   C1A14793  15.350  13.213   6.636  0.0335 -0.1457 -0.1881
 1138YOPC   D2A14794  15.414  13.110   7.071  0.1422  0.1122  0.0209
 1138YOPC   C3A14795  15.157  13.045   7.360 -0.1262  0.1918 -0.0493
 1138YOPC   C4A14796  14.953  12.782   7.475  0.0116 -0.0596 -0.1418
 1138YOPC   C1B14797  15.896  12.876   6.140  0.2042  0.0087  0.0187
 1138YOPC   C2B14798  16.251  12.951   6.048  0.0926 -0.2136 -0.0178
 1138YOPC   D3B14799  16.346  13.173   6.380  0.1352 -0.1647  0.1553
 1138YOPC   C4B14800  16.574  13.285   6.617 -0.1643  0.4811 -0.1914
 1139YOPC   NC314801  12.692   8.074   5.730  0.0802 -0.2675 -0.3369
 1139YOPC   PO414802  12.435   7.789   6.020  0.0378  0.0491  0.1368
 1139YOPC   GL114803  12.457   7.629   6.438 -0.0902  0.1225 -0.1539
 1139YOPC   GL214804  12.761   7.737   6.585  0.2275  0.0834  0.1450
 1139YOPC   C1A14805  12.087   7.543   6.760  0.0603 -0.2793  0.1635
 1139YOPC   D2A14806  12.032   7.529   7.169 -0.0057 -0.1436  0.1502
 1139YOPC   C3A14807  11.800   7.501   7.463  0.1390 -0.1544 -0.1680
 1139YOPC   C4A14808  11.682   7.199   7.849 -0.3172  0.0712  0.2040
 1139YOPC   C1B14809  12.742   8.078   6.865  0.0590 -0.0756 -0.0008
 1139YOPC   C2B14810  12.638   8.393   7.210  0.0028 -0.0909  0.3077
 1139YOPC   D3B14811  12.908   8.404   7.296 -0.0757 -0.2111 -0.0303
 1139YOPC   C4B14812  13.328   8.282   7.475 -0.0753 -0.2279  0.2126
 1140YOPC   NC314813   9.815   4.122   6.040  0.3015  0.2310  0.4004
 1140YOPC   PO414814   9.969   4.492   5.996 -0.0086  0.2957 -0.1040
 1140YOPC   GL114815   9.755   4.524   6.399  0.0820  0.0846  0.2743
 1140YOPC   GL214816   9.822   4.262   6.608  0.0093  0.4586  0.0440
 1140YOPC   C1A14817   9.500   4.643   6.758  0.1797  0.0558  0.0021
 1140YOPC   D2A14818   9.453   4.608   7.204 -0.0858  0.1389 -0.1448
 1140YOPC   C3A14819   9.388   4.727   7.593  0.2793 -0.2965  0.0336
 1140YOPC   C4A14820   9.241   4.685   7.945 -0.3018  0.0710 -0.0131
 1140YOPC   C1B14821   9.797   4.162   7.003  0.1288  0.1027 -0.0089
 1140YOPC   C2B14822   9.565   4.122   7.454  0.0228  0.0190 -0.1622
 1140YOPC   D3B14823   9.687   4.399   7.874 -0.0552 -0.0176  0.0785
 1140YOPC   C4B14824   9.744   4.307   8.302 -0.1380  0.0597 -0.4593
 1141YOPC   NC314825   3.493   5.049   5.076  0.0284  0.0549  0.0405
 1141YOPC   PO414826   3.847   5.074   5.344  0.0469 -0.0728 -0.2006
 1141YOPC   GL114827   3.783   5.249   5.815  0.4433  0.2564 -0.1613
 1141YOPC   GL214828   3.530   5.166   6.022 -0.3615 -0.1656  0.1529
 1141YOPC   C1A14829   4.060   5.327   6.147 -0.1092  0.1610 -0.0829
 1141YOPC   D2A14830   4.323   4.994   6.273 -0.2712  0.2767  0.1475
 1141YOPC   C3A14831   4.386   4.721   6.700 -0.3171 -0.0458 -0.2127
 1141YOPC   C4A14832   4.193   4.585   6.969 -0.1376 -0.2648  0.1116
 1141YOPC   C1B14833   3.807   4.887   6.238  0.0173  0.2523  0.1802
 1141YOPC   C2B14834   4.053   4.558   6.375  0.0402  0.0590  0.1907
 1141YOPC   D3B14835   3.839   4.417   6.779 -0.0871 -0.2211 -0.1953
 1141YOPC   C4B14836   3.758   4.359   7.195  0.0389 -0.2198  0.1792
 1142YOPC   NC314837   6.885   2.701   5.761  0.1458 -0.2916 -0.1114
 1142YOPC   PO414838   7.121   3.085   5.667  0.0312  0.0688 -0.2037
 1142YOPC   GL114839   7.238   2.924   6.066 -0.0262 -0.0914  0.0854
 1142YOPC   GL214840   6.933   3.014   6.215  0.3357  0.1177 -0.0504
 1142YOPC   C1A14841   7.346   2.998   6.448  0.2238 -0.1454  0.0234
 1142YOPC   D2A14842   7.326   3.027   6.915 -0.1664  0.0208 -0.0785
 1142YOPC   C3A14843   7.629   3.187   7.254  0.4794  0.0755  0.2318
 1142YOPC   C4A14844   7.629   3.112   7.702  0.0879  0.2236 -0.0452
 1142YOPC   C1B14845   6.862   2.991   6.660  0.0941 -0.3658 -0.0433
 1142YOPC   C2B14846   6.863   3.080   7.092 -0.1874  0.2317 -0.1512
 1142YOPC   D3B14847   7.094   2.717   7.213 -0.3600 -0.0831 -0.2707
 1142YOPC   C4B14848   7.170   2.381   7.552  0.2272  0.1380 -0.1504
 1143YOPC   NC314849  10.962   7.440   5.872 -0.0023 -0.2794 -0.3682
 1143YOPC   PO414850  11.203   7.181   6.084  0.0734 -0.2335 -0.0392
 1143YOPC   GL114851  11.348   7.063   6.463  0.0184  0.2438  0.1918
 1143YOPC   GL214852  11.010   6.840   6.552 -0.2346 -0.0162 -0.1053
 1143YOPC   C1A14853  11.454   6.859   6.856 -0.0919  0.3837 -0.0310
 1143YOPC   D2A14854  11.632   6.543   7.050  0.1084  0.2193 -0.5536
 1143YOPC   C3A14855  12.011   6.198   7.154 -0.0849 -0.2159 -0.0240
 1143YOPC   C4A14856  12.099   6.172   7.520 -0.0424 -0.0300  0.0694
 1143YOPC   C1B14857  10.951   6.864   6.979 -0.0166 -0.0552 -0.0073
 1143YOPC   C2B14858  10.803   6.890   7.386  0.2431 -0.4905 -0.0142
 1143YOPC   D3B14859  10.995   6.836   7.796  0.1930  0.2144  0.0333
 1143YOPC   C4B14860  11.154   7.128   8.140  0.0186  0.0964 -0.0751
 1144ERGO   ROH14861  14.931   6.683   9.496  0.1309  0.1216  0.0672
 1144ERGO    R114862  14.965   6.569   9.239  0.0647  0.0583  0.0843
 1144ERGO    R214863  14.877   6.694   9.009 -0.0390 -0.0168  0.0728
 1144ERGO    R314864  15.135   6.660   8.930 -0.0574  0.0124  0.0059
 1144ERGO    R414865  14.978   6.638   8.683 -0.1146 -0.1241  0.0686
 1144ERGO    R514866  15.123   6.493   8.758 -0.0629 -0.0542  0.0789
 1144ERGO    C114867  15.279   6.573   8.420 -0.1761 -0.1592  0.0034
 1144ERGO    C214868  15.524   6.472   8.100  0.0416 -0.2373  0.5330
 1145ERGO   ROH14869   3.760  14.876   9.886 -0.1942 -0.1211  0.1174
 1145ERGO    R114870   3.768  15.010   9.637 -0.1169 -0.1539  0.1026
 1145ERGO    R214871   4.005  15.063   9.504 -0.0785 -0.1838  0.1638
 1145ERGO    R314872   3.881  14.934   9.299 -0.0256 -0.2020  0.1426
 1145ERGO    R414873   4.073  15.113   9.169 -0.3251  0.1508  0.1581
 1145ERGO    R514874   3.860  15.101   9.128 -0.3388 -0.1001  0.2712
 1145ERGO    C114875   3.997  15.022   8.782 -0.4192  0.3285  0.1350
 1145ERGO    C214876   4.134  14.932   8.396 -0.0638 -0.1104  0.1418
 1146ERGO   ROH14877   2.712  13.904   9.566  0.0596  0.0396  0.0003
 1146ERGO    R114878   2.630  13.903   9.295  0.0779 -0.0346 -0.0052
 1146ERGO    R214879   2.634  14.130   9.138 -0.0060 -0.0562 -0.0383
 1146ERGO    R314880   2.782  13.974   8.972  0.0699 -0.0187 -0.0059
 1146ERGO    R414881   2.774  14.235   8.840 -0.1474 -0.0746 -0.1125
 1146ERGO    R514882   2.720  14.044   8.752 -0.0306 -0.1524 -0.0219
 1146ERGO    C114883   2.996  14.150   8.512 -0.1586 -0.0500 -0.1254
 1146ERGO    C214884   3.013  14.163   8.143 -0.1634  0.1198 -0.0432
 1147ERGO   ROH14885  16.727   5.402   9.569 -0.0567 -0.1235  0.0749
 1147ERGO    R114886  16.650   5.459   9.303  0.0491 -0.0506  0.0586
 1147ERGO    R214887  16.832   5.525   9.106  0.1352 -0.0544  0.1325
 1147ERGO    R314888  16.714   5.319   8.974  0.1300 -0.0007  0.0538
 1147ERGO    R414889  16.851   5.472   8.765  0.1601  0.0494  0.1177
 1147ERGO    R514890  16.641   5.415   8.767  0.1582  0.0683  0.0784
 1147ERGO    C114891  16.751   5.248   8.442  0.1697  0.1603  0.0351
 1147ERGO    C214892  16.740   5.220   8.041  0.0341  0.1162  0.1325
 1148ERGO   ROH14893   8.544   8.897   9.673 -0.0104  0.1788  0.0760
 1148ERGO    R114894   8.693   8.914   9.432  0.0216 -0.0098  0.0802
 1148ERGO    R214895   8.733   8.696   9.266 -0.0575 -0.1163  0.1914
 1148ERGO    R314896   8.629   8.862   9.078  0.0310 -0.1636  0.1016
 1148ERGO    R414897   8.805   8.681   8.929  0.2357 -0.0795  0.2503
 1148ERGO    R514898   8.809   8.899   8.925  0.1420 -0.0818  0.2553
 1148ERGO    C114899   8.749   8.828   8.555  0.4895 -0.1025  0.2004
 1148ERGO    C214900   8.667   8.929   8.212 -0.0293 -0.2101  0.0396
 1149ERGO   ROH14901  14.091  14.340  10.090 -0.0117 -0.0844 -0.0214
 1149ERGO    R114902  14.075  14.248   9.823 -0.0320  0.0486 -0.0668
 1149ERGO    R214903  14.019  14.415   9.611  0.0850  0.1796  0.0041
 1149ERGO    R314904  14.250  14.312   9.510  0.0401  0.0986 -0.0164
 1149ERGO    R414905  14.094  14.391   9.274 -0.0061  0.0328 -0.0064
 1149ERGO    R514906  14.181  14.194   9.313 -0.0317  0.0330  0.0478
 1149ERGO    C114907  14.354  14.279   8.984 -0.1013 -0.1286 -0.0317
 1149ERGO    C214908  14.274  14.396   8.713  0.2104 -0.3306 -0.0208
 1150ERGO   ROH14909   2.106  11.068   9.235  0.1909 -0.0081 -0.0980
 1150ERGO    R114910   2.210  11.049   8.973  0.0587 -0.0125 -0.1526
 1150ERGO    R214911   2.119  10.864   8.790 -0.0452 -0.0130 -0.1138
 1150ERGO    R314912   2.082  11.084   8.634 -0.1161 -0.0053 -0.0839
 1150ERGO    R414913   2.114  10.861   8.444  0.2856  0.0999 -0.1220
 1150ERGO    R514914   2.228  11.049   8.447  0.0929  0.2062  0.0426
 1150ERGO    C114915   2.077  11.066   8.097  0.4117  0.1730 -0.0985
 1150ERGO    C214916   1.945  10.797   7.831 -0.0415 -0.1712  0.1712
 1151ERGO   ROH14917  13.201  13.420   9.909  0.2652  0.1606  0.0924
 1151ERGO    R114918  13.276  13.378   9.640  0.4006  0.0776  0.1414
 1151ERGO    R214919  13.141  13.494   9.427  0.2748 -0.2757  0.0175
 1151ERGO    R314920  13.389  13.583   9.361  0.1617  0.0548  0.0261
 1151ERGO    R414921  13.226  13.637   9.125  0.0944 -0.1300  0.0350
 1151ERGO    R514922  13.413  13.527   9.130  0.2375  0.1129  0.0223
 1151ERGO    C114923  13.508  13.805   8.887 -0.1168  0.2650  0.0532
 1151ERGO    C214924  13.537  13.937   8.472  0.1183  0.2620  0.0033
 1152ERGO   ROH14925   6.260   5.524   6.225 -0.0887  0.1407 -0.0866
 1152ERGO    R114926   6.305   5.546   6.503 -0.0006  0.0846 -0.0958
 1152ERGO    R214927   6.390   5.780   6.622  0.0274  0.0641 -0.0733
 1152ERGO    R314928   6.170   5.744   6.778  0.0787  0.0219 -0.0117
 1152ERGO    R414929   6.335   5.940   6.923  0.1055  0.0162 -0.0340
 1152ERGO    R514930   6.256   5.752   7.002  0.1466 -0.0021 -0.0369
 1152ERGO    C114931   6.098   5.998   7.246  0.1991 -0.0513  0.0468
 1152ERGO    C214932   6.011   6.164   7.494  0.2084  0.0362  0.0328
 1153ERGO   ROH14933  14.408  17.855   9.714  0.1762  0.1782 -0.0150
 1153ERGO    R114934  14.299  17.812   9.456 -0.0325  0.0402  0.0945
 1153ERGO    R214935  14.034  17.864   9.396 -0.0249  0.2195  0.2258
 1153ERGO    R314936  14.143  18.015   9.197 -0.0225 -0.0552  0.0115
 1153ERGO    R414937  13.863  17.976   9.118 -0.2028  0.3473  0.3833
 1153ERGO    R514938  14.040  17.932   8.997 -0.4121 -0.0028  0.1779
 1153ERGO    C114939  13.864  18.182   8.769 -0.3042  0.1637  0.2738
 1153ERGO    C214940  13.612  18.211   8.663  0.4541  0.0229 -0.2208
 1154ERGO   ROH14941   2.521   8.288   9.119 -0.1000 -0.2098  0.1796
 1154ERGO    R114942   2.598   8.419   8.881  0.0931 -0.1600  0.2663
 1154ERGO    R214943   2.742   8.293   8.681 -0.0310 -0.2218  0.2092
 1154ERGO    R314944   2.537   8.377   8.524  0.0864  0.1226  0.2335
 1154ERGO    R414945   2.721   8.241   8.340 -0.1750 -0.2016  0.2151
 1154ERGO    R514946   2.643   8.443   8.319  0.1683 -0.0674  0.2163
 1154ERGO    C114947   2.516   8.289   7.994 -0.1485  0.1336  0.2414
 1154ERGO    C214948   2.548   8.049   7.745 -0.1373 -0.1465  0.1396
 1155ERGO   ROH14949  15.796   1.509   7.154 -0.1751 -0.1446 -0.0469
 1155ERGO    R114950  15.669   1.537   7.406 -0.2653 -0.3112 -0.0720
 1155ERGO    R214951  15.565   1.323   7.545  0.2027 -0.4925  0.0201
 1155ERGO    R314952  15.723   1.417   7.745 -0.0158 -0.0351 -0.0102
 1155ERGO    R414953  15.469   1.352   7.876  0.0482 -0.3401 -0.0366
 1155ERGO    R514954  15.575   1.543   7.884 -0.2741 -0.1497 -0.1766
 1155ERGO    C114955  15.563   1.458   8.256 -0.2469  0.1780 -0.0982
 1155ERGO    C214956  15.388   1.410   8.508 -0.1306 -0.0597 -0.0244
 1156ERGO   ROH14957  11.563   6.176   6.707 -0.0079  0.4071  0.1106
 1156ERGO    R114958  11.463   5.977   6.881  0.3266  0.1596  0.0327
 1156ERGO    R214959  11.572   5.927   7.129  0.2774  0.4035  0.1158
 1156ERGO    R314960  11.317   5.965   7.214  0.1161 -0.1787 -0.0692
 1156ERGO    R414961  11.458   5.857   7.448  0.2203  0.2815  0.0679
 1156ERGO    R514962  11.275   5.779   7.359  0.4667 -0.2112 -0.0143
 1156ERGO    C114963  11.152   5.852   7.713  0.0357 -0.3360 -0.1337
 1156ERGO    C214964  11.107   5.725   8.063 -0.0419  0.2365 -0.1723
 1157ERGO   ROH14965   1.866   4.414   9.704  0.0745  0.2483  0.0615
 1157ERGO    R114966   1.944   4.379   9.434  0.0006  0.1955  0.0473
 1157ERGO    R214967   1.868   4.160   9.285  0.0286  0.1261  0.1378
 1157ERGO    R314968   1.776   4.349   9.113 -0.0909  0.0429  0.1078
 1157ERGO    R414969   1.887   4.139   8.941  0.2255  0.1714  0.1444
 1157ERGO    R514970   1.938   4.351   8.935 -0.0001  0.2303  0.1882
 1157ERGO    C114971   1.813   4.304   8.578  0.2280  0.1196  0.1201
 1157ERGO    C214972   1.895   4.046   8.281 -0.3551  0.0997 -0.0527
 1158ERGO   ROH14973  16.528   4.363   9.754 -0.0090 -0.0612  0.2350
 1158ERGO    R114974  16.453   4.381   9.482 -0.0950 -0.0021  0.2622
 1158ERGO    R214975  16.600   4.524   9.296 -0.1224 -0.0070  0.2346
 1158ERGO    R314976  16.597   4.288   9.161 -0.2218  0.0129  0.2010
 1158ERGO    R414977  16.627   4.492   8.953 -0.0575  0.0210  0.2371
 1158ERGO    R514978  16.476   4.336   8.960 -0.1456  0.1059  0.1784
 1158ERGO    C114979  16.641   4.252   8.627 -0.1132  0.0560  0.2070
 1158ERGO    C214980  16.858   4.195   8.248 -0.1642 -0.1753 -0.4146
 1159ERGO   ROH14981  12.094  14.918   6.061  0.1894 -0.0568 -0.0078
 1159ERGO    R114982  12.149  14.927   6.339  0.1693  0.1487 -0.0098
 1159ERGO    R214983  12.145  15.163   6.483 -0.2088  0.2073 -0.1056
 1159ERGO    R314984  11.972  15.026   6.641  0.0050 -0.0056 -0.0561
 1159ERGO    R414985  12.084  15.231   6.816 -0.2543  0.1810 -0.1085
 1159ERGO    R514986  12.079  15.017   6.854  0.0484  0.1808 -0.0709
 1159ERGO    C114987  11.885  15.142   7.158 -0.0801 -0.0340 -0.0637
 1159ERGO    C214988  11.653  15.312   7.376 -0.1384  0.1454 -0.0060
 1160ERGO   ROH14989   0.086   4.999  10.054 -0.0914 -0.0968  0.0798
 1160ERGO    R114990   0.021   4.866   9.813 -0.1307 -0.0075  0.0403
 1160ERGO    R214991  -0.090   4.996   9.596 -0.0600  0.0964  0.0645
 1160ERGO    R314992   0.121   4.888   9.463 -0.0955  0.0408  0.0537
 1160ERGO    R414993  -0.073   4.954   9.253 -0.0194  0.2407  0.0482
 1160ERGO    R514994   0.021   4.760   9.287 -0.1321  0.1748 -0.0224
 1160ERGO    C114995   0.134   4.828   8.929 -0.0290  0.2726  0.0284
 1160ERGO    C214996   0.057   4.842   8.609  0.2186  0.0175 -0.1572
 1161ERGO   ROH14997   5.177   6.758   9.297 -0.3621  0.1056 -0.1748
 1161ERGO    R114998   5.218   6.706   9.021 -0.3426  0.0610 -0.1638
 1161ERGO    R214999   5.009   6.668   8.844 -0.3320  0.1199 -0.1893
 1161ERGO    R315000   5.133   6.867   8.706 -0.2385  0.0593 -0.1932
 1161ERGO    R415001   4.978   6.721   8.504 -0.3593  0.1643 -0.1796
 1161ERGO    R515002   5.191   6.766   8.497 -0.3327  0.0407 -0.2113
 1161ERGO    C115003   5.076   6.939   8.177 -0.2875  0.1333 -0.1776
 1161ERGO    C215004   4.906   7.053   7.926  0.0903 -0.0790  0.1607
 1162ERGO   ROH15005   3.201   4.020   6.129  0.1177  0.0238 -0.1400
 1162ERGO    R115006   3.248   4.162   6.370  0.0451  0.0105 -0.1173
 1162ERGO    R215007   3.058   4.184   6.569 -0.0068 -0.0282 -0.1612
 1162ERGO    R315008   3.257   4.085   6.725 -0.0297 -0.0191 -0.1208
 1162ERGO    R415009   3.067   4.203   6.914 -0.1575 -0.1725 -0.1483
 1162ERGO    R515010   3.280   4.245   6.901 -0.1648 -0.0830 -0.0418
 1162ERGO    C115011   3.259   4.120   7.261 -0.2668 -0.2479 -0.1029
 1162ERGO    C215012   3.077   4.243   7.575  0.1031  0.1128 -0.2474
 1163ERGO   ROH15013   1.077   9.220   6.049 -0.0895  0.1245  0.2227
 1163ERGO    R115014   1.074   9.144   6.321  0.0193 -0.1608  0.1487
 1163ERGO    R215015   1.243   8.951   6.424  0.3217 -0.0098 -0.0464
 1163ERGO    R315016   1.308   9.148   6.600  0.0103 -0.0778  0.1550
 1163ERGO    R415017   1.375   8.900   6.740  0.3645 -0.1213 -0.0820
 1163ERGO    R515018   1.248   9.060   6.814  0.1156 -0.3788  0.0656
 1163ERGO    C115019   1.514   9.055   7.087  0.0971 -0.2499  0.0865
 1163ERGO    C215020   1.595   9.231   7.438 -0.1080 -0.1228 -0.1755
 1164ERGO   ROH15021   1.731   5.319   6.375 -0.0052 -0.0155 -0.1245
 1164ERGO    R115022   1.602   5.348   6.625 -0.0327  0.1301 -0.1553
 1164ERGO    R215023   1.619   5.158   6.824 -0.2890  0.1126 -0.1498
 1164ERGO    R315024   1.704   5.368   6.974 -0.0918  0.0233 -0.1309
 1164ERGO    R415025   1.662   5.152   7.167 -0.4591  0.0859 -0.1276
 1164ERGO    R515026   1.577   5.352   7.176 -0.2127  0.2001 -0.1882
 1164ERGO    C115027   1.767   5.346   7.507 -0.3731 -0.0134 -0.0970
 1164ERGO    C215028   1.875   5.306   7.781 -0.0098 -0.3565  0.0205
 1165ERGO   ROH15029   0.525   5.543   6.838  0.1081 -0.0556 -0.1315
 1165ERGO    R115030   0.441   5.561   7.108  0.0257  0.0660 -0.1640
 1165ERGO    R215031   0.181   5.621   7.179 -0.0234 -0.0079 -0.2712
 1165ERGO    R315032   0.201   5.391   7.322  0.0431  0.0831 -0.1318
 1165ERGO    R415033  -0.047   5.515   7.416  0.0548  0.1065 -0.1430
 1165ERGO    R515034   0.119   5.448   7.540  0.0944  0.2056 -0.1460
 1165ERGO    C115035  -0.162   5.237   7.688  0.1629  0.2586  0.0625
 1165ERGO    C215036  -0.474   5.117   7.860  0.0579 -0.1330  0.0243
 1166ERGO   ROH15037   4.984   6.009   9.678 -0.2700 -0.0708 -0.0049
 1166ERGO    R115038   5.060   5.829   9.473 -0.4016 -0.1900  0.0503
 1166ERGO    R215039   4.898   5.774   9.256 -0.3016  0.1271 -0.1052
 1166ERGO    R315040   5.119   5.846   9.115 -0.0299 -0.2577  0.1038
 1166ERGO    R415041   4.945   5.715   8.919 -0.2611  0.3711 -0.1451
 1166ERGO    R515042   5.153   5.665   8.961 -0.3910 -0.1912 -0.0683
 1166ERGO    C115043   5.179   5.748   8.590  0.0175  0.1518  0.0280
 1166ERGO    C215044   5.296   5.743   8.210 -0.1068 -0.1594 -0.0706
 1167ERGO   ROH15045   9.636   5.361   9.896 -0.1053 -0.0192 -0.0663
 1167ERGO    R115046   9.719   5.470   9.648 -0.2897  0.1080 -0.0732
 1167ERGO    R215047   9.914   5.353   9.492 -0.1142  0.4073 -0.0835
 1167ERGO    R315048   9.722   5.364   9.300 -0.1471  0.1054 -0.0722
 1167ERGO    R415049   9.971   5.324   9.152 -0.1291  0.2054 -0.0701
 1167ERGO    R515050   9.824   5.481   9.119 -0.2658  0.0600 -0.1707
 1167ERGO    C115051   9.824   5.317   8.775 -0.1685 -0.1955 -0.0517
 1167ERGO    C215052   9.765   5.239   8.424 -0.1066  0.0032  0.0618
 1168ERGO   ROH15053  13.615   7.556   9.763  0.0130 -0.1011 -0.0049
 1168ERGO    R115054  13.605   7.415   9.518 -0.0137 -0.1372  0.0181
 1168ERGO    R215055  13.379   7.406   9.360  0.0301 -0.0021 -0.0457
 1168ERGO    R315056  13.549   7.496   9.168  0.1513 -0.1601 -0.0160
 1168ERGO    R415057  13.334   7.360   9.021 -0.0007  0.1063 -0.0576
 1168ERGO    R515058  13.548   7.322   9.003 -0.0360 -0.1366 -0.0463
 1168ERGO    C115059  13.467   7.417   8.643  0.0952  0.0211 -0.0365
 1168ERGO    C215060  13.210   7.391   8.367  0.0695 -0.1186  0.0716
 1169ERGO   ROH15061   2.698  17.969   9.627  0.1647  0.2872 -0.1267
 1169ERGO    R115062   2.814  18.054   9.383  0.1703  0.1245 -0.1830
 1169ERGO    R215063   3.087  18.049   9.338  0.1785  0.1075 -0.1712
 1169ERGO    R315064   3.017  17.903   9.120  0.1877 -0.0518 -0.0680
 1169ERGO    R415065   3.240  18.072   9.030 -0.0606  0.1508 -0.2883
 1169ERGO    R515066   3.043  18.056   8.936 -0.1036 -0.0987 -0.1476
 1169ERGO    C115067   3.264  17.948   8.645 -0.1911  0.0264 -0.2595
 1169ERGO    C215068   3.450  17.989   8.368  0.0430  0.0420  0.0403
 1170ERGO   ROH15069  10.061  11.003   6.305  0.0725 -0.0106 -0.0996
 1170ERGO    R115070  10.075  10.956   6.583 -0.0863 -0.1972 -0.1212
 1170ERGO    R215071  10.120  11.158   6.766  0.2212 -0.3750  0.0075
 1170ERGO    R315072   9.891  11.063   6.879  0.0156 -0.0412 -0.1133
 1170ERGO    R415073  10.059  11.140   7.106  0.1602 -0.6046 -0.0135
 1170ERGO    R515074   9.965  10.946   7.075 -0.2270 -0.3947 -0.2225
 1170ERGO    C115075   9.809  11.041   7.410 -0.0684 -0.4249 -0.1392
 1170ERGO    C215076   9.551  11.167   7.694 -0.0497 -0.0349  0.2022
 1171ERGO   ROH15077   8.429   2.465   6.652  0.0695 -0.0705 -0.0185
 1171ERGO    R115078   8.256   2.663   6.756  0.1290  0.0159 -0.0797
 1171ERGO    R215079   8.139   2.642   7.006 -0.0881  0.0025 -0.1744
 1171ERGO    R315080   8.252   2.886   7.044  0.0673 -0.0965  0.0054
 1171ERGO    R415081   8.033   2.875   7.238 -0.1190  0.0208 -0.2078
 1171ERGO    R515082   8.068   3.031   7.090  0.1423  0.0362 -0.1265
 1171ERGO    C115083   8.079   3.239   7.409  0.0090 -0.0615 -0.0585
 1171ERGO    C215084   8.176   3.343   7.749 -0.2021  0.2022 -0.0996
 1172ERGO   ROH15085  18.119   6.548   6.016  0.0854  0.0437 -0.0790
 1172ERGO    R115086  18.085   6.560   6.296 -0.0620 -0.0162 -0.0930
 1172ERGO    R215087  17.995   6.344   6.444  0.1197 -0.1361 -0.1512
 1172ERGO    R315088  18.223   6.389   6.587  0.0038  0.1227 -0.0422
 1172ERGO    R415089  18.025   6.305   6.786 -0.0031 -0.0806 -0.1342
 1172ERGO    R515090  18.146   6.487   6.791 -0.2030  0.0533 -0.0852
 1172ERGO    C115091  18.256   6.325   7.119 -0.1836  0.1946 -0.0220
 1172ERGO    C215092  18.413   6.129   7.365 -0.3217  0.0275 -0.0124
 1173ERGO   ROH15093  18.271  17.907   6.921  0.0146  0.0283  0.0710
 1173ERGO    R115094  18.511  17.972   7.057  0.0376 -0.0964  0.0930
 1173ERGO    R215095  18.514  18.119   7.291  0.1009  0.0282  0.0185
 1173ERGO    R315096  18.656  17.907   7.384 -0.0977 -0.0438  0.1633
 1173ERGO    R415097  18.644  18.092   7.610  0.0248  0.0897  0.0548
 1173ERGO    R515098  18.823  18.004   7.525 -0.0379 -0.1132  0.1361
 1173ERGO    C115099  18.853  17.877   7.883 -0.2059  0.0580  0.2119
 1173ERGO    C215100  18.985  17.876   8.171 -0.1781  0.0587  0.2483
 1174ERGO   ROH15101   5.917  12.582   6.436 -0.1338 -0.0622 -0.0661
 1174ERGO    R115102   5.900  12.547   6.716  0.0992 -0.1478 -0.0619
 1174ERGO    R215103   6.123  12.499   6.874  0.2815  0.1830 -0.2129
 1174ERGO    R315104   6.032  12.714   7.012  0.0127  0.0093 -0.1107
 1174ERGO    R415105   6.174  12.554   7.211  0.0461 -0.0065 -0.1430
 1174ERGO    R515106   5.969  12.626   7.225 -0.0300 -0.1974 -0.2040
 1174ERGO    C115107   6.117  12.788   7.537 -0.3434 -0.2799 -0.0063
 1174ERGO    C215108   6.152  12.940   7.767 -0.0025 -0.1608 -0.0386
 1175ERGO   ROH15109  17.092  14.470   9.703 -0.0889  0.1026  0.0325
 1175ERGO    R115110  17.031  14.599   9.458 -0.1634 -0.1602 -0.0901
 1175ERGO    R215111  17.204  14.779   9.338 -0.3560 -0.0165 -0.1435
 1175ERGO    R315112  17.174  14.613   9.124 -0.0420 -0.2153 -0.0426
 1175ERGO    R415113  17.265  14.867   9.009 -0.3716 -0.1486 -0.1839
 1175ERGO    R515114  17.088  14.755   8.951 -0.1947 -0.4537 -0.1715
 1175ERGO    C115115  17.273  14.763   8.617 -0.0860 -0.4122 -0.1128
 1175ERGO    C215116  17.188  14.858   8.245 -0.0780  0.2393  0.0919
 1176ERGO   ROH15117   3.096  14.286   6.114 -0.0290  0.2736  0.2485
 1176ERGO    R115118   3.225  14.170   6.338 -0.1040 -0.2205  0.0469
 1176ERGO    R215119   3.213  14.281   6.591  0.4666 -0.3251  0.1298
 1176ERGO    R315120   3.123  14.033   6.660 -0.1488 -0.1369  0.0689
 1176ERGO    R415121   3.199  14.158   6.914  0.4104 -0.4563  0.0791
 1176ERGO    R515122   3.268  13.966   6.838 -0.1665 -0.6198 -0.0833
 1176ERGO    C115123   3.107  13.855   7.166 -0.2000 -0.3560 -0.0076
 1176ERGO    C215124   2.932  13.604   7.392  0.1336  0.1130  0.1155
 1177ERGO   ROH15125   0.287   5.783   9.564  0.0171  0.0828 -0.0516
 1177ERGO    R115126   0.209   5.839   9.298  0.0515 -0.0054 -0.0803
 1177ERGO    R215127   0.373   5.970   9.119  0.0578 -0.0312 -0.0883
 1177ERGO    R315128   0.324   5.752   8.964  0.1184 -0.0807 -0.0393
 1177ERGO    R415129   0.455   5.943   8.784 -0.1902  0.0388 -0.1568
 1177ERGO    R515130   0.264   5.843   8.751 -0.1379 -0.1312  0.0039
 1177ERGO    C115131   0.457   5.723   8.444 -0.2776  0.0330 -0.1506
 1177ERGO    C215132   0.560   5.635   8.187  0.2427 -0.1530  0.0123
 1178ERGO   ROH15133  14.160  10.988   6.493  0.1408 -0.1777  0.0629
 1178ERGO    R115134  14.170  11.150   6.725  0.1175 -0.2520  0.1158
 1178ERGO    R215135  14.042  11.394   6.741  0.3852 -0.1052  0.0608
 1178ERGO    R315136  13.930  11.285   6.963  0.0508 -0.0387 -0.0678
 1178ERGO    R415137  13.826  11.560   6.954  0.4327  0.1118 -0.0563
 1178ERGO    R515138  13.928  11.464   7.122  0.1674 -0.0925 -0.0042
 1178ERGO    C115139  13.596  11.554   7.288  0.1464  0.3005 -0.2451
 1178ERGO    C215140  13.495  11.747   7.460  0.2823  0.1838 -0.1199
 1179ERGO   ROH15141   3.474   7.765   5.866  0.0172 -0.0827  0.1806
 1179ERGO    R115142   3.381   7.692   6.123  0.0249 -0.0764  0.1857
 1179ERGO    R215143   3.539   7.558   6.306  0.0387 -0.0516  0.1944
 1179ERGO    R315144   3.470   7.766   6.468  0.0201 -0.0475  0.1803
 1179ERGO    R415145   3.529   7.544   6.651 -0.1316 -0.0799  0.1887
 1179ERGO    R515146   3.346   7.664   6.646 -0.0945 -0.0278  0.1117
 1179ERGO    C115147   3.459   7.730   7.004 -0.2483 -0.0926  0.1722
 1179ERGO    C215148   3.382   7.624   7.397  0.1924 -0.3554 -0.0416
 1180ERGO   ROH15149   1.120  17.751   9.996 -0.0661 -0.1610  0.0181
 1180ERGO    R115150   1.072  17.797   9.721  0.0163 -0.0881  0.0154
 1180ERGO    R215151   1.220  17.977   9.572  0.1187 -0.1121  0.0861
 1180ERGO    R315152   1.258  17.762   9.410  0.0777 -0.0947  0.0529
 1180ERGO    R415153   1.311  17.993   9.239  0.0765 -0.0787  0.0760
 1180ERGO    R515154   1.172  17.831   9.197  0.0564 -0.0600  0.0731
 1180ERGO    C115155   1.401  17.801   8.893  0.0134 -0.0427  0.0390
 1180ERGO    C215156   1.419  17.666   8.457 -0.0218 -0.1370  0.2220
 1181ERGO   ROH15157   7.409   6.627   9.741  0.0389  0.1951 -0.0511
 1181ERGO    R115158   7.303   6.684   9.485 -0.0093  0.0278 -0.0701
 1181ERGO    R215159   7.439   6.835   9.298 -0.1980  0.2200 -0.0593
 1181ERGO    R315160   7.397   6.619   9.139  0.1403  0.1428 -0.0518
 1181ERGO    R415161   7.558   6.800   8.975  0.0164  0.3036  0.0088
 1181ERGO    R515162   7.367   6.710   8.920  0.1505  0.0719 -0.0810
 1181ERGO    C115163   7.587   6.576   8.639  0.4587  0.2798  0.0555
 1181ERGO    C215164   7.656   6.552   8.337 -0.0859 -0.3099 -0.3251
 1182ERGO   ROH15165  14.575   5.804   9.813  0.3049 -0.2907  0.0968
 1182ERGO    R115166  14.494   5.831   9.543  0.0917 -0.1518  0.1727
 1182ERGO    R215167  14.652   5.752   9.331 -0.0763 -0.0480  0.0055
 1182ERGO    R315168  14.432   5.608   9.262 -0.1345 -0.0080  0.1054
 1182ERGO    R415169  14.595   5.618   9.018 -0.0250 -0.4268  0.1533
 1182ERGO    R515170  14.386   5.676   9.036  0.0003 -0.2733 -0.0070
 1182ERGO    C115171  14.355   5.404   8.770 -0.0497 -0.6099  0.3332
 1182ERGO    C215172  14.438   5.238   8.387 -0.0771  0.0369 -0.4561
 1183ERGO   ROH15173   2.933  14.990  10.040  0.3401 -0.1012  0.2440
 1183ERGO    R115174   3.078  14.973   9.798  0.1631  0.0022  0.1281
 1183ERGO    R215175   2.966  15.031   9.552 -0.0673 -0.0586  0.2169
 1183ERGO    R315176   3.177  15.201   9.532 -0.1897  0.0781  0.0569
 1183ERGO    R415177   3.116  15.123   9.255  0.0069 -0.4111  0.1402
 1183ERGO    R515178   3.310  15.109   9.354 -0.0286 -0.1032  0.2660
 1183ERGO    C115179   3.402  15.336   9.063 -0.0648 -0.4882 -0.0547
 1183ERGO    C215180   3.564  15.406   8.788  0.0920  0.0873 -0.1764
 1184ERGO   ROH15181  12.662  16.079   9.658 -0.1655  0.1892  0.0404
 1184ERGO    R115182  12.775  16.150   9.409  0.0092 -0.0561  0.0467
 1184ERGO    R215183  12.900  15.967   9.244 -0.3794 -0.3362  0.0565
 1184ERGO    R315184  12.723  16.062   9.060 -0.1689  0.0538  0.0430
 1184ERGO    R415185  12.934  15.934   8.902 -0.5313 -0.6276  0.0649
 1184ERGO    R515186  12.861  16.138   8.879  0.0196 -0.4190 -0.0311
 1184ERGO    C115187  12.789  16.004   8.529 -0.4222 -0.4311  0.0571
 1184ERGO    C215188  12.724  15.919   8.226 -0.0185 -0.0159  0.1844
 1185ERGO   ROH15189  12.294  14.821   9.602  0.0737 -0.1431 -0.1340
 1185ERGO    R115190  12.188  14.778   9.343  0.0686 -0.0187 -0.1527
 1185ERGO    R215191  11.977  14.925   9.243  0.0693  0.0299 -0.0778
 1185ERGO    R315192  12.149  14.973   9.038  0.0636  0.1267 -0.0612
 1185ERGO    R415193  11.882  15.014   8.923  0.0564  0.2042 -0.0268
 1185ERGO    R515194  12.038  14.883   8.845  0.0463  0.2329 -0.1038
 1185ERGO    C115195  11.988  15.111   8.544  0.0434  0.3965  0.0185
 1185ERGO    C215196  12.012  15.228   8.251  0.3138  0.1524 -0.0779
 1186ERGO   ROH15197  12.280  17.314   9.719  0.1253  0.4107  0.0819
 1186ERGO    R115198  12.328  17.461   9.482  0.1616  0.2275 -0.0261
 1186ERGO    R215199  12.453  17.351   9.261 -0.0728 -0.0318 -0.0324
 1186ERGO    R315200  12.231  17.439   9.132 -0.0466  0.1380  0.0357
 1186ERGO    R415201  12.434  17.417   8.922 -0.1415 -0.0867 -0.0396
 1186ERGO    R515202  12.314  17.593   8.968  0.0294  0.0321 -0.0283
 1186ERGO    C115203  12.214  17.539   8.604 -0.1571  0.0411  0.0200
 1186ERGO    C215204  12.079  17.513   8.321 -0.1845  0.2098  0.1579
 1187ERGO   ROH15205   5.361   8.082   9.195  0.0598  0.1266 -0.0904
 1187ERGO    R115206   5.310   8.119   8.919  0.0980 -0.0002 -0.1148
 1187ERGO    R215207   5.230   7.912   8.754  0.0429 -0.0607 -0.0145
 1187ERGO    R315208   5.025   8.081   8.696  0.1056 -0.0202 -0.1203
 1187ERGO    R415209   5.029   7.889   8.473 -0.0666 -0.2536  0.0766
 1187ERGO    R515210   5.036   8.107   8.458  0.0354 -0.2723 -0.1524
 1187ERGO    C115211   4.721   8.035   8.255 -0.0714 -0.3277  0.0304
 1187ERGO    C215212   4.517   7.900   7.981 -0.0661  0.3797  0.2335
 1188ERGO   ROH15213   2.184  11.838   9.531 -0.0356 -0.1868 -0.0465
 1188ERGO    R115214   2.047  11.925   9.299  0.0327  0.0049 -0.0162
 1188ERGO    R215215   2.164  12.089   9.111  0.2011 -0.1067 -0.0090
 1188ERGO    R315216   2.090  11.892   8.939 -0.0563  0.0013 -0.0271
 1188ERGO    R415217   2.050  12.140   8.789  0.2273  0.0759  0.0093
 1188ERGO    R515218   1.902  11.983   8.821  0.0374  0.2459  0.0042
 1188ERGO    C115219   1.914  11.985   8.440  0.0009  0.2834  0.0028
 1188ERGO    C215220   1.911  12.020   8.171  0.0506 -0.2608  0.0985
 1189ERGO   ROH15221   4.432   3.832  10.066  0.1125  0.0338 -0.0088
 1189ERGO    R115222   4.393   3.965   9.819  0.0056  0.0138 -0.0038
 1189ERGO    R215223   4.566   3.936   9.606 -0.0374  0.0660 -0.0470
 1189ERGO    R315224   4.339   3.869   9.472 -0.0487 -0.0152  0.0127
 1189ERGO    R415225   4.535   3.929   9.262 -0.1878  0.2777 -0.0391
 1189ERGO    R515226   4.336   4.016   9.283 -0.2466  0.1134  0.1126
 1189ERGO    C115227   4.303   3.862   8.936 -0.2861  0.3248  0.0212
 1189ERGO    C215228   4.261   3.608   8.617  0.0844 -0.3384 -0.0748
 1190ERGO   ROH15229   9.630  13.785   9.053  0.2763  0.1201  0.0780
 1190ERGO    R115230   9.704  13.731   8.785 -0.0428  0.0300  0.0037
 1190ERGO    R215231   9.528  13.756   8.574 -0.1648  0.4473  0.1460
 1190ERGO    R315232   9.722  13.917   8.473  0.0968  0.0761  0.0383
 1190ERGO    R415233   9.567  13.836   8.240 -0.1190  0.2683  0.1080
 1190ERGO    R515234   9.782  13.816   8.265 -0.1379 -0.1028  0.0524
 1190ERGO    C115235   9.772  14.033   7.951  0.1533 -0.1844 -0.0153
 1190ERGO    C215236   9.693  14.080   7.668  0.0964 -0.2798  0.2977
 1191ERGO   ROH15237   5.446  15.530   9.755 -0.0928 -0.2611  0.0221
 1191ERGO    R115238   5.449  15.465   9.480 -0.1033 -0.1844  0.0033
 1191ERGO    R215239   5.316  15.615   9.291 -0.0525 -0.0880  0.0385
 1191ERGO    R315240   5.560  15.623   9.172 -0.0433 -0.1292  0.0548
 1191ERGO    R415241   5.369  15.666   8.953 -0.0054 -0.0185  0.0561
 1191ERGO    R515242   5.527  15.516   8.960 -0.0544 -0.0628  0.0271
 1191ERGO    C115243   5.629  15.704   8.645  0.0307 -0.0170  0.0817
 1191ERGO    C215244   5.434  15.787   8.389  0.2289 -0.1743 -0.1279
 1192ERGO   ROH15245   5.294   5.147   6.184  0.2152 -0.1328 -0.1531
 1192ERGO    R115246   5.185   5.150   6.445  0.1718 -0.2215 -0.1704
 1192ERGO    R215247   5.301   5.013   6.656  0.2424 -0.1386 -0.1575
 1192ERGO    R315248   5.293   5.258   6.775  0.0378 -0.1465 -0.1499
 1192ERGO    R415249   5.373   5.073   6.989  0.1246 -0.0990 -0.1381
 1192ERGO    R515250   5.207   5.214   6.994  0.0186 -0.2183 -0.1702
 1192ERGO    C115251   5.408   5.337   7.294 -0.1360 -0.0832 -0.1196
 1192ERGO    C215252   5.420   5.385   7.628 -0.1630 -0.1512  0.0338
 1193ERGO   ROH15253   2.553   5.219   9.509  0.1251 -0.1527 -0.0017
 1193ERGO    R115254   2.430   5.221   9.254  0.0798 -0.0260  0.0204
 1193ERGO    R215255   2.546   5.339   9.033  0.0969 -0.0224  0.0307
 1193ERGO    R315256   2.507   5.094   8.922 -0.0400  0.0247 -0.0271
 1193ERGO    R415257   2.508   5.280   8.695  0.1398  0.0674  0.0098
 1193ERGO    R515258   2.353   5.134   8.742  0.0306  0.1617 -0.0574
 1193ERGO    C115259   2.450   5.016   8.393  0.0364  0.1639 -0.0567
 1193ERGO    C215260   2.604   5.187   8.069  0.1131  0.2097 -0.0694
 1194ERGO   ROH15261   1.890   7.197   9.557  0.1363 -0.2947 -0.1516
 1194ERGO    R115262   1.710   7.321   9.378  0.0339 -0.2594 -0.0249
 1194ERGO    R215263   1.764   7.562   9.255 -0.1401 -0.1147  0.1756
 1194ERGO    R315264   1.711   7.422   9.028 -0.0710  0.0446  0.0590
 1194ERGO    R415265   1.683   7.704   8.950  0.0379  0.1022  0.2264
 1194ERGO    R515266   1.535   7.546   8.922  0.0101  0.1575  0.0554
 1194ERGO    C115267   1.586   7.655   8.560  0.2065  0.3780  0.1466
 1194ERGO    C215268   1.668   7.721   8.182  0.0394 -0.0643 -0.1705
 1195ERGO   ROH15269   7.072   0.639   6.550  0.6100  0.2727  0.1290
 1195ERGO    R115270   6.949   0.605   6.803  0.5056 -0.0039  0.0444
 1195ERGO    R215271   7.092   0.537   7.029  0.4766  0.1458  0.1112
 1195ERGO    R315272   6.972   0.759   7.131  0.0617 -0.0699  0.1122
 1195ERGO    R415273   7.099   0.629   7.362  0.4339  0.2371  0.0867
 1195ERGO    R515274   6.889   0.688   7.345  0.2976 -0.1950  0.1640
 1195ERGO    C115275   6.990   0.891   7.652  0.0195  0.0877  0.0734
 1195ERGO    C215276   6.917   0.899   8.018 -0.0209  0.2774  0.0560
 1196ERGO   ROH15277  13.080  10.914  10.194 -0.0868  0.1161  0.0534
 1196ERGO    R115278  13.216  10.827   9.961 -0.1142  0.1317  0.0320
 1196ERGO    R215279  13.082  10.753   9.731 -0.1425  0.1096  0.0569
 1196ERGO    R315280  13.244  10.938   9.615 -0.1879  0.1300  0.0251
 1196ERGO    R415281  13.157  10.765   9.394 -0.3035  0.1897  0.0230
 1196ERGO    R515282  13.363  10.815   9.447 -0.2747  0.1654 -0.0631
 1196ERGO    C115283  13.352  10.946   9.089 -0.4398  0.2557 -0.0265
 1196ERGO    C215284  13.198  11.026   8.724  0.3896 -0.2431 -0.3267
 1197ERGO   ROH15285   9.867   8.203   9.672 -0.2707 -0.0007  0.0684
 1197ERGO    R115286   9.720   8.321   9.460 -0.1773 -0.0349 -0.0157
 1197ERGO    R215287   9.813   8.326   9.200 -0.0610 -0.0766  0.0248
 1197ERGO    R315288   9.573   8.209   9.146 -0.0383 -0.0856 -0.0635
 1197ERGO    R415289   9.719   8.198   8.893  0.1564 -0.3232  0.0570
 1197ERGO    R515290   9.520   8.281   8.924  0.1429 -0.2653 -0.1675
 1197ERGO    C115291   9.440   8.014   8.664  0.3042 -0.4752 -0.0071
 1197ERGO    C215292   9.431   7.998   8.393  0.2445 -0.0576 -0.1103
 1198ERGO   ROH15293   1.205   8.301   9.388 -0.1390 -0.1217  0.0040
 1198ERGO    R115294   1.062   8.278   9.144 -0.0028 -0.1831 -0.0709
 1198ERGO    R215295   1.076   8.469   8.946 -0.1532 -0.0680  0.0291
 1198ERGO    R315296   1.145   8.258   8.790  0.1828  0.0919 -0.0466
 1198ERGO    R415297   1.015   8.446   8.606 -0.3172 -0.1251  0.0616
 1198ERGO    R515298   0.964   8.236   8.635  0.1219 -0.2446  0.0616
 1198ERGO    C115299   1.046   8.233   8.263 -0.0973 -0.0082  0.0093
 1198ERGO    C215300   0.899   8.173   7.946 -0.0452  0.0383 -0.1598
 1199ERGO   ROH15301   1.851  17.827   6.145 -0.1131 -0.0698 -0.0303
 1199ERGO    R115302   2.031  17.752   6.349 -0.1046  0.0309  0.0005
 1199ERGO    R215303   1.997  17.826   6.613 -0.1745  0.0368 -0.0074
 1199ERGO    R315304   2.016  17.558   6.657 -0.0572  0.0490  0.0132
 1199ERGO    R415305   2.177  17.680   6.870 -0.0620  0.1269 -0.0348
 1199ERGO    R515306   2.242  17.526   6.730 -0.0313  0.1429 -0.0325
 1199ERGO    C115307   2.300  17.344   7.059  0.1136  0.1910 -0.0315
 1199ERGO    C215308   2.239  17.148   7.209  0.2212  0.1376  0.2440
 1200ERGO   ROH15309  16.424   5.007   5.980  0.0268 -0.2154  0.1394
 1200ERGO    R115310  16.430   5.183   6.202  0.0034 -0.1266  0.0702
 1200ERGO    R215311  16.424   5.093   6.463 -0.0079 -0.0230  0.1050
 1200ERGO    R315312  16.650   5.243   6.486 -0.0177 -0.0011  0.0611
 1200ERGO    R415313  16.588   5.159   6.760 -0.1422  0.2622  0.1194
 1200ERGO    R515314  16.621   5.363   6.691 -0.1115  0.1984 -0.0648
 1200ERGO    C115315  16.895   5.337   6.955 -0.2296  0.4489  0.0865
 1200ERGO    C215316  16.977   5.561   7.187  0.0670  0.0291  0.0782
 1201ERGO   ROH15317   1.876   3.294   6.390  0.0408  0.1089  0.1344
 1201ERGO    R115318   1.932   3.152   6.628 -0.2169  0.1021  0.1941
 1201ERGO    R215319   2.184   3.142   6.740 -0.1644 -0.4989  0.0697
 1201ERGO    R315320   2.054   3.232   6.961  0.1702 -0.0012  0.0797
 1201ERGO    R415321   2.279   3.074   7.065 -0.1380 -0.4369  0.0751
 1201ERGO    R515322   2.068   3.050   7.116 -0.1699  0.0976  0.2278
 1201ERGO    C115323   2.213   3.119   7.462  0.1916  0.0664  0.0876
 1201ERGO    C215324   2.470   3.213   7.701 -0.4033 -0.1376  0.5098
 1202ERGO   ROH15325   1.128  16.791   6.690 -0.1105  0.0945  0.0801
 1202ERGO    R115326   1.219  17.015   6.836 -0.1849  0.0872  0.1380
 1202ERGO    R215327   1.069  17.133   7.037 -0.1643 -0.1031  0.2670
 1202ERGO    R315328   1.294  17.091   7.185 -0.0624 -0.0247  0.1371
 1202ERGO    R415329   1.112  17.234   7.365  0.0146 -0.0283  0.2220
 1202ERGO    R515330   1.317  17.290   7.316 -0.0257  0.0076  0.0836
 1202ERGO    C115331   1.347  17.253   7.694  0.2144  0.0886  0.0740
 1202ERGO    C215332   1.411  17.398   7.943 -0.0422  0.0806 -0.2758
 1203ERGO   ROH15333   9.335   6.386   6.077 -0.0399 -0.1693  0.1384
 1203ERGO    R115334   9.436   6.505   6.313  0.0401 -0.1412  0.0912
 1203ERGO    R215335   9.296   6.697   6.455  0.1734  0.0223  0.0092
 1203ERGO    R315336   9.335   6.525   6.662  0.0443  0.0783  0.0799
 1203ERGO    R415337   9.259   6.778   6.789  0.2886  0.2006 -0.0204
 1203ERGO    R515338   9.436   6.659   6.832  0.1861  0.0607  0.0084
 1203ERGO    C115339   9.274   6.665   7.178  0.2345  0.3569  0.0287
 1203ERGO    C215340   9.070   6.844   7.573  0.2786 -0.2139 -0.1320
 1204ERGO   ROH15341  16.688   0.273  10.110 -0.3466  0.0580  0.0101
 1204ERGO    R115342  16.518   0.260   9.884 -0.3910  0.2963  0.0259
 1204ERGO    R215343  16.427   0.485   9.752  0.0134  0.4302 -0.0434
 1204ERGO    R315344  16.533   0.361   9.535 -0.2213  0.1559 -0.0080
 1204ERGO    R415345  16.439   0.620   9.435  0.0233  0.1896 -0.1472
 1204ERGO    R515346  16.389   0.424   9.354 -0.2323  0.1873  0.0140
 1204ERGO    C115347  16.547   0.583   9.045 -0.1915 -0.2079 -0.1744
 1204ERGO    C215348  16.835   0.604   8.796 -0.0792  0.0876  0.1361
 1205ERGO   ROH15349   1.851  15.354   9.727 -0.0873  0.0850 -0.1215
 1205ERGO    R115350   1.963  15.399   9.471 -0.1548  0.0966 -0.1505
 1205ERGO    R215351   2.129  15.216   9.347 -0.0490  0.1717 -0.1326
 1205ERGO    R315352   1.949  15.239   9.144 -0.1005  0.0037 -0.1062
 1205ERGO    R415353   2.208  15.205   9.010 -0.1077  0.1638 -0.1454
 1205ERGO    R515354   2.065  15.366   8.977 -0.2257  0.0515 -0.1519
 1205ERGO    C115355   2.085  15.221   8.624 -0.1902  0.0016 -0.1280
 1205ERGO    C215356   2.354  15.130   8.393  0.3865  0.2313  0.2181
 1206ERGO   ROH15357  15.919   7.830   9.500 -0.1392  0.0028 -0.0712
 1206ERGO    R115358  16.044   7.836   9.246 -0.1084  0.0654 -0.0541
 1206ERGO    R215359  15.924   7.733   9.019 -0.0215 -0.0053 -0.0653
 1206ERGO    R315360  15.974   7.982   8.920 -0.1438  0.0193 -0.0681
 1206ERGO    R415361  15.954   7.810   8.683  0.0245 -0.0142 -0.0638
 1206ERGO    R515362  16.119   7.944   8.734 -0.0673  0.0907 -0.0262
 1206ERGO    C115363  16.018   8.089   8.395 -0.0636  0.0037 -0.0657
 1206ERGO    C215364  15.806   8.347   8.240  0.4278 -0.1799  0.0514
 1207ERGO   ROH15365  10.018  12.914   9.032 -0.0468  0.1180 -0.0517
 1207ERGO    R115366  10.125  12.915   8.770 -0.0925  0.1727 -0.0699
 1207ERGO    R215367  10.128  12.689   8.610  0.0298  0.1656 -0.0542
 1207ERGO    R315368  10.000  12.851   8.434 -0.1085  0.0687 -0.0455
 1207ERGO    R415369  10.196  12.705   8.272  0.1373  0.3583 -0.0255
 1207ERGO    R515370  10.172  12.921   8.282 -0.1338  0.3311  0.0393
 1207ERGO    C115371  10.115  12.867   7.909  0.0700  0.3796 -0.0007
 1207ERGO    C215372  10.133  12.720   7.613 -0.0291  0.1932 -0.0581
 1208ERGO   ROH15373   3.175  16.192   8.287  0.1236 -0.1745  0.1232
 1208ERGO    R115374   3.411  16.304   8.177  0.0922 -0.1012  0.1299
 1208ERGO    R215375   3.656  16.287   8.303  0.1037 -0.0686  0.1130
 1208ERGO    R315376   3.735  16.182   8.065  0.1134 -0.0079  0.0892
 1208ERGO    R415377   3.978  16.184   8.231  0.0547 -0.2729  0.1809
 1208ERGO    R515378   3.955  16.270   8.032  0.1932 -0.1549  0.2160
 1208ERGO    C115379   4.239  16.024   7.965  0.0351 -0.3349  0.1982
 1208ERGO    C215380   4.530  15.834   7.782  0.0911  0.0580 -0.0499
 1209ERGO   ROH15381   0.849   3.990   9.956  0.0910 -0.0510  0.0704
 1209ERGO    R115382   0.801   4.086   9.694  0.1979 -0.1776  0.0032
 1209ERGO    R215383   0.961   4.020   9.478  0.1182 -0.5180  0.0437
 1209ERGO    R315384   0.725   3.941   9.369  0.0212 -0.3214  0.1072
 1209ERGO    R415385   0.880   4.045   9.143 -0.0233 -0.3019  0.0915
 1209ERGO    R515386   0.679   4.106   9.201  0.0405 -0.2110  0.2110
 1209ERGO    C115387   0.611   3.986   8.846 -0.1967  0.0087  0.1789
 1209ERGO    C215388   0.485   3.972   8.455 -0.1817 -0.1191 -0.2882
 1210ERGO   ROH15389   8.555   0.042   9.884  0.1777  0.1469  0.0293
 1210ERGO    R115390   8.406  -0.101   9.691  0.0487  0.0740  0.1812
 1210ERGO    R215391   8.138  -0.052   9.645  0.0880  0.2542  0.1453
 1210ERGO    R315392   8.221  -0.021   9.388  0.1039 -0.0792  0.1058
 1210ERGO    R415393   7.948   0.083   9.390  0.2054  0.2022  0.0286
 1210ERGO    R515394   8.027  -0.069   9.256  0.0438 -0.0124  0.1676
 1210ERGO    C115395   7.915   0.191   9.000  0.2887 -0.1410 -0.0764
 1210ERGO    C215396   7.677   0.193   8.666 -0.0960  0.1424  0.1184
 1211ERGO   ROH15397   3.523  12.569   6.307 -0.1080 -0.1631  0.1424
 1211ERGO    R115398   3.510  12.701   6.557 -0.0106 -0.1256  0.1289
 1211ERGO    R215399   3.273  12.739   6.693  0.0111  0.0750  0.1223
 1211ERGO    R315400   3.407  12.617   6.896 -0.0857 -0.0123  0.1337
 1211ERGO    R415401   3.259  12.834   7.025 -0.0353  0.0127  0.1375
 1211ERGO    R515402   3.473  12.797   7.040 -0.0560 -0.0681  0.1854
 1211ERGO    C115403   3.377  12.775   7.408 -0.1531 -0.1055  0.1571
 1211ERGO    C215404   3.562  12.807   7.636  0.0301  0.0933 -0.2739
 1212ERGO   ROH15405  13.228  10.749   6.508 -0.1652  0.2035  0.0460
 1212ERGO    R115406  13.210  10.592   6.743 -0.1738  0.0931 -0.0279
 1212ERGO    R215407  13.388  10.617   6.954 -0.1291 -0.0679 -0.0472
 1212ERGO    R315408  13.161  10.654   7.098 -0.0915 -0.0673  0.0123
 1212ERGO    R415409  13.366  10.593   7.298 -0.0198  0.0120 -0.0341
 1212ERGO    R515410  13.175  10.492   7.274 -0.0128 -0.0237  0.0478
 1212ERGO    C115411  13.140  10.614   7.634  0.0791  0.0591  0.0293
 1212ERGO    C215412  13.198  10.453   7.904  0.0485  0.1677 -0.2657
 1213ERGO   ROH15413  15.913  14.981   9.336 -0.1644 -0.0555 -0.0703
 1213ERGO    R115414  16.002  15.091   9.091  0.0057 -0.0885 -0.0254
 1213ERGO    R215415  16.218  14.989   8.951  0.0201 -0.1934  0.0670
 1213ERGO    R315416  16.038  14.977   8.747  0.1045 -0.0915 -0.0135
 1213ERGO    R415417  16.300  14.990   8.615  0.1497  0.0594  0.0979
 1213ERGO    R515418  16.130  15.121   8.579  0.1370  0.0452  0.1224
 1213ERGO    C115419  16.181  14.979   8.228  0.3045  0.3023  0.0406
 1213ERGO    C215420  16.190  15.128   7.941 -0.0507  0.0745  0.3199
 1214ERGO   ROH15421  16.673  17.089   6.202 -0.1948  0.0734  0.0103
 1214ERGO    R115422  16.498  17.157   6.413 -0.0887  0.0331  0.1127
 1214ERGO    R215423  16.377  16.967   6.574 -0.0469 -0.0004  0.1061
 1214ERGO    R315424  16.489  17.113   6.775  0.0686 -0.0840  0.1028
 1214ERGO    R415425  16.274  16.961   6.904 -0.2486  0.3078  0.0534
 1214ERGO    R515426  16.304  17.177   6.912  0.0854  0.2699 -0.0293
 1214ERGO    C115427  16.319  17.093   7.284 -0.2576  0.4089  0.0195
 1214ERGO    C215428  16.132  16.873   7.546  0.0464 -0.0983 -0.1344
 1215ERGO   ROH15429   1.784  15.986   6.535 -0.1557 -0.1906 -0.1300
 1215ERGO    R115430   1.703  15.967   6.805 -0.1306 -0.0806 -0.1147
 1215ERGO    R215431   1.769  16.158   6.994 -0.1807  0.0377 -0.2161
 1215ERGO    R315432   1.500  16.164   7.035 -0.1805 -0.0313 -0.2007
 1215ERGO    R415433   1.616  16.241   7.293 -0.1839 -0.1465 -0.1652
 1215ERGO    R515434   1.471  16.081   7.258 -0.1569 -0.1540 -0.2427
 1215ERGO    C115435   1.275  16.295   7.505 -0.1855 -0.3185 -0.1209
 1215ERGO    C215436   1.139  16.607   7.687  0.2539 -0.0817 -0.3772
 1216ERGO   ROH15437  16.627   4.019   6.332 -0.3847  0.1518 -0.0714
 1216ERGO    R115438  16.669   4.031   6.611 -0.1048  0.1495 -0.1112
 1216ERGO    R215439  16.714   4.269   6.745 -0.0038  0.1479 -0.1504
 1216ERGO    R315440  16.504   4.186   6.897  0.1611  0.1168  0.0642
 1216ERGO    R415441  16.699   4.289   7.090  0.1839  0.5152 -0.1581
 1216ERGO    R515442  16.606   4.093   7.092  0.3667  0.4255  0.1139
 1216ERGO    C115443  16.494   4.223   7.433  0.4482  0.6997  0.0389
 1216ERGO    C215444  16.425   4.418   7.740 -0.0629 -0.0335  0.2654
 1217ERGO   ROH15445  12.556   6.744   9.541 -0.1173  0.0747  0.0133
 1217ERGO    R115446  12.422   6.804   9.298 -0.0306  0.2152 -0.0019
 1217ERGO    R215447  12.441   7.050   9.175  0.2826  0.1862 -0.0293
 1217ERGO    R315448  12.518   6.902   8.961  0.1153  0.0629 -0.0048
 1217ERGO    R415449  12.501   7.176   8.859  0.1247  0.0119 -0.1296
 1217ERGO    R515450  12.403   7.000   8.776  0.0310 -0.0017  0.0162
 1217ERGO    C115451  12.609   7.109   8.473 -0.1241 -0.2052 -0.1648
 1217ERGO    C215452  12.550   7.070   8.104  0.0616 -0.0838  0.0962
 1218ERGO   ROH15453   3.438  12.769   9.542 -0.1790 -0.0155 -0.1603
 1218ERGO    R115454   3.484  12.689   9.274  0.1529  0.0395 -0.1246
 1218ERGO    R215455   3.310  12.750   9.068  0.1515 -0.3318 -0.2485
 1218ERGO    R315456   3.533  12.855   8.954  0.0260  0.1055 -0.1082
 1218ERGO    R415457   3.349  12.815   8.731  0.2993 -0.3996 -0.2444
 1218ERGO    R515458   3.553  12.742   8.745  0.4534  0.0507 -0.0412
 1218ERGO    C115459   3.581  12.952   8.428  0.2676 -0.0286 -0.1104
 1218ERGO    C215460   3.564  13.030   8.080  0.0009  0.2064  0.0986
 1219ERGO   ROH15461  15.140   0.779   6.838  0.2907  0.0969  0.2687
 1219ERGO    R115462  15.061   0.786   7.109  0.0468  0.1253  0.1995
 1219ERGO    R215463  14.828   0.908   7.194 -0.0747  0.0510 -0.0334
 1219ERGO    R315464  14.781   0.665   7.307 -0.0822  0.0588 -0.0185
 1219ERGO    R415465  14.703   0.859   7.512 -0.0562  0.0866 -0.0205
 1219ERGO    R515466  14.842   0.693   7.537 -0.0611  0.0741 -0.0216
 1219ERGO    C115467  14.585   0.604   7.804 -0.0524  0.1148  0.0009
 1219ERGO    C215468  14.535   0.445   8.052 -0.0923 -0.0520 -0.2619
 1220ERGO   ROH15469  10.289   3.586  10.009  0.1134  0.2047 -0.1034
 1220ERGO    R115470  10.378   3.611   9.741 -0.0051  0.0491 -0.1598
 1220ERGO    R215471  10.349   3.409   9.555 -0.1011 -0.0579 -0.0368
 1220ERGO    R315472  10.226   3.605   9.411 -0.1565 -0.1301 -0.0869
 1220ERGO    R415473  10.331   3.419   9.210 -0.0908 -0.1327 -0.0391
 1220ERGO    R515474  10.366   3.634   9.219 -0.1616 -0.1240 -0.0853
 1220ERGO    C115475  10.206   3.608   8.874 -0.1368 -0.2441 -0.0877
 1220ERGO    C215476  10.298   3.473   8.522 -0.1130 -0.0319 -0.1188
 1221ERGO   ROH15477  15.325   4.390   9.831  0.1305 -0.2017  0.3003
 1221ERGO    R115478  15.285   4.395   9.550 -0.0305 -0.0479  0.3230
 1221ERGO    R215479  15.397   4.588   9.387 -0.1060  0.0308  0.3591
 1221ERGO    R315480  15.495   4.372   9.253 -0.2018  0.0912  0.1901
 1221ERGO    R415481  15.450   4.573   9.046 -0.1147  0.2720  0.3462
 1221ERGO    R515482  15.373   4.369   9.047 -0.2032  0.3043  0.1876
 1221ERGO    C115483  15.572   4.361   8.722 -0.2099  0.4692  0.1800
 1221ERGO    C215484  15.623   4.547   8.349 -0.0997 -0.0620 -0.0611
 1222ERGO   ROH15485   1.735  12.633   9.773  0.1702  0.1884  0.0967
 1222ERGO    R115486   1.613  12.671   9.521  0.0100  0.1514  0.1673
 1222ERGO    R215487   1.567  12.923   9.415  0.1613  0.1348  0.0552
 1222ERGO    R315488   1.704  12.823   9.203 -0.0922 -0.1211  0.0053
 1222ERGO    R415489   1.545  13.042   9.091  0.1185  0.0410  0.0233
 1222ERGO    R515490   1.550  12.836   9.020 -0.1870  0.0058  0.0942
 1222ERGO    C115491   1.662  13.017   8.704 -0.1443 -0.2539 -0.0420
 1222ERGO    C215492   1.726  12.993   8.427  0.3887  0.2389 -0.2264
 1223ERGO   ROH15493   1.019   2.368   9.724 -0.0350  0.1652 -0.0395
 1223ERGO    R115494   0.837   2.396   9.510  0.0034  0.2500 -0.0607
 1223ERGO    R215495   0.848   2.605   9.330  0.2352  0.1458 -0.1657
 1223ERGO    R315496   0.854   2.405   9.146  0.0289  0.0447 -0.0671
 1223ERGO    R415497   0.796   2.647   8.991  0.4137  0.0630 -0.2051
 1223ERGO    R515498   0.681   2.461   8.991  0.1560  0.2133 -0.1556
 1223ERGO    C115499   0.771   2.483   8.621  0.3239 -0.0801 -0.1356
 1223ERGO    C215500   0.747   2.500   8.221 -0.2631 -0.2457  0.1969
 1224ERGO   ROH15501  16.290   5.502   9.699  0.0478 -0.0770 -0.0821
 1224ERGO    R115502  16.252   5.341   9.470  0.0940 -0.0277 -0.1247
 1224ERGO    R215503  16.058   5.394   9.281  0.1210  0.0029 -0.1433
 1224ERGO    R315504  16.268   5.385   9.109  0.1485  0.0545 -0.1125
 1224ERGO    R415505  16.032   5.403   8.936  0.1740  0.0942 -0.1451
 1224ERGO    R515506  16.190   5.253   8.925  0.1802  0.1009 -0.1603
 1224ERGO    C115507  16.214   5.401   8.574  0.2309  0.1957 -0.1173
 1224ERGO    C215508  16.290   5.340   8.240  0.2516  0.2788  0.1537
 1225ERGO   ROH15509  13.196  13.563   6.418 -0.1261 -0.0739 -0.0129
 1225ERGO    R115510  13.254  13.532   6.693 -0.0212 -0.0009 -0.0262
 1225ERGO    R215511  13.325  13.745   6.855 -0.0275  0.0528 -0.0950
 1225ERGO    R315512  13.117  13.656   7.007  0.0513  0.0228 -0.0036
 1225ERGO    R415513  13.260  13.846   7.179  0.1649 -0.0391 -0.0264
 1225ERGO    R515514  13.209  13.640   7.228  0.1769 -0.0509 -0.0590
 1225ERGO    C115515  13.028  13.822   7.510  0.3509 -0.1208  0.0993
 1225ERGO    C215516  12.916  14.001   7.746 -0.0997  0.0497  0.2246
 1226ERGO   ROH15517  17.518   4.424   9.869 -0.2135 -0.0482  0.0033
 1226ERGO    R115518  17.627   4.272   9.656 -0.2140 -0.1861  0.1017
 1226ERGO    R215519  17.471   4.168   9.454 -0.1717 -0.0266 -0.0084
 1226ERGO    R315520  17.647   4.300   9.294  0.1053 -0.2367  0.1113
 1226ERGO    R415521  17.516   4.106   9.116 -0.3102  0.1754 -0.0666
 1226ERGO    R515522  17.731   4.132   9.146 -0.2430 -0.2913 -0.0403
 1226ERGO    C115523  17.708   4.195   8.770 -0.1308  0.0957  0.0118
 1226ERGO    C215524  17.806   4.100   8.392  0.0391  0.0376 -0.2765
 1227ERGO   ROH15525  16.744   9.242   6.245  0.3040  0.1560  0.0201
 1227ERGO    R115526  16.917   9.165   6.456  0.1366  0.1838  0.1703
 1227ERGO    R215527  16.847   9.191   6.722 -0.2091 -0.0714  0.1134
 1227ERGO    R315528  16.909   8.926   6.731  0.0489 -0.0221 -0.0074
 1227ERGO    R415529  16.940   9.018   7.007 -0.3559 -0.1792  0.0970
 1227ERGO    R515530  17.089   8.912   6.889 -0.1100  0.0509  0.1845
 1227ERGO    C115531  17.052   8.670   7.181 -0.1994 -0.1957 -0.0258
 1227ERGO    C215532  16.901   8.599   7.454  0.1306 -0.1122  0.1114
 1228ERGO   ROH15533  14.199   5.623   6.507 -0.2008 -0.1537 -0.0553
 1228ERGO    R115534  14.062   5.536   6.739 -0.1158 -0.2289 -0.0324
 1228ERGO    R215535  14.125   5.301   6.869  0.0757 -0.1655 -0.0057
 1228ERGO    R315536  14.148   5.464   7.085 -0.0313 -0.1185 -0.0301
 1228ERGO    R415537  14.095   5.199   7.198 -0.1447 -0.0844 -0.0001
 1228ERGO    R515538  13.984   5.382   7.239 -0.1409 -0.0561 -0.1117
 1228ERGO    C115539  14.098   5.294   7.593 -0.3734  0.0068 -0.0196
 1228ERGO    C215540  14.220   5.173   7.949 -0.2538  0.3017  0.1519
 1229ERGO   ROH15541  11.230   4.528   9.861  0.2453  0.2381  0.0136
 1229ERGO    R115542  11.384   4.550   9.624  0.1419  0.1845 -0.0596
 1229ERGO    R215543  11.346   4.385   9.406  0.1043  0.0777  0.0284
 1229ERGO    R315544  11.321   4.620   9.273 -0.0239  0.0118 -0.0662
 1229ERGO    R415545  11.501   4.460   9.106  0.0549  0.0349 -0.0080
 1229ERGO    R515546  11.538   4.661   9.181 -0.0465  0.0872 -0.0901
 1229ERGO    C115547  11.567   4.724   8.806 -0.0942 -0.0520 -0.1181
 1229ERGO    C215548  11.563   4.956   8.556 -0.0289 -0.1891  0.2783
 1230ERGO   ROH15549  11.337   7.455   9.898  0.0181  0.3123  0.2345
 1230ERGO    R115550  11.497   7.576   9.698 -0.0358  0.4079  0.2489
 1230ERGO    R215551  11.726   7.719   9.757  0.1851  0.0732  0.2374
 1230ERGO    R315552  11.840   7.547   9.580 -0.1729  0.1783 -0.1118
 1230ERGO    R415553  11.996   7.794   9.555  0.3017 -0.0592  0.3427
 1230ERGO    R515554  11.900   7.685   9.394  0.0594  0.4289  0.1382
 1230ERGO    C115555  12.261   7.676   9.272  0.0336 -0.0378  0.0762
 1230ERGO    C215556  12.407   7.687   8.913  0.1146  0.0494  0.1833
 1231ERGO   ROH15557   3.876   1.589   6.514  0.2011 -0.0441  0.0426
 1231ERGO    R115558   3.798   1.490   6.767  0.0609 -0.1177 -0.0283
 1231ERGO    R215559   3.891   1.250   6.869  0.1720 -0.0469  0.0440
 1231ERGO    R315560   3.962   1.406   7.080 -0.1393  0.0085  0.1122
 1231ERGO    R415561   3.931   1.137   7.193  0.1550 -0.0523  0.0441
 1231ERGO    R515562   3.834   1.319   7.263 -0.1203 -0.1914  0.0305
 1231ERGO    C115563   4.021   1.216   7.580 -0.1470 -0.0034  0.1083
 1231ERGO    C215564   4.251   1.382   7.847  0.1893  0.1647  0.0654
 1232ERGO   ROH15565  16.634   2.366   9.442  0.1687  0.4034  0.0700
 1232ERGO    R115566  16.711   2.481   9.195  0.1992  0.0839 -0.0747
 1232ERGO    R215567  16.837   2.336   8.996 -0.1554 -0.2841 -0.0469
 1232ERGO    R315568  16.632   2.429   8.844 -0.1100 -0.0784  0.0158
 1232ERGO    R415569  16.810   2.294   8.654 -0.3204 -0.2827 -0.0347
 1232ERGO    R515570  16.736   2.499   8.640 -0.1079 -0.2059 -0.0251
 1232ERGO    C115571  16.602   2.357   8.312 -0.3742 -0.0888  0.0314
 1232ERGO    C215572  16.536   2.194   8.079 -0.1546  0.3459  0.4045
 1233ERGO   ROH15573   8.774   6.946   9.649  0.0724  0.1122 -0.0038
 1233ERGO    R115574   8.801   6.975   9.368  0.2140 -0.3756 -0.0519
 1233ERGO    R215575   8.828   7.222   9.246 -0.5776 -0.4844 -0.5429
 1233ERGO    R315576   9.051   7.108   9.140 -0.0388  0.0713 -0.0721
 1233ERGO    R415577   8.964   7.302   8.939 -0.2995 -0.3970 -0.3974
 1233ERGO    R515578   9.004   7.091   8.906  0.4004 -0.3172 -0.1348
 1233ERGO    C115579   9.253   7.243   8.661  0.3683  0.1755  0.1291
 1233ERGO    C215580   9.427   7.520   8.458 -0.3249 -0.0085  0.2786
 1234ERGO   ROH15581   4.796   0.416  10.103  0.1673  0.0775  0.1834
 1234ERGO    R115582   4.762   0.633   9.924  0.1230  0.0352  0.1426
 1234ERGO    R215583   4.972   0.745   9.783  0.0842  0.0006  0.0690
 1234ERGO    R315584   4.813   0.693   9.569  0.0340 -0.0423  0.1145
 1234ERGO    R415585   4.944   0.946   9.504  0.3048 -0.2283 -0.1239
 1234ERGO    R515586   4.730   0.907   9.502  0.2567 -0.0102 -0.0885
 1234ERGO    C115587   4.779   1.014   9.140  0.3860 -0.4019 -0.1935
 1234ERGO    C215588   4.600   1.128   8.908  0.0421  0.1543 -0.4600
 1235ERGO   ROH15589  17.792   0.346   6.582  0.0324  0.2472  0.0044
 1235ERGO    R115590  17.856   0.290   6.852  0.2032  0.3426 -0.0144
 1235ERGO    R215591  17.942   0.485   7.028 -0.0873  0.4911 -0.0261
 1235ERGO    R315592  17.735   0.394   7.179  0.1033  0.1187  0.0209
 1235ERGO    R415593  17.893   0.562   7.361 -0.2467  0.5472 -0.0623
 1235ERGO    R515594  17.832   0.355   7.395  0.1942  0.4276  0.0380
 1235ERGO    C115595  17.670   0.522   7.697 -0.1606  0.2303 -0.0392
 1235ERGO    C215596  17.730   0.576   7.978  0.2114 -0.0748 -0.2246
 1236ERGO   ROH15597   8.234   0.991   9.769 -0.1451  0.0087  0.0907
 1236ERGO    R115598   8.024   0.951   9.584 -0.1822  0.1292  0.1052
 1236ERGO    R215599   7.837   1.146   9.526  0.0388  0.3098 -0.0288
 1236ERGO    R315600   7.916   1.100   9.270  0.0071  0.0563  0.0050
 1236ERGO    R415601   7.656   1.230   9.244  0.1201  0.2513 -0.0985
 1236ERGO    R515602   7.716   1.041   9.155 -0.0354  0.1379  0.0419
 1236ERGO    C115603   7.626   1.235   8.839  0.1376 -0.0207 -0.1073
 1236ERGO    C215604   7.767   1.328   8.465 -0.2058  0.0507  0.1692
 1237ERGO   ROH15605   3.557   9.616   9.442 -0.0195 -0.0219  0.0067
 1237ERGO    R115606   3.554   9.491   9.188 -0.2530 -0.0189  0.0073
 1237ERGO    R215607   3.332   9.495   9.023 -0.2464  0.4022  0.0072
 1237ERGO    R315608   3.509   9.595   8.842 -0.0498  0.0676  0.0040
 1237ERGO    R415609   3.326   9.431   8.683 -0.3462  0.3613  0.0155
 1237ERGO    R515610   3.543   9.417   8.687 -0.3598 -0.0260  0.0301
 1237ERGO    C115611   3.489   9.488   8.316 -0.2198  0.0233  0.0174
 1237ERGO    C215612   3.584   9.695   8.125  0.2082  0.0242  0.1877
 1238ERGO   ROH15613   6.544  11.253   9.414 -0.1330  0.1734  0.2497
 1238ERGO    R115614   6.471  11.182   9.150 -0.2664  0.0882  0.3075
 1238ERGO    R215615   6.297  11.334   8.998 -0.1716  0.1625  0.2642
 1238ERGO    R315616   6.501  11.329   8.818 -0.2172 -0.1250  0.2171
 1238ERGO    R415617   6.271  11.432   8.667 -0.1440  0.0434  0.2274
 1238ERGO    R515618   6.397  11.262   8.613 -0.3306 -0.1089  0.2715
 1238ERGO    C115619   6.447  11.484   8.306 -0.1708 -0.2958  0.1617
 1238ERGO    C215620   6.358  11.602   8.029  0.1356 -0.0683  0.3522
 1239ERGO   ROH15621   6.192  12.309   6.130 -0.1510 -0.0051  0.2556
 1239ERGO    R115622   6.178  12.254   6.407 -0.0547 -0.0972  0.2424
 1239ERGO    R215623   6.152  11.998   6.507  0.0318 -0.1332  0.1678
 1239ERGO    R315624   6.374  12.066   6.650  0.0596 -0.1326  0.1247
 1239ERGO    R415625   6.236  11.867   6.816  0.1263 -0.1889  0.1193
 1239ERGO    R515626   6.300  12.066   6.878  0.1154 -0.1910  0.1449
 1239ERGO    C115627   6.493  11.855   7.130  0.2074 -0.2209  0.0505
 1239ERGO    C215628   6.573  11.682   7.488  0.1411  0.0825  0.3260
 1240ERGO   ROH15629   0.878  11.241   9.690 -0.1126 -0.1484 -0.0257
 1240ERGO    R115630   1.039  11.142   9.478 -0.1159 -0.0352 -0.0810
 1240ERGO    R215631   1.075  10.872   9.433  0.0368 -0.0083 -0.1093
 1240ERGO    R315632   0.989  10.936   9.183 -0.0772 -0.0465 -0.0805
 1240ERGO    R415633   1.220  10.762   9.139 -0.0547 -0.0031 -0.1572
 1240ERGO    R515634   1.189  10.960   9.055 -0.1308 -0.0143 -0.1619
 1240ERGO    C115635   1.223  10.757   8.734 -0.2149 -0.0359 -0.1581
 1240ERGO    C215636   1.249  10.728   8.477  0.0814  0.0631 -0.2321
 1241ERGO   ROH15637  17.876   9.029   9.944  0.1100 -0.0885 -0.0454
 1241ERGO    R115638  17.890   8.990   9.664 -0.0909 -0.1060 -0.0542
 1241ERGO    R215639  17.711   8.832   9.526 -0.2457 -0.0353  0.0722
 1241ERGO    R315640  17.678   9.056   9.376 -0.2531 -0.0302  0.0796
 1241ERGO    R415641  17.631   8.834   9.189 -0.1543 -0.0366  0.0496
 1241ERGO    R515642  17.771   8.999   9.163 -0.1789 -0.0005  0.0998
 1241ERGO    C115643  17.554   9.046   8.853 -0.1077 -0.0327  0.0436
 1241ERGO    C215644  17.484   9.160   8.565  0.0936  0.3130 -0.1984
 1242ERGO   ROH15645   4.975  11.960   6.356 -0.0774 -0.1416 -0.1815
 1242ERGO    R115646   5.002  12.135   6.577 -0.0927 -0.0822 -0.2263
 1242ERGO    R215647   4.790  12.201   6.741 -0.1009 -0.0526 -0.2467
 1242ERGO    R315648   4.956  12.115   6.937 -0.0985  0.0077 -0.2221
 1242ERGO    R415649   4.747  12.263   7.078 -0.0935  0.0487 -0.2641
 1242ERGO    R515650   4.962  12.295   7.095 -0.0952  0.0538 -0.2766
 1242ERGO    C115651   4.879  12.217   7.459 -0.0869  0.1644 -0.2510
 1242ERGO    C215652   4.624  12.342   7.648  0.3706 -0.1633  0.0789
 1243ERGO   ROH15653  14.123  18.357   6.337  0.0036 -0.1225  0.0286
 1243ERGO    R115654  14.071  18.258   6.597 -0.0242 -0.1934 -0.0036
 1243ERGO    R215655  14.213  18.048   6.706  0.0088 -0.1755 -0.0197
 1243ERGO    R315656  14.256  18.224   6.909 -0.0830 -0.2115  0.0313
 1243ERGO    R415657  14.352  17.966   7.012 -0.0134 -0.2208 -0.0224
 1243ERGO    R515658  14.207  18.099   7.107 -0.0775 -0.2881 -0.0098
 1243ERGO    C115659  14.474  18.084   7.380 -0.1127 -0.2811  0.0239
 1243ERGO    C215660  14.680  18.049   7.643  0.2549  0.0577 -0.2066
 1244ERGO   ROH15661   7.964   4.410   6.293  0.1478  0.1909 -0.1941
 1244ERGO    R115662   8.095   4.529   6.514  0.0331  0.1802 -0.1191
 1244ERGO    R215663   7.974   4.722   6.672 -0.1417 -0.0049 -0.0181
 1244ERGO    R315664   8.039   4.550   6.873 -0.0122 -0.0646 -0.1102
 1244ERGO    R415665   7.991   4.806   7.007  0.0360 -0.1145  0.0015
 1244ERGO    R515666   8.169   4.682   7.025  0.0584 -0.1024 -0.1385
 1244ERGO    C115667   8.061   4.694   7.390  0.2611 -0.2344 -0.0735
 1244ERGO    C215668   7.982   4.727   7.699 -0.1391  0.2763 -0.2567
 1245ERGO   ROH15669   3.495   1.754  10.122 -0.2250 -0.2238 -0.0042
 1245ERGO    R115670   3.614   1.648   9.887 -0.1291 -0.1717  0.0199
 1245ERGO    R215671   3.486   1.465   9.724 -0.0943 -0.0819 -0.1161
 1245ERGO    R315672   3.541   1.648   9.531  0.0564 -0.0231 -0.0190
 1245ERGO    R415673   3.483   1.400   9.385 -0.0257  0.0797 -0.1484
 1245ERGO    R515674   3.661   1.524   9.365  0.0407 -0.0043 -0.0396
 1245ERGO    C115675   3.533   1.534   9.006  0.1557  0.2290 -0.0760
 1245ERGO    C215676   3.623   1.588   8.587  0.1663  0.0628 -0.2506
 1246ERGO   ROH15677   8.102  17.944   6.601  0.0103 -0.0617 -0.1109
 1246ERGO    R115678   8.137  17.829   6.857 -0.1141 -0.0802 -0.1024
 1246ERGO    R215679   8.150  17.982   7.088  0.0066 -0.0794 -0.1133
 1246ERGO    R315680   7.950  17.817   7.169 -0.1506  0.1061 -0.1148
 1246ERGO    R415681   8.030  17.961   7.411  0.1598 -0.1397 -0.0584
 1246ERGO    R515682   8.016  17.745   7.387 -0.1125 -0.1158 -0.1940
 1246ERGO    C115683   7.772  17.795   7.676  0.1013 -0.0008 -0.0279
 1246ERGO    C215684   7.547  17.890   7.899 -0.3260  0.3805 -0.1874
 1247ERGO   ROH15685   4.759   3.564   6.505  0.0995 -0.0039 -0.0159
 1247ERGO    R115686   4.698   3.637   6.772  0.0388 -0.0666 -0.0124
 1247ERGO    R215687   4.861   3.570   6.986  0.0295 -0.0514 -0.0005
 1247ERGO    R315688   4.853   3.838   7.033 -0.0606 -0.0610  0.0424
 1247ERGO    R415689   4.794   3.715   7.293  0.0453 -0.1224  0.0367
 1247ERGO    R515690   4.675   3.865   7.190 -0.0350 -0.1517  0.0876
 1247ERGO    C115691   4.748   4.050   7.516 -0.0300 -0.1728  0.0987
 1247ERGO    C215692   4.772   3.952   7.773 -0.1190 -0.1250 -0.0760
 1248ERGO   ROH15693  18.107  17.316   9.820  0.0450 -0.0174  0.0882
 1248ERGO    R115694  18.040  17.385   9.554 -0.1543  0.1013  0.1663
 1248ERGO    R215695  18.125  17.238   9.336  0.0729  0.4500  0.0055
 1248ERGO    R315696  17.859  17.231   9.279  0.0610  0.0031  0.0789
 1248ERGO    R415697  17.992  17.238   9.017 -0.0244  0.5006  0.0459
 1248ERGO    R515698  17.836  17.374   9.087 -0.2652  0.1441  0.2188
 1248ERGO    C115699  17.665  17.232   8.777 -0.0920  0.1106  0.1383
 1248ERGO    C215700  17.627  17.200   8.353 -0.1795 -0.2241 -0.0931
 1249ERGO   ROH15701   7.699  12.676   9.238  0.1460  0.0688 -0.1898
 1249ERGO    R115702   7.795  12.545   9.006  0.0926  0.0568 -0.2043
 1249ERGO    R215703   7.805  12.668   8.759  0.2684  0.1253 -0.1605
 1249ERGO    R315704   8.066  12.592   8.768  0.2013 -0.1104 -0.1172
 1249ERGO    R415705   7.999  12.599   8.482  0.3631  0.3727 -0.1588
 1249ERGO    R515706   8.086  12.431   8.591  0.1586  0.1287 -0.3497
 1249ERGO    C115707   8.357  12.488   8.328  0.3551  0.2957 -0.1172
 1249ERGO    C215708   8.613  12.431   8.130 -0.0004  0.0838 -0.2238
 1250ERGO   ROH15709   5.056   7.784   9.474  0.0292  0.0048 -0.0141
 1250ERGO    R115710   4.945   7.826   9.217  0.0084 -0.0126 -0.0076
 1250ERGO    R215711   4.969   7.641   9.013 -0.0209 -0.0326  0.0080
 1250ERGO    R315712   4.698   7.661   9.006 -0.0206 -0.0174  0.0299
 1250ERGO    R415713   4.771   7.547   8.746 -0.0365  0.1237 -0.0372
 1250ERGO    R515714   4.648   7.724   8.781 -0.0276  0.1104  0.0661
 1250ERGO    C115715   4.400   7.510   8.585 -0.0453  0.2291 -0.0431
 1250ERGO    C215716   4.063   7.512   8.387 -0.1320  0.0957  0.1075
 1251ERGO   ROH15717   3.296  11.743   9.582 -0.2136 -0.0863  0.1271
 1251ERGO    R115718   3.220  11.683   9.315 -0.2999  0.0985  0.1080
 1251ERGO    R215719   3.129  11.876   9.140 -0.1233  0.2673  0.1926
 1251ERGO    R315720   3.328  11.780   8.982 -0.2305  0.1284  0.1401
 1251ERGO    R415721   3.135  11.897   8.795 -0.1710  0.3033  0.1944
 1251ERGO    R515722   3.215  11.695   8.789 -0.3337  0.2421  0.1520
 1251ERGO    C115723   3.325  11.820   8.446 -0.2994  0.1939  0.1461
 1251ERGO    C215724   3.262  11.904   8.111  0.0048 -0.0468 -0.2173
 1252ERGO   ROH15725  15.261   6.147   6.099  0.0346  0.1242  0.1128
 1252ERGO    R115726  15.364   6.082   6.355 -0.0124  0.4272  0.2131
 1252ERGO    R215727  15.305   6.230   6.581 -0.5158  0.3772  0.1289
 1252ERGO    R315728  15.226   5.989   6.679 -0.0641  0.2229  0.1336
 1252ERGO    R415729  15.195   6.174   6.904 -0.5150  0.1991  0.0984
 1252ERGO    R515730  15.307   5.987   6.904 -0.1328  0.4180  0.1609
 1252ERGO    C115731  15.058   5.915   7.184 -0.0904 -0.0495  0.0851
 1252ERGO    C215732  14.770   6.023   7.409 -0.2828  0.6933  0.0387
 1253ERGO   ROH15733   9.565  14.002   5.734 -0.1301 -0.0509  0.1088
 1253ERGO    R115734   9.495  13.863   5.971 -0.0453 -0.1332  0.0847
 1253ERGO    R215735   9.560  13.598   6.011  0.2511 -0.0575  0.1022
 1253ERGO    R315736   9.672  13.694   6.240  0.0660  0.0703  0.1436
 1253ERGO    R415737   9.597  13.418   6.304  0.3981 -0.0413  0.0956
 1253ERGO    R515738   9.542  13.597   6.416  0.1346 -0.1155  0.0984
 1253ERGO    C115739   9.724  13.403   6.689  0.3099  0.0882  0.1306
 1253ERGO    C215740   9.902  13.471   6.968  0.0467  0.2047  0.0150
 1254ERGO   ROH15741  11.052   8.941   9.807  0.1191 -0.1459  0.1146
 1254ERGO    R115742  11.179   8.963   9.555  0.0639 -0.3357  0.0666
 1254ERGO    R215743  11.121   8.795   9.343 -0.2898 -0.2387  0.0691
 1254ERGO    R315744  11.077   9.028   9.212  0.0316 -0.1502  0.1131
 1254ERGO    R415745  11.146   8.837   9.001 -0.2121 -0.1867  0.0823
 1254ERGO    R515746  11.240   9.030   9.037  0.0410 -0.3239  0.1274
 1254ERGO    C115747  11.119   9.081   8.679  0.1349 -0.0733  0.1313
 1254ERGO    C215748  11.164   8.946   8.500 -0.1492 -0.0846  0.2065
 1255ERGO   ROH15749  12.300  13.536   6.588 -0.3808  0.1016 -0.0244
 1255ERGO    R115750  12.190  13.339   6.759 -0.1338 -0.1024 -0.0915
 1255ERGO    R215751  12.328  13.111   6.832  0.2126  0.1018 -0.0645
 1255ERGO    R315752  12.272  13.197   7.084 -0.0249 -0.0098 -0.0790
 1255ERGO    R415753  12.319  12.909   7.112  0.2581  0.0383 -0.1098
 1255ERGO    R515754  12.143  13.019   7.180  0.1054 -0.1611 -0.1893
 1255ERGO    C115755  12.260  12.871   7.512  0.0617 -0.1035 -0.1499
 1255ERGO    C215756  12.255  12.769   7.908  0.1138  0.1689 -0.0769
 1256ERGO   ROH15757  16.947   1.077  10.008 -0.0795  0.0689 -0.0891
 1256ERGO    R115758  17.061   1.267   9.833 -0.0352 -0.0126 -0.1492
 1256ERGO    R215759  17.244   1.199   9.638 -0.0960 -0.1256 -0.1668
 1256ERGO    R315760  17.068   1.324   9.473 -0.0753 -0.0910 -0.1628
 1256ERGO    R415761  17.319   1.317   9.322 -0.0361  0.0016 -0.1056
 1256ERGO    R515762  17.198   1.494   9.365 -0.0727 -0.0314 -0.0691
 1256ERGO    C115763  17.197   1.505   8.984  0.0185  0.1081 -0.0661
 1256ERGO    C215764  17.203   1.432   8.723 -0.0630 -0.0328  0.2232
 1257ERGO   ROH15765   0.632   2.311   9.908  0.0394  0.0452  0.0900
 1257ERGO    R115766   0.423   2.299   9.717  0.1111 -0.1386  0.0230
 1257ERGO    R215767   0.396   2.483   9.514 -0.0469 -0.0988  0.0907
 1257ERGO    R315768   0.395   2.262   9.356  0.2610 -0.0417 -0.0023
 1257ERGO    R415769   0.275   2.473   9.190 -0.3448 -0.1818  0.2009
 1257ERGO    R515770   0.188   2.277   9.235  0.0930 -0.3986  0.2063
 1257ERGO    C115771   0.203   2.258   8.854 -0.2291 -0.1765  0.1777
 1257ERGO    C215772   0.238   2.274   8.464  0.0281  0.1078 -0.0357
 1258ERGO   ROH15773   4.168   2.943   8.907 -0.0586  0.1080 -0.1255
 1258ERGO    R115774   4.270   3.157   8.752  0.0018  0.0481 -0.1684
 1258ERGO    R215775   4.537   3.225   8.750  0.0221 -0.0339 -0.1903
 1258ERGO    R315776   4.510   3.196   8.482  0.0052 -0.0746 -0.1839
 1258ERGO    R415777   4.789   3.279   8.519 -0.0175  0.0262 -0.2196
 1258ERGO    R515778   4.642   3.373   8.389 -0.0638 -0.0390 -0.2166
 1258ERGO    C115779   4.910   3.282   8.133 -0.0564  0.0230 -0.2306
 1258ERGO    C215780   5.127   3.178   8.073 -0.2652  0.1593 -0.1430
 1259ERGO   ROH15781   6.099  17.464   9.703  0.1761  0.0157 -0.0315
 1259ERGO    R115782   6.201  17.598   9.475  0.0837 -0.0093 -0.0882
 1259ERGO    R215783   6.418  17.505   9.332  0.0249 -0.0253 -0.1669
 1259ERGO    R315784   6.246  17.524   9.122 -0.0610 -0.0477 -0.0993
 1259ERGO    R415785   6.511  17.500   8.999 -0.0999  0.0515 -0.2037
 1259ERGO    R515786   6.364  17.656   8.960 -0.1629  0.0120 -0.1255
 1259ERGO    C115787   6.404  17.515   8.608 -0.2532  0.0750 -0.1616
 1259ERGO    C215788   6.404  17.445   8.340  0.1491 -0.0621  0.2130
 1260ERGO   ROH15789   4.218  18.129   6.525 -0.1691  0.0364  0.0927
 1260ERGO    R115790   4.371  17.958   6.691  0.0408  0.0839 -0.0491
 1260ERGO    R215791   4.588  18.047   6.836 -0.1331  0.2557  0.1048
 1260ERGO    R315792   4.453  17.936   7.045 -0.0281 -0.1746 -0.0460
 1260ERGO    R415793   4.719  17.998   7.152 -0.2035  0.3284  0.1457
 1260ERGO    R515794   4.618  17.805   7.159  0.1968  0.0954 -0.0433
 1260ERGO    C115795   4.669  17.865   7.532 -0.1459 -0.0334  0.0280
 1260ERGO    C215796   4.628  17.689   7.921  0.0443 -0.0609 -0.3085
 1261ERGO   ROH15797  15.256  11.020   9.936 -0.1192 -0.1002  0.0625
 1261ERGO    R115798  15.126  10.974   9.689 -0.0984 -0.1541  0.0616
 1261ERGO    R215799  14.972  11.167   9.564 -0.0769 -0.1765  0.0000
 1261ERGO    R315800  15.137  11.115   9.353 -0.0594 -0.2369  0.0280
 1261ERGO    R415801  14.883  11.198   9.231  0.0201 -0.0618 -0.0160
 1261ERGO    R515802  14.993  11.015   9.189 -0.0814 -0.1205 -0.0240
 1261ERGO    C115803  14.986  11.169   8.840  0.0930 -0.0517  0.0009
 1261ERGO    C215804  14.915  11.262   8.570  0.1549  0.5009 -0.1513
 1262ERGO   ROH15805   7.452   5.541   9.816 -0.0102 -0.0328  0.0690
 1262ERGO    R115806   7.460   5.647   9.554  0.0641 -0.0156  0.0777
 1262ERGO    R215807   7.656   5.578   9.371 -0.0043 -0.1673  0.0573
 1262ERGO    R315808   7.442   5.517   9.214 -0.0695  0.0283  0.0680
 1262ERGO    R415809   7.652   5.600   9.026 -0.0722  0.0305  0.0698
 1262ERGO    R515810   7.449   5.680   9.039 -0.0288  0.1241  0.1593
 1262ERGO    C115811   7.449   5.556   8.678 -0.1730  0.3294  0.0873
 1262ERGO    C215812   7.425   5.502   8.439 -0.0500 -0.1133  0.1113
 1263ERGO   ROH15813  10.058   9.906  10.017  0.0702 -0.0003  0.0759
 1263ERGO    R115814  10.074  10.116   9.827 -0.0776  0.0351  0.1016
 1263ERGO    R215815  10.209  10.090   9.587  0.0334  0.1952  0.1450
 1263ERGO    R315816   9.971  10.168   9.482 -0.0119 -0.0376  0.0707
 1263ERGO    R415817  10.139  10.111   9.250  0.1380  0.1812  0.1223
 1263ERGO    R515818  10.030  10.296   9.289 -0.0727  0.0604  0.1159
 1263ERGO    C115819   9.875  10.197   8.954  0.1563 -0.0456  0.0395
 1263ERGO    C215820   9.941  10.303   8.601 -0.0866  0.0081  0.0117
 1264ERGO   ROH15821   6.170   9.436   6.189 -0.0416 -0.0456 -0.0943
 1264ERGO    R115822   6.152   9.588   6.427 -0.0216 -0.0410 -0.0959
 1264ERGO    R215823   5.915   9.699   6.516 -0.0018  0.0139 -0.1111
 1264ERGO    R315824   5.974   9.563   6.744 -0.0472  0.0006 -0.1071
 1264ERGO    R415825   5.724   9.705   6.804 -0.1023 -0.0690 -0.1750
 1264ERGO    R515826   5.908   9.712   6.920 -0.1442 -0.0377 -0.1107
 1264ERGO    C115827   5.668   9.581   7.186 -0.2033 -0.1298 -0.2084
 1264ERGO    C215828   5.661   9.443   7.497  0.1333  0.1103  0.0468
 1265ERGO   ROH15829  12.398   6.868   6.568 -0.0362  0.0869 -0.0582
 1265ERGO    R115830  12.360   7.121   6.689  0.0310  0.1980 -0.2662
 1265ERGO    R215831  12.413   7.168   6.957 -0.2917  0.3097 -0.2217
 1265ERGO    R315832  12.569   7.367   6.858  0.0312  0.1093 -0.1333
 1265ERGO    R415833  12.583   7.399   7.149 -0.3442  0.2645 -0.1190
 1265ERGO    R515834  12.529   7.552   7.005 -0.0072  0.2349 -0.2946
 1265ERGO    C115835  12.829   7.720   7.168 -0.0716  0.0500  0.0238
 1265ERGO    C215836  12.945   7.894   7.342  0.2989 -0.1273  0.0113
 1266ERGO   ROH15837   7.846  17.595   6.143 -0.1781 -0.1289 -0.0563
 1266ERGO    R115838   7.796  17.474   6.394  0.0074 -0.1774 -0.0395
 1266ERGO    R215839   7.959  17.278   6.501  0.2430 -0.0100 -0.0701
 1266ERGO    R315840   7.968  17.447   6.713  0.1171  0.0118 -0.0827
 1266ERGO    R415841   8.112  17.209   6.802  0.0034  0.0037  0.0566
 1266ERGO    R515842   7.946  17.305   6.904 -0.0509  0.0452 -0.0808
 1266ERGO    C115843   8.211  17.328   7.177 -0.2543  0.0320  0.1186
 1266ERGO    C215844   8.442  17.557   7.427 -0.2482 -0.1486  0.1200
 1267ERGO   ROH15845  11.587  11.821   9.831  0.0168  0.0236 -0.0165
 1267ERGO    R115846  11.550  11.668   9.596  0.0601 -0.0052 -0.0039
 1267ERGO    R215847  11.333  11.701   9.430  0.1368  0.0347 -0.0931
 1267ERGO    R315848  11.524  11.733   9.239  0.2201 -0.0603 -0.0274
 1267ERGO    R415849  11.325  11.555   9.116  0.1436  0.0755 -0.1127
 1267ERGO    R515850  11.539  11.518   9.134  0.1185 -0.0609 -0.0471
 1267ERGO    C115851  11.501  11.500   8.755  0.2257  0.0099 -0.0624
 1267ERGO    C215852  11.308  11.392   8.475 -0.0272  0.0595 -0.1357
 1268ERGO   ROH15853  15.150  13.837  10.087 -0.0492 -0.0282 -0.0228
 1268ERGO    R115854  15.104  13.697   9.845 -0.0252 -0.0581 -0.0106
 1268ERGO    R215855  14.890  13.753   9.679  0.0055 -0.0607 -0.0528
 1268ERGO    R315856  15.084  13.779   9.491  0.0378 -0.1058 -0.0252
 1268ERGO    R415857  14.845  13.708   9.339  0.0245  0.0185 -0.0657
 1268ERGO    R515858  15.038  13.607   9.332 -0.0148 -0.0585 -0.0613
 1268ERGO    C115859  15.001  13.706   8.965  0.0659  0.0223 -0.0471
 1268ERGO    C215860  15.056  13.785   8.617 -0.0964  0.0656  0.1202
 1269ERGO   ROH15861  18.294  10.507   6.057 -0.2108 -0.0742 -0.0367
 1269ERGO    R115862  18.176  10.729   6.186  0.0025 -0.0213  0.0728
 1269ERGO    R215863  17.931  10.714   6.313 -0.0906  0.1894 -0.0726
 1269ERGO    R315864  18.071  10.813   6.524 -0.0724 -0.1559  0.0831
 1269ERGO    R415865  17.791  10.813   6.613 -0.0955 -0.0415  0.0026
 1269ERGO    R515866  17.928  10.982   6.616  0.0348 -0.1479  0.2349
 1269ERGO    C115867  17.841  10.963   6.986 -0.0812 -0.5001  0.1925
 1269ERGO    C215868  17.780  10.919   7.357 -0.0558  0.4344 -0.1083
 1270ERGO   ROH15869  13.333   1.252   6.423  0.0804 -0.2117 -0.0508
 1270ERGO    R115870  13.339   1.187   6.699  0.0175 -0.0796 -0.0176
 1270ERGO    R215871  13.572   1.187   6.846 -0.0170 -0.0050  0.0372
 1270ERGO    R315872  13.432   1.355   7.008 -0.0577  0.0705 -0.0754
 1270ERGO    R415873  13.609   1.206   7.190 -0.0725  0.1845  0.0334
 1270ERGO    R515874  13.392   1.227   7.206 -0.0771  0.1741 -0.0116
 1270ERGO    C115875  13.499   1.376   7.541 -0.1430  0.3657 -0.0745
 1270ERGO    C215876  13.690   1.290   7.820 -0.2015  0.2803  0.2338
 1271ERGO   ROH15877  12.461   3.598   9.731 -0.1690 -0.0816  0.1398
 1271ERGO    R115878  12.565   3.494   9.490 -0.1023  0.1428  0.0691
 1271ERGO    R215879  12.524   3.232   9.411  0.2332  0.1083 -0.0039
 1271ERGO    R315880  12.430   3.349   9.184 -0.0056  0.0573  0.0660
 1271ERGO    R415881  12.417   3.061   9.130  0.2874  0.0502  0.0105
 1271ERGO    R515882  12.515   3.213   9.007  0.0634  0.1887 -0.0047
 1271ERGO    C115883  12.266   3.072   8.754  0.0947 -0.0314  0.0845
 1271ERGO    C215884  12.088   2.982   8.489  0.0102  0.0826  0.1028
 1272ERGO   ROH15885  12.823   9.042  10.228 -0.0864 -0.0877 -0.0168
 1272ERGO    R115886  13.009   9.048  10.015 -0.0145 -0.1697  0.0432
 1272ERGO    R215887  13.041   8.836   9.841 -0.1017 -0.1581  0.0118
 1272ERGO    R315888  12.996   9.025   9.652  0.0848 -0.0884  0.0343
 1272ERGO    R415889  13.028   8.776   9.501 -0.2022 -0.1120  0.0072
 1272ERGO    R515890  13.137   8.962   9.469 -0.0014 -0.2257  0.0139
 1272ERGO    C115891  12.977   8.919   9.125 -0.0854 -0.0197  0.0257
 1272ERGO    C215892  13.036   8.904   8.713  0.3957 -0.1425 -0.0304
 1273ERGO   ROH15893  15.130   3.878   9.723 -0.1024  0.1104  0.1768
 1273ERGO    R115894  14.992   3.941   9.484  0.0804  0.1588  0.0819
 1273ERGO    R215895  15.115   4.063   9.268  0.3209 -0.0742  0.0824
 1273ERGO    R315896  15.015   3.849   9.132  0.1464 -0.0270  0.1342
 1273ERGO    R415897  15.153   4.009   8.929  0.2377 -0.1662  0.0872
 1273ERGO    R515898  14.947   3.940   8.922  0.1856 -0.0159  0.1267
 1273ERGO    C115899  15.081   3.777   8.604  0.0254 -0.1753  0.1387
 1273ERGO    C215900  15.174   3.746   8.334 -0.3717  0.2574  0.0992
 1274ERGO   ROH15901  15.100  15.283   6.298  0.0002  0.0269 -0.0729
 1274ERGO    R115902  14.998  15.473   6.481 -0.0146  0.0021 -0.0542
 1274ERGO    R215903  14.755  15.442   6.608  0.0078 -0.0529 -0.0173
 1274ERGO    R315904  14.904  15.478   6.832  0.0362 -0.0272 -0.0413
 1274ERGO    R415905  14.627  15.475   6.928  0.0569 -0.0473  0.0012
 1274ERGO    R515906  14.776  15.630   6.966  0.0456 -0.0341 -0.0291
 1274ERGO    C115907  14.693  15.528   7.324  0.1122 -0.0199 -0.0105
 1274ERGO    C215908  14.688  15.476   7.681  0.0291  0.2165  0.2334
 1275ERGO   ROH15909  16.144  10.466  10.030 -0.1272 -0.0043 -0.0697
 1275ERGO    R115910  16.005  10.426   9.787 -0.0491 -0.0528 -0.1071
 1275ERGO    R215911  15.990  10.619   9.590 -0.1251 -0.0298 -0.0819
 1275ERGO    R315912  16.088  10.421   9.433  0.0339  0.0535 -0.0890
 1275ERGO    R415913  16.005  10.630   9.245 -0.2030 -0.0387 -0.0854
 1275ERGO    R515914  15.945  10.421   9.241 -0.0035 -0.0964 -0.0603
 1275ERGO    C115915  16.106  10.450   8.896 -0.0992  0.0342 -0.0941
 1275ERGO    C215916  16.296  10.490   8.581 -0.2795 -0.0786 -0.3781
 1276ERGO   ROH15917   7.464   4.406   9.718 -0.0629 -0.1671  0.0057
 1276ERGO    R115918   7.454   4.497   9.450 -0.0524 -0.0659  0.0389
 1276ERGO    R215919   7.679   4.510   9.289 -0.0540 -0.0490  0.0386
 1276ERGO    R315920   7.528   4.358   9.121 -0.0866  0.0416 -0.0147
 1276ERGO    R415921   7.626   4.579   8.955  0.2909 -0.1343 -0.0379
 1276ERGO    R515922   7.418   4.518   8.980  0.1992  0.1039 -0.1754
 1276ERGO    C115923   7.453   4.477   8.603  0.4612 -0.0989 -0.1323
 1276ERGO    C215924   7.324   4.383   8.332  0.0122 -0.0401  0.1104
 1277ERGO   ROH15925  15.657   8.036   9.755  0.4152 -0.1686  0.0410
 1277ERGO    R115926  15.501   7.959   9.532  0.1862 -0.1774  0.2002
 1277ERGO    R215927  15.564   8.035   9.274 -0.1768 -0.0363  0.1459
 1277ERGO    R315928  15.552   7.767   9.227 -0.0658 -0.0263  0.0601
 1277ERGO    R415929  15.498   7.891   8.967 -0.3038  0.0383  0.1379
 1277ERGO    R515930  15.374   7.742   9.068 -0.1584 -0.0630  0.1687
 1277ERGO    C115931  15.449   7.555   8.744 -0.2737  0.0911  0.0528
 1277ERGO    C215932  15.598   7.451   8.383 -0.1954  0.2432  0.1628
 1278ERGO   ROH15933   7.691   7.582   9.626 -0.1020 -0.1297  0.1464
 1278ERGO    R115934   7.782   7.699   9.385  0.0244  0.0103  0.2603
 1278ERGO    R215935   7.989   7.592   9.237 -0.1630 -0.1358  0.1007
 1278ERGO    R315936   7.807   7.600   9.035 -0.1961  0.3664  0.1381
 1278ERGO    R415937   8.067   7.578   8.900 -0.2603 -0.4072  0.0868
 1278ERGO    R515938   7.913   7.729   8.864  0.1565  0.0463  0.0998
 1278ERGO    C115939   7.940   7.578   8.515 -0.3480 -0.0937  0.1138
 1278ERGO    C215940   7.747   7.568   8.187  0.1550  0.0552 -0.2070
 1279ERGO   ROH15941   5.713  11.186   6.396  0.1142 -0.1264  0.0667
 1279ERGO    R115942   5.489  11.162   6.567  0.0126 -0.0329 -0.0507
 1279ERGO    R215943   5.501  11.031   6.810 -0.1972 -0.1334 -0.0903
 1279ERGO    R315944   5.401  11.266   6.905 -0.0764 -0.0968 -0.0541
 1279ERGO    R415945   5.266  11.058   7.063 -0.1295 -0.0459 -0.0366
 1279ERGO    R515946   5.171  11.219   6.949 -0.0860  0.0004 -0.0048
 1279ERGO    C115947   5.037  11.294   7.299  0.0232  0.0394  0.0285
 1279ERGO    C215948   4.769  11.208   7.630  0.1654 -0.0547  0.3471
 1280ERGO   ROH15949   7.823   2.430   9.688  0.0842  0.0841  0.1248
 1280ERGO    R115950   7.777   2.549   9.436 -0.0686 -0.0034  0.1108
 1280ERGO    R215951   7.978   2.588   9.251 -0.1355  0.1487  0.0736
 1280ERGO    R315952   7.810   2.452   9.087 -0.0373 -0.0356  0.1218
 1280ERGO    R415953   8.026   2.542   8.912 -0.1471  0.1468  0.0713
 1280ERGO    R515954   7.813   2.575   8.882 -0.1878 -0.0577  0.1024
 1280ERGO    C115955   7.896   2.387   8.560 -0.0616 -0.0272  0.1153
 1280ERGO    C215956   7.835   2.178   8.213 -0.0560  0.0133  0.3371
 1281ERGO   ROH15957  15.164  11.188   6.700  0.1060 -0.0029  0.0447
 1281ERGO    R115958  15.157  11.219   6.981 -0.0801  0.1772  0.0225
 1281ERGO    R215959  14.932  11.306   7.116 -0.2711 -0.0352 -0.1527
 1281ERGO    R315960  14.969  11.077   7.258 -0.0326  0.1049  0.0180
 1281ERGO    R415961  14.767  11.229   7.409 -0.4158 -0.1184 -0.2544
 1281ERGO    R515962  14.954  11.148   7.487 -0.3504  0.2254 -0.0344
 1281ERGO    C115963  14.705  10.969   7.714 -0.2760 -0.0353 -0.1534
 1281ERGO    C215964  14.505  10.773   7.896 -0.0141 -0.0484  0.2002
 1282ERGO   ROH15965  11.351  16.959   9.713  0.2369  0.0044 -0.0307
 1282ERGO    R115966  11.441  17.039   9.456  0.2113 -0.1912 -0.1035
 1282ERGO    R215967  11.370  16.905   9.225 -0.1048 -0.1602 -0.0348
 1282ERGO    R315968  11.289  17.152   9.146  0.1949 -0.0634 -0.0480
 1282ERGO    R415969  11.313  16.998   8.897  0.1061 -0.0695 -0.0463
 1282ERGO    R515970  11.407  17.190   8.941  0.3036 -0.1774 -0.0046
 1282ERGO    C115971  11.203  17.284   8.632  0.5103  0.0741 -0.0656
 1282ERGO    C215972  11.095  17.386   8.480  0.4096  0.0716 -0.1371
 1283ERGO   ROH15973  18.003   2.665   6.113 -0.1000 -0.3279  0.0292
 1283ERGO    R115974  17.933   2.639   6.386  0.0038 -0.2375  0.0650
 1283ERGO    R215975  18.121   2.642   6.588  0.0740 -0.0945 -0.0016
 1283ERGO    R315976  17.964   2.841   6.687  0.0460 -0.1031 -0.0284
 1283ERGO    R415977  18.154   2.782   6.903  0.1208  0.0239 -0.0584
 1283ERGO    R515978  17.937   2.785   6.919  0.1237 -0.0306 -0.0011
 1283ERGO    C115979  18.027   3.050   7.178  0.1218  0.0847 -0.1165
 1283ERGO    C215980  18.064   3.052   7.504  0.0972  0.0724 -0.0957
 1284ERGO   ROH15981  14.598   2.787   9.907 -0.1621 -0.1435 -0.0902
 1284ERGO    R115982  14.626   2.691   9.642 -0.1432 -0.0807 -0.1115
 1284ERGO    R215983  14.443   2.749   9.443 -0.0970  0.0185 -0.1276
 1284ERGO    R315984  14.664   2.837   9.310 -0.0524 -0.0017 -0.0663
 1284ERGO    R415985  14.479   2.752   9.099 -0.0802  0.2058 -0.1251
 1284ERGO    R515986  14.685   2.687   9.125 -0.1113  0.0984 -0.1543
 1284ERGO    C115987  14.707   2.836   8.774 -0.0285  0.2959 -0.0661
 1284ERGO    C215988  14.586   2.874   8.450  0.1578  0.0326  0.2487
 1285ERGO   ROH15989   8.268  15.043   9.339  0.0013  0.0868 -0.1411
 1285ERGO    R115990   8.203  14.974   9.073  0.0044  0.0439 -0.1314
 1285ERGO    R215991   7.971  15.058   8.950 -0.0979 -0.1502 -0.0796
 1285ERGO    R315992   8.142  15.152   8.761 -0.2157  0.0097 -0.1080
 1285ERGO    R415993   7.903  15.068   8.611 -0.1451 -0.2477 -0.0731
 1285ERGO    R515994   8.109  15.006   8.574 -0.0857 -0.0391 -0.0909
 1285ERGO    C115995   8.025  15.162   8.236 -0.2832 -0.1544 -0.0960
 1285ERGO    C215996   7.838  15.271   7.959  0.0075 -0.0160 -0.1824
 1286ERGO   ROH15997   0.469   0.085   6.317 -0.1703  0.1004  0.1988
 1286ERGO    R115998   0.540   0.095   6.591 -0.3580 -0.0258  0.2530
 1286ERGO    R215999   0.443  -0.084   6.777  0.0297 -0.5364 -0.0186
 1286ERGO    R316000   0.706  -0.123   6.830  0.1278  0.1407  0.0810
 1286ERGO    R416001   0.569  -0.196   7.079  0.1321 -0.7334 -0.1309
 1286ERGO    R516002   0.732  -0.053   7.057 -0.2527 -0.1913  0.2426
 1286ERGO    C116003   0.890  -0.297   7.304  0.2839 -0.2126 -0.1028
 1286ERGO    C216004   0.990  -0.277   7.536  0.2421  0.4581  0.2957
 1287ERGO   ROH16005   3.224  15.641   6.352 -0.0154 -0.2386 -0.1475
 1287ERGO    R116006   3.140  15.715   6.611  0.0597 -0.1210 -0.1565
 1287ERGO    R216007   3.042  15.532   6.794 -0.0107 -0.0184 -0.0922
 1287ERGO    R316008   3.237  15.636   6.953  0.0658 -0.0753 -0.1472
 1287ERGO    R416009   3.090  15.450   7.126 -0.2159  0.2864  0.0170
 1287ERGO    R516010   3.132  15.661   7.167  0.0239  0.2871 -0.2022
 1287ERGO    C116011   3.300  15.500   7.470 -0.2636  0.4106  0.0290
 1287ERGO    C216012   3.580  15.349   7.672  0.0734 -0.0012 -0.0390
 1288ERGO   ROH16013  13.165   2.253   6.326  0.0052  0.1211  0.0119
 1288ERGO    R116014  13.188   2.364   6.585 -0.0686  0.0634  0.0432
 1288ERGO    R216015  13.399   2.305   6.754  0.0022  0.2026 -0.0013
 1288ERGO    R316016  13.427   2.575   6.761 -0.2407  0.2291  0.0847
 1288ERGO    R416017  13.579   2.478   6.993  0.2670  0.2352 -0.2204
 1288ERGO    R516018  13.422   2.629   6.995  0.1171  0.0937  0.1342
 1288ERGO    C116019  13.711   2.833   7.138  0.1933  0.2789 -0.2672
 1288ERGO    C216020  13.867   2.896   7.499  0.2363  0.1048  0.0553
 1289ERGO   ROH16021  16.925   3.643   9.959  0.0192 -0.0289  0.0368
 1289ERGO    R116022  17.029   3.521   9.726 -0.0391 -0.2090  0.1052
 1289ERGO    R216023  16.884   3.340   9.576 -0.2757  0.0712 -0.0038
 1289ERGO    R316024  16.942   3.510   9.373  0.1927 -0.0221  0.0383
 1289ERGO    R416025  16.921   3.247   9.245 -0.5379  0.0405 -0.0276
 1289ERGO    R516026  17.089   3.385   9.230 -0.1412 -0.4040  0.0051
 1289ERGO    C116027  16.996   3.354   8.861 -0.2507 -0.0649 -0.0020
 1289ERGO    C216028  17.119   3.441   8.445  0.0990 -0.1745  0.1473
 1290ERGO   ROH16029  15.548   2.479   9.908  0.1817  0.0425  0.1109
 1290ERGO    R116030  15.489   2.517   9.634  0.0606 -0.0312  0.1268
 1290ERGO    R216031  15.667   2.635   9.458 -0.0230 -0.0697  0.0210
 1290ERGO    R316032  15.626   2.407   9.316 -0.0744 -0.1065  0.0928
 1290ERGO    R416033  15.668   2.613   9.113  0.0273 -0.1823  0.0272
 1290ERGO    R516034  15.499   2.477   9.125 -0.0225 -0.1255  0.0476
 1290ERGO    C116035  15.631   2.387   8.779  0.0084 -0.2823  0.0983
 1290ERGO    C216036  15.568   2.481   8.543  0.2335  0.0707 -0.0205
 1291ERGO   ROH16037   1.984   9.042   9.215 -0.1981  0.2223  0.0082
 1291ERGO    R116038   1.845   9.105   8.976 -0.1621  0.0453 -0.0606
 1291ERGO    R216039   1.974   9.155   8.737 -0.1214 -0.0328 -0.0531
 1291ERGO    R316040   1.809   8.959   8.645 -0.0260 -0.1424  0.0052
 1291ERGO    R416041   1.940   9.066   8.405 -0.2067 -0.0247 -0.0470
 1291ERGO    R516042   1.726   9.045   8.437 -0.1808 -0.1800  0.0491
 1291ERGO    C116043   1.766   8.831   8.125 -0.1668 -0.1229  0.0112
 1291ERGO    C216044   1.777   8.825   7.776  0.2889 -0.1217 -0.2816
 1292ERGO   ROH16045   3.372   3.867   9.967  0.0211  0.1200 -0.1253
 1292ERGO    R116046   3.481   3.919   9.712 -0.0166 -0.2129 -0.2155
 1292ERGO    R216047   3.449   3.747   9.498 -0.5364 -0.2312 -0.1444
 1292ERGO    R316048   3.353   3.969   9.375 -0.1267 -0.0499 -0.1481
 1292ERGO    R416049   3.385   3.773   9.159 -0.6212 -0.1516 -0.1217
 1292ERGO    R516050   3.468   3.975   9.164 -0.2010 -0.3210 -0.1922
 1292ERGO    C116051   3.258   3.998   8.846 -0.2860  0.0649 -0.1120
 1292ERGO    C216052   3.392   3.959   8.600 -0.1495  0.0789 -0.0769
 1293ERGO   ROH16053   1.103  14.776   6.521  0.0362 -0.0336  0.0303
 1293ERGO    R116054   0.977  14.847   6.764 -0.1195 -0.2155  0.0061
 1293ERGO    R216055   0.923  14.663   6.963  0.3048 -0.2682  0.0876
 1293ERGO    R316056   1.061  14.838   7.118 -0.0751  0.1197  0.0063
 1293ERGO    R416057   0.932  14.656   7.308  0.4725 -0.2021  0.0845
 1293ERGO    R516058   0.920  14.874   7.308 -0.0931 -0.2224  0.0605
 1293ERGO    C116059   1.067  14.817   7.655  0.2137  0.2006  0.0063
 1293ERGO    C216060   1.119  14.685   7.937 -0.4185 -0.1910 -0.3519
 1294ERGO   ROH16061  17.105  13.257   9.483 -0.0617 -0.0335  0.1358
 1294ERGO    R116062  17.171  13.349   9.224 -0.1926 -0.0080  0.1114
 1294ERGO    R216063  17.349  13.216   9.060 -0.0264  0.1830  0.1370
 1294ERGO    R316064  17.143  13.223   8.883 -0.0462 -0.1270  0.1416
 1294ERGO    R416065  17.383  13.229   8.716 -0.0490  0.3275  0.1391
 1294ERGO    R516066  17.217  13.371   8.710 -0.2969  0.0498  0.1768
 1294ERGO    C116067  17.209  13.243   8.350 -0.0809  0.1206  0.1446
 1294ERGO    C216068  17.239  13.332   7.894  0.1164  0.1489  0.0490
 1295ERGO   ROH16069  16.431   7.488   6.306 -0.1736  0.2012 -0.0643
 1295ERGO    R116070  16.335   7.502   6.572 -0.1489 -0.0318 -0.0416
 1295ERGO    R216071  16.419   7.327   6.770  0.0067 -0.0919 -0.1585
 1295ERGO    R316072  16.478   7.557   6.902 -0.1455 -0.1270 -0.0268
 1295ERGO    R416073  16.538   7.343   7.094  0.1728 -0.2120 -0.2126
 1295ERGO    R516074  16.409   7.515   7.128  0.0199 -0.3604 -0.0152
 1295ERGO    C116075  16.663   7.567   7.407  0.1265 -0.3148 -0.1205
 1295ERGO    C216076  16.599   7.697   7.714 -0.1482 -0.1032 -0.0696
 1296ERGO   ROH16077   6.750  15.002   9.468  0.2183 -0.3767 -0.0107
 1296ERGO    R116078   6.856  14.932   9.215 -0.0371 -0.3009 -0.1445
 1296ERGO    R216079   6.715  14.967   8.979 -0.1688  0.0503 -0.0317
 1296ERGO    R316080   6.937  15.105   8.905 -0.0587 -0.1411 -0.0591
 1296ERGO    R416081   6.792  15.055   8.654 -0.2839  0.2607 -0.0017
 1296ERGO    R516082   7.000  15.007   8.696 -0.3157 -0.0206 -0.1912
 1296ERGO    C116083   7.044  15.237   8.395 -0.2475  0.2034 -0.0097
 1296ERGO    C216084   6.952  15.426   8.128  0.0378 -0.0555  0.2375
 1297ERGO   ROH16085   8.621  15.859   9.648  0.0364  0.1679  0.1539
 1297ERGO    R116086   8.684  16.019   9.423  0.1993  0.1044  0.1525
 1297ERGO    R216087   8.903  15.969   9.262  0.0988 -0.1819  0.0907
 1297ERGO    R316088   8.717  15.969   9.064  0.0414  0.0864  0.1412
 1297ERGO    R416089   8.970  16.028   8.928  0.0420 -0.0380  0.1045
 1297ERGO    R516090   8.786  16.145   8.917  0.1358  0.1155  0.2252
 1297ERGO    C116091   8.834  16.062   8.548 -0.0450  0.2975  0.1598
 1297ERGO    C216092   8.689  16.021   8.242  0.1327 -0.1159 -0.2231
 1298ERGO   ROH16093   9.686   8.622   6.365  0.1057 -0.1587 -0.0069
 1298ERGO    R116094   9.620   8.582   6.637  0.0802 -0.1089 -0.0053
 1298ERGO    R216095   9.360   8.591   6.731  0.0729 -0.0555 -0.0240
 1298ERGO    R316096   9.421   8.346   6.830  0.0303 -0.0505  0.0137
 1298ERGO    R416097   9.221   8.452   7.015  0.0721  0.0204  0.0127
 1298ERGO    R516098   9.417   8.374   7.067  0.0585 -0.0107  0.0077
 1298ERGO    C116099   9.197   8.140   7.273  0.0316  0.0693  0.0695
 1298ERGO    C216100   9.041   7.862   7.568  0.3091  0.0504  0.1380
 1299ERGO   ROH16101   6.814   2.776   9.697 -0.0652  0.2243  0.0495
 1299ERGO    R116102   6.833   2.944   9.470  0.0362  0.1493  0.0002
 1299ERGO    R216103   7.062   2.962   9.317  0.0570 -0.0229 -0.0023
 1299ERGO    R316104   6.892   2.902   9.113  0.0245  0.0077  0.0164
 1299ERGO    R416105   7.085   3.090   8.997 -0.2117  0.2922  0.0995
 1299ERGO    R516106   6.867   3.108   8.994 -0.2255  0.0918  0.2139
 1299ERGO    C116107   6.939   3.107   8.619 -0.3986  0.5044  0.1763
 1299ERGO    C216108   6.899   3.148   8.300 -0.1093  0.0587  0.0295
 1300ERGO   ROH16109  13.729   8.949   6.555  0.1984 -0.2020 -0.0622
 1300ERGO    R116110  13.849   8.811   6.772  0.0448 -0.1811  0.0368
 1300ERGO    R216111  13.902   8.933   7.014  0.0406 -0.1080 -0.0004
 1300ERGO    R316112  13.757   8.726   7.113 -0.1175  0.0229  0.0466
 1300ERGO    R416113  13.814   8.896   7.346  0.1274 -0.0319  0.0320
 1300ERGO    R516114  13.855   8.682   7.328 -0.0774 -0.0730  0.0106
 1300ERGO    C116115  13.627   8.680   7.633  0.0295  0.1354  0.0949
 1300ERGO    C216116  13.457   8.648   8.002 -0.1476  0.0288 -0.1921
 1301ERGO   ROH16117   6.741  15.889   9.496 -0.1059  0.0456  0.0237
 1301ERGO    R116118   6.657  16.032   9.266 -0.2151  0.0258  0.0508
 1301ERGO    R216119   6.768  15.991   9.016 -0.1594  0.1819  0.0479
 1301ERGO    R316120   6.510  15.950   8.943 -0.1196 -0.0301  0.0217
 1301ERGO    R416121   6.649  16.005   8.692 -0.1464  0.1084  0.0401
 1301ERGO    R516122   6.471  16.106   8.767 -0.2382 -0.0478  0.0330
 1301ERGO    C116123   6.336  15.974   8.435 -0.1016 -0.1334  0.0107
 1301ERGO    C216124   6.221  16.000   8.134 -0.1368 -0.3997  0.1571
 1302ERGO   ROH16125  14.350  13.987   6.413 -0.1247  0.2528  0.0259
 1302ERGO    R116126  14.272  14.072   6.671 -0.0322  0.2005  0.0710
 1302ERGO    R216127  14.195  13.896   6.870 -0.0854  0.1693  0.0205
 1302ERGO    R316128  14.389  14.022   7.012  0.0060  0.0190  0.0326
 1302ERGO    R416129  14.180  13.962   7.209 -0.1150  0.2949 -0.0040
 1302ERGO    R516130  14.269  14.157   7.170  0.0964  0.1947 -0.0443
 1302ERGO    C116131  14.354  14.118   7.540 -0.0463  0.2268 -0.0069
 1302ERGO    C216132  14.449  14.081   7.812  0.2215  0.1501  0.2396
 1303ERGO   ROH16133   5.981   2.925   6.441 -0.0394  0.1456 -0.0166
 1303ERGO    R116134   6.094   2.849   6.689  0.0437  0.1583 -0.0501
 1303ERGO    R216135   6.297   2.992   6.811 -0.0239  0.2544 -0.0495
 1303ERGO    R316136   6.125   2.996   7.021  0.0050  0.1044 -0.0224
 1303ERGO    R416137   6.383   3.075   7.135 -0.0436  0.3347 -0.0645
 1303ERGO    R516138   6.255   2.914   7.205  0.1086  0.2198 -0.0421
 1303ERGO    C116139   6.272   3.126   7.521 -0.0281  0.2406 -0.0477
 1303ERGO    C216140   6.526   3.186   7.778  0.0491  0.1015 -0.2069
 1304ERGO   ROH16141  13.578   4.048   6.155  0.0125 -0.2797  0.0377
 1304ERGO    R116142  13.446   4.098   6.401 -0.0190 -0.0914 -0.0145
 1304ERGO    R216143  13.458   3.922   6.615 -0.0722  0.0541  0.1140
 1304ERGO    R316144  13.545   4.143   6.749 -0.0644  0.1390 -0.0302
 1304ERGO    R416145  13.473   3.951   6.959 -0.0607  0.2763  0.0954
 1304ERGO    R516146  13.401   4.156   6.940 -0.0568  0.2650 -0.0341
 1304ERGO    C116147  13.563   4.175   7.285 -0.0467  0.4854 -0.0508
 1304ERGO    C216148  13.775   4.029   7.555 -0.1795  0.2024 -0.0177
 1305ERGO   ROH16149   4.686   4.230   6.093  0.0105 -0.1985  0.0389
 1305ERGO    R116150   4.460   4.189   6.260 -0.0349 -0.0803  0.0072
 1305ERGO    R216151   4.453   3.995   6.456 -0.1826 -0.1100 -0.0257
 1305ERGO    R316152   4.388   4.206   6.616 -0.0634 -0.0938  0.0020
 1305ERGO    R416153   4.402   3.976   6.798  0.0109 -0.0865  0.0053
 1305ERGO    R516154   4.235   4.114   6.776  0.0161 -0.0658  0.0948
 1305ERGO    C116155   4.312   4.162   7.146  0.2355 -0.0577  0.0493
 1305ERGO    C216156   4.272   4.354   7.506  0.1675  0.2017  0.1559
 1306ERGO   ROH16157   2.835   1.713   6.460 -0.1708 -0.0041  0.1173
 1306ERGO    R116158   2.778   1.560   6.692  0.0255  0.1391  0.2616
 1306ERGO    R216159   2.781   1.284   6.692 -0.1499  0.1455  0.3802
 1306ERGO    R316160   2.954   1.318   6.899  0.1349  0.1222  0.1553
 1306ERGO    R416161   2.827   1.059   6.950  0.0739  0.1738  0.3694
 1306ERGO    R516162   2.838   1.227   7.088  0.3232  0.2097  0.3260
 1306ERGO    C116163   3.015   0.959   7.295  0.4716  0.1686  0.1520
 1306ERGO    C216164   2.875   0.624   7.477 -0.1055 -0.3225 -0.1381
 1307ERGO   ROH16165   4.471  17.440   9.698  0.1103 -0.0084 -0.2893
 1307ERGO    R116166   4.357  17.674   9.588  0.0105 -0.0669 -0.3105
 1307ERGO    R216167   4.474  17.923   9.615 -0.2177  0.0222 -0.1249
 1307ERGO    R316168   4.455  17.926   9.344  0.0163  0.0943 -0.1445
 1307ERGO    R416169   4.460  18.209   9.421  0.1599  0.0746 -0.0850
 1307ERGO    R516170   4.310  18.111   9.297  0.1918  0.2116 -0.2340
 1307ERGO    C116171   4.433  18.378   9.054  0.5994  0.1728 -0.0800
 1307ERGO    C216172   4.340  18.567   8.809 -0.1891  0.3770  0.0682
 1308ERGO   ROH16173   7.014   2.020   9.372 -0.2458 -0.0356  0.0624
 1308ERGO    R116174   7.044   2.059   9.093 -0.1325 -0.1525  0.0585
 1308ERGO    R216175   7.080   1.850   8.916 -0.3007 -0.2414  0.1387
 1308ERGO    R316176   6.865   1.962   8.792 -0.1539 -0.0613  0.0387
 1308ERGO    R416177   7.042   1.879   8.574 -0.1512 -0.3048  0.1151
 1308ERGO    R516178   6.959   2.078   8.605  0.0321 -0.2041  0.0331
 1308ERGO    C116179   6.820   2.001   8.258  0.0736 -0.1727  0.0075
 1308ERGO    C216180   6.697   1.834   8.070  0.3508 -0.2945 -0.0396
 1309ERGO   ROH16181  13.475  14.974   9.882 -0.0063 -0.0677 -0.1567
 1309ERGO    R116182  13.330  14.930   9.643 -0.1193 -0.0229 -0.0995
 1309ERGO    R216183  13.177  15.126   9.523  0.0074  0.0764 -0.1231
 1309ERGO    R316184  13.328  15.065   9.306 -0.0997 -0.1293 -0.1397
 1309ERGO    R416185  13.076  15.164   9.195 -0.0214  0.0598 -0.1144
 1309ERGO    R516186  13.172  14.975   9.148 -0.2081 -0.0359 -0.0767
 1309ERGO    C116187  13.159  15.130   8.800 -0.1387 -0.1430 -0.1250
 1309ERGO    C216188  12.908  15.045   8.472 -0.3494 -0.1046  0.2471
 1310ERGO   ROH16189   1.337   7.658   6.088 -0.2020 -0.2264  0.0862
 1310ERGO    R116190   1.208   7.538   6.310  0.1012 -0.1782  0.2963
 1310ERGO    R216191   1.266   7.607   6.571  0.0756  0.2846  0.1938
 1310ERGO    R316192   0.998   7.649   6.585 -0.0063 -0.1939  0.2191
 1310ERGO    R416193   1.086   7.641   6.864  0.0708  0.1909  0.2012
 1310ERGO    R516194   0.927   7.522   6.775  0.2656 -0.1723  0.3341
 1310ERGO    C116195   0.729   7.701   7.048 -0.0090 -0.3127  0.2292
 1310ERGO    C216196   0.651   7.625   7.428  0.0044  0.2338  0.0811
 1311ERGO   ROH16197  11.988   1.635   6.585  0.0382 -0.0987 -0.0116
 1311ERGO    R116198  11.920   1.507   6.828 -0.0154 -0.0566 -0.0042
 1311ERGO    R216199  12.086   1.511   7.049 -0.0824  0.0156  0.0443
 1311ERGO    R316200  11.864   1.608   7.173 -0.1342  0.0087 -0.0418
 1311ERGO    R416201  11.990   1.432   7.372 -0.0415  0.2422  0.1132
 1311ERGO    R516202  11.783   1.423   7.303 -0.0383  0.0752  0.1173
 1311ERGO    C116203  11.726   1.478   7.676 -0.0662  0.3676  0.0726
 1311ERGO    C216204  11.814   1.388   7.984  0.1354 -0.2090 -0.0992
 1312ERGO   ROH16205   1.192   2.034   6.336  0.0446 -0.0417  0.0734
 1312ERGO    R116206   1.352   2.166   6.529  0.0986 -0.1021  0.0699
 1312ERGO    R216207   1.246   2.278   6.758  0.1324  0.0173  0.0267
 1312ERGO    R316208   1.432   2.122   6.881  0.0121 -0.0757  0.0933
 1312ERGO    R416209   1.360   2.325   7.081  0.1880  0.0849 -0.0021
 1312ERGO    R516210   1.561   2.276   7.012  0.1463 -0.1150  0.0098
 1312ERGO    C116211   1.600   2.206   7.385  0.1074  0.0369  0.0437
 1312ERGO    C216212   1.820   2.194   7.572 -0.0698 -0.0710  0.1352
 1313ERGO   ROH16213  15.504  15.758   9.656 -0.0412 -0.1931  0.0268
 1313ERGO    R116214  15.669  15.783   9.427 -0.0789  0.0631  0.0250
 1313ERGO    R216215  15.728  15.569   9.262  0.2358  0.1571  0.0129
 1313ERGO    R316216  15.631  15.734   9.068 -0.0109  0.0269  0.0218
 1313ERGO    R416217  15.830  15.568   8.932  0.2064  0.2822  0.0031
 1313ERGO    R516218  15.822  15.785   8.933 -0.0871  0.2795  0.0004
 1313ERGO    C116219  15.798  15.722   8.558 -0.0424  0.2327  0.0059
 1313ERGO    C216220  15.786  15.843   8.358  0.1518 -0.1650 -0.0101
 1314ERGO   ROH16221   0.381   1.182  10.112 -0.1602  0.1761 -0.1636
 1314ERGO    R116222   0.294   1.050   9.877  0.1298 -0.0765 -0.1369
 1314ERGO    R216223   0.180   1.185   9.665 -0.2507 -0.3764 -0.1421
 1314ERGO    R316224   0.375   1.061   9.522  0.0567  0.0944 -0.1473
 1314ERGO    R416225   0.191   1.165   9.320 -0.1554 -0.2906 -0.1434
 1314ERGO    R516226   0.260   0.959   9.339  0.3145 -0.1383 -0.1789
 1314ERGO    C116227   0.381   1.037   8.985  0.1886  0.2014 -0.1490
 1314ERGO    C216228   0.182   0.982   8.647 -0.0707 -0.1682  0.0450
 1315ERGO   ROH16229  13.691   6.496   6.819 -0.0844  0.2439 -0.1155
 1315ERGO    R116230  13.635   6.525   7.095 -0.0535 -0.0023 -0.0827
 1315ERGO    R216231  13.828   6.490   7.289  0.0449  0.1435 -0.1627
 1315ERGO    R316232  13.750   6.739   7.366 -0.2801 -0.0076  0.0219
 1315ERGO    R416233  13.926   6.647   7.582  0.2493  0.2316 -0.2751
 1315ERGO    R516234  13.723   6.722   7.604  0.1320 -0.1308  0.0729
 1315ERGO    C116235  13.910   6.971   7.824  0.0633  0.1411 -0.1673
 1315ERGO    C216236  13.928   7.192   8.046  0.0005 -0.1215  0.3439
 1316ERGO   ROH16237   1.821  14.328   9.455  0.2599  0.3799 -0.1045
 1316ERGO    R116238   1.753  14.338   9.181  0.1081  0.3430 -0.0683
 1316ERGO    R216239   1.498  14.284   9.088  0.1017  0.1565  0.0648
 1316ERGO    R316240   1.523  14.528   8.971 -0.1462  0.1820  0.0571
 1316ERGO    R416241   1.309  14.395   8.821  0.0651 -0.0955 -0.0171
 1316ERGO    R516242   1.490  14.485   8.738 -0.0061  0.1176  0.0446
 1316ERGO    C116243   1.223  14.688   8.555 -0.1891 -0.2184 -0.0720
 1316ERGO    C216244   1.118  14.915   8.396 -0.0268  0.0529  0.0078
 1317ERGO   ROH16245  14.779   3.018   6.458  0.1975 -0.3384  0.0989
 1317ERGO    R116246  14.692   3.207   6.650  0.1050 -0.2188 -0.0590
 1317ERGO    R216247  14.573   3.134   6.888 -0.1250 -0.0665 -0.1254
 1317ERGO    R316248  14.770   3.286   6.996 -0.1584 -0.0917 -0.0267
 1317ERGO    R416249  14.582   3.241   7.216 -0.2461 -0.1112 -0.1064
 1317ERGO    R516250  14.656   3.434   7.146 -0.2082 -0.1057 -0.0510
 1317ERGO    C116251  14.772   3.447   7.509 -0.3480 -0.1608 -0.0026
 1317ERGO    C216252  14.590   3.470   7.788 -0.1216  0.3359  0.2143
 1318ERGO   ROH16253   7.820   6.593   9.999 -0.0428 -0.2861 -0.0346
 1318ERGO    R116254   7.901   6.520   9.738  0.0566 -0.1609 -0.0397
 1318ERGO    R216255   7.721   6.482   9.531  0.1216 -0.2145 -0.0880
 1318ERGO    R316256   7.878   6.664   9.404  0.0350 -0.0787 -0.0028
 1318ERGO    R416257   7.821   6.458   9.201  0.3883 -0.1718 -0.0127
 1318ERGO    R516258   8.018   6.531   9.261  0.2738  0.0359  0.1204
 1318ERGO    C116259   8.026   6.615   8.890  0.4623 -0.0194  0.1113
 1318ERGO    C216260   8.100   6.595   8.593  0.0617 -0.0972  0.1879
 1319ERGO   ROH16261   9.331  10.461   6.379 -0.3881 -0.2009 -0.0718
 1319ERGO    R116262   9.127  10.516   6.568 -0.1827 -0.0309  0.1086
 1319ERGO    R216263   9.170  10.508   6.840  0.0701  0.0217  0.0770
 1319ERGO    R316264   9.068  10.760   6.831  0.2084  0.0781  0.0988
 1319ERGO    R416265   9.010  10.666   7.103  0.0337  0.0419  0.0421
 1319ERGO    R516266   8.867  10.747   6.960  0.1445  0.1555  0.0014
 1319ERGO    C116267   8.821  10.994   7.248  0.1423  0.1066  0.0421
 1319ERGO    C216268   8.785  11.176   7.475 -0.0970 -0.2646 -0.0365
 1320ERGO   ROH16269  17.773   0.844  10.172 -0.0901 -0.0454  0.1144
 1320ERGO    R116270  17.673   0.726   9.935 -0.0080 -0.1019  0.1073
 1320ERGO    R216271  17.449   0.821   9.804  0.0326 -0.1367  0.0096
 1320ERGO    R316272  17.617   0.830   9.591  0.1047 -0.1812  0.0646
 1320ERGO    R416273  17.352   0.788   9.474  0.0867  0.1996 -0.0429
 1320ERGO    R516274  17.530   0.667   9.439 -0.0392  0.0203 -0.0727
 1320ERGO    C116275  17.454   0.777   9.082  0.1858  0.3536 -0.0218
 1320ERGO    C216276  17.300   0.714   8.858 -0.3211 -0.1278  0.1572
 1321ERGO   ROH16277  15.027  14.699   9.809  0.1868 -0.0207 -0.0097
 1321ERGO    R116278  15.109  14.738   9.540  0.1764 -0.0878 -0.0226
 1321ERGO    R216279  15.177  14.529   9.373  0.1267 -0.1320  0.0140
 1321ERGO    R316280  14.989  14.640   9.211  0.1375 -0.1295  0.0036
 1321ERGO    R416281  15.217  14.590   9.035 -0.0035 -0.5244 -0.0793
 1321ERGO    R516282  15.114  14.780   9.062  0.1850 -0.3976 -0.2164
 1321ERGO    C116283  15.065  14.731   8.687 -0.0692 -0.7505 -0.1432
 1321ERGO    C216284  14.994  14.673   8.393  0.1263 -0.1833  0.2168
 1322ERGO   ROH16285   8.615   4.622   9.843  0.1310  0.0718 -0.0106
 1322ERGO    R116286   8.688   4.572   9.574  0.0640 -0.0900  0.0005
 1322ERGO    R216287   8.632   4.333   9.446 -0.1065 -0.1088  0.1101
 1322ERGO    R316288   8.514   4.496   9.263 -0.0257 -0.1114  0.0550
 1322ERGO    R416289   8.691   4.322   9.106 -0.1145 -0.2590  0.1128
 1322ERGO    R516290   8.687   4.540   9.103 -0.0027 -0.2560  0.0371
 1322ERGO    C116291   8.615   4.468   8.735 -0.0433 -0.3490  0.0626
 1322ERGO    C216292   8.445   4.693   8.487 -0.5247 -0.0774 -0.2372
 1323ERGO   ROH16293   5.289   4.602   9.760 -0.0232 -0.1484 -0.0537
 1323ERGO    R116294   5.411   4.464   9.544 -0.1349 -0.1810 -0.0994
 1323ERGO    R216295   5.282   4.422   9.303 -0.1536  0.0473 -0.1432
 1323ERGO    R316296   5.505   4.540   9.201 -0.0232 -0.1232 -0.0533
 1323ERGO    R416297   5.399   4.376   8.981 -0.0043 -0.0879 -0.0688
 1323ERGO    R516298   5.602   4.371   9.061 -0.0577 -0.2054  0.0340
 1323ERGO    C116299   5.677   4.460   8.698  0.2050 -0.3266  0.0588
 1323ERGO    C216300   5.629   4.358   8.383 -0.1724  0.0834 -0.0028
 1324ERGO   ROH16301  10.532  14.969   5.745  0.0604 -0.1284  0.0489
 1324ERGO    R116302  10.429  14.959   6.009  0.0546 -0.0262  0.0507
 1324ERGO    R216303  10.206  14.811   6.076 -0.0313  0.1137  0.0751
 1324ERGO    R316304  10.373  14.704   6.262 -0.0938  0.0467  0.0930
 1324ERGO    R416305  10.104  14.619   6.345 -0.1527  0.2662  0.1402
 1324ERGO    R516306  10.252  14.722   6.468 -0.0662  0.1966  0.0980
 1324ERGO    C116307  10.202  14.405   6.675 -0.2822  0.2921  0.1950
 1324ERGO    C216308  10.221  14.310   7.021 -0.0446  0.0474  0.0769
 1325ERGO   ROH16309   0.806  15.572   9.809 -0.0196 -0.1462 -0.0414
 1325ERGO    R116310   0.734  15.613   9.538  0.0119 -0.2624 -0.0677
 1325ERGO    R216311   0.813  15.836   9.395 -0.3251 -0.1102 -0.0250
 1325ERGO    R316312   0.908  15.651   9.221  0.0756  0.0604  0.0023
 1325ERGO    R416313   0.831  15.878   9.053 -0.3643 -0.1020 -0.0263
 1325ERGO    R516314   0.767  15.671   9.029  0.0540 -0.2418 -0.0177
 1325ERGO    C116315   0.931  15.728   8.689 -0.0109  0.0628 -0.0016
 1325ERGO    C216316   0.908  15.792   8.275  0.1264  0.1774 -0.4081
 1326ERGO   ROH16317   5.493   8.808   6.082  0.1310 -0.1581 -0.0179
 1326ERGO    R116318   5.513   8.832   6.363  0.0519 -0.2527 -0.0027
 1326ERGO    R216319   5.340   8.987   6.513  0.1383 -0.1265 -0.0222
 1326ERGO    R316320   5.304   8.756   6.651 -0.1277 -0.1357 -0.1030
 1326ERGO    R416321   5.201   8.964   6.828  0.2713 -0.0687  0.0410
 1326ERGO    R516322   5.350   8.814   6.878  0.0765 -0.3067 -0.1033
 1326ERGO    C116323   5.086   8.733   7.142  0.0992 -0.0435  0.0018
 1326ERGO    C216324   4.804   8.807   7.500 -0.5831 -0.0700  0.1848
 1327ERGO   ROH16325  13.738  12.466   9.804  0.2167  0.0201  0.0714
 1327ERGO    R116326  13.784  12.506   9.527  0.0645  0.0375  0.0474
 1327ERGO    R216327  13.942  12.335   9.377  0.0841  0.1163 -0.0230
 1327ERGO    R316328  13.720  12.322   9.220  0.0149 -0.0047  0.0835
 1327ERGO    R416329  13.932  12.198   9.060 -0.0079  0.0736 -0.0023
 1327ERGO    R516330  13.802  12.361   8.998 -0.1113  0.0050  0.0393
 1327ERGO    C116331  13.719  12.105   8.728 -0.1266 -0.0649  0.1097
 1327ERGO    C216332  13.653  12.022   8.371 -0.0926  0.0855  0.1474
 1328ERGO   ROH16333  15.008   1.833  10.046  0.0904 -0.1427  0.1902
 1328ERGO    R116334  15.119   1.677   9.838 -0.0257 -0.1335  0.1209
 1328ERGO    R216335  14.963   1.538   9.657 -0.1290  0.0457  0.0728
 1328ERGO    R316336  15.110   1.676   9.474 -0.0447  0.0204  0.1200
 1328ERGO    R416337  14.949   1.490   9.315 -0.1560  0.1637  0.0566
 1328ERGO    R516338  15.165   1.514   9.307 -0.1390  0.0389  0.0674
 1328ERGO    C116339  15.078   1.592   8.944 -0.0925  0.2087  0.0914
 1328ERGO    C216340  14.818   1.533   8.726 -0.0869  0.1777 -0.0013
 1329ERGO   ROH16341  16.185  11.062   6.411 -0.0561 -0.1555  0.0714
 1329ERGO    R116342  16.306  10.901   6.610 -0.0087 -0.1355  0.0585
 1329ERGO    R216343  16.558  10.952   6.709 -0.0521 -0.0271  0.1115
 1329ERGO    R316344  16.430  10.949   6.949 -0.0911 -0.1426  0.0904
 1329ERGO    R416345  16.705  10.862   7.009 -0.0764 -0.0942  0.1039
 1329ERGO    R516346  16.521  10.757   7.062 -0.0597 -0.1601  0.0381
 1329ERGO    C116347  16.670  10.807   7.409 -0.1271 -0.2416  0.0798
 1329ERGO    C216348  16.762  10.731   7.764 -0.0562 -0.1553  0.2924
 1330ERGO   ROH16349   9.875   2.455   9.791 -0.0200  0.0007  0.1433
 1330ERGO    R116350   9.911   2.590   9.545 -0.1060 -0.0415  0.1071
 1330ERGO    R216351  10.059   2.484   9.337 -0.0073  0.0115  0.1489
 1330ERGO    R316352   9.831   2.529   9.196 -0.0330 -0.2049  0.1181
 1330ERGO    R416353  10.047   2.550   8.998 -0.0097  0.1543  0.1765
 1330ERGO    R516354   9.892   2.698   9.038 -0.2048 -0.0539  0.2108
 1330ERGO    C116355   9.826   2.632   8.668 -0.0353  0.0343  0.1637
 1330ERGO    C216356   9.788   2.882   8.321 -0.1725  0.0649  0.0487
 1331ERGO   ROH16357  12.883  18.100   9.974  0.0786  0.0046  0.1810
 1331ERGO    R116358  12.843  18.200   9.712 -0.0362 -0.0393  0.1811
 1331ERGO    R216359  13.052  18.267   9.545 -0.1113  0.1700  0.1688
 1331ERGO    R316360  12.928  18.097   9.374  0.0516  0.0404  0.1780
 1331ERGO    R416361  13.014  18.320   9.205 -0.3133  0.2078  0.1964
 1331ERGO    R516362  12.813  18.239   9.220 -0.2039 -0.0717  0.2579
 1331ERGO    C116363  12.875  18.190   8.848 -0.2781  0.1083  0.2210
 1331ERGO    C216364  12.707  18.217   8.554  0.2225 -0.0315 -0.0820
 1332ERGO   ROH16365   1.341  11.612   6.146 -0.0036  0.1683 -0.0337
 1332ERGO    R116366   1.444  11.526   6.395  0.0621  0.1081 -0.0818
 1332ERGO    R216367   1.712  11.473   6.435  0.0843  0.1883 -0.1416
 1332ERGO    R316368   1.683  11.650   6.640  0.0523  0.0978 -0.0660
 1332ERGO    R416369   1.934  11.509   6.698  0.1548  0.2136 -0.2035
 1332ERGO    R516370   1.763  11.532   6.832  0.1841  0.0684 -0.1357
 1332ERGO    C116371   2.036  11.696   7.042  0.1658  0.1435 -0.1685
 1332ERGO    C216372   2.353  11.764   7.078  0.2087  0.4874 -0.2252
 1333ERGO   ROH16373  13.453  12.541   6.388  0.2372 -0.2185  0.0182
 1333ERGO    R116374  13.434  12.478   6.664  0.0118 -0.1081  0.0291
 1333ERGO    R216375  13.546  12.636   6.861 -0.0021 -0.1203  0.0444
 1333ERGO    R316376  13.293  12.634   6.961 -0.0712  0.0986 -0.1156
 1333ERGO    R416377  13.446  12.802   7.147  0.0120 -0.1963  0.0942
 1333ERGO    R516378  13.324  12.629   7.198 -0.2208 -0.0973 -0.0968
 1333ERGO    C116379  13.150  12.897   7.408 -0.0446 -0.0353 -0.0270
 1333ERGO    C216380  13.184  13.110   7.610  0.1923  0.1756  0.1329
 1334ERGO   ROH16381  10.312   4.471   9.731  0.1405 -0.0897  0.0279
 1334ERGO    R116382  10.290   4.549   9.460  0.0251 -0.0468  0.0518
 1334ERGO    R216383  10.493   4.508   9.277 -0.1224 -0.1602 -0.0673
 1334ERGO    R316384  10.296   4.384   9.136 -0.2869 -0.0101  0.0198
 1334ERGO    R416385  10.469   4.505   8.932 -0.1650 -0.2638 -0.0660
 1334ERGO    R516386  10.253   4.531   8.952 -0.1518 -0.0200 -0.0355
 1334ERGO    C116387  10.271   4.386   8.599 -0.3443 -0.1833  0.0165
 1334ERGO    C216388  10.215   4.267   8.235  0.2005  0.2130  0.0790
 1335ERGO   ROH16389  11.257   3.237   9.876  0.1221  0.0794 -0.0169
 1335ERGO    R116390  11.374   3.277   9.621  0.0378  0.1771 -0.0409
 1335ERGO    R216391  11.349   3.094   9.416  0.2006  0.1253 -0.0164
 1335ERGO    R316392  11.256   3.309   9.279 -0.0556  0.0117 -0.0251
 1335ERGO    R416393  11.311   3.108   9.072  0.1322  0.0498 -0.0122
 1335ERGO    R516394  11.386   3.313   9.078 -0.0891  0.1335 -0.0451
 1335ERGO    C116395  11.202   3.319   8.744 -0.1479 -0.1008 -0.0179
 1335ERGO    C216396  11.205   3.321   8.457  0.2437 -0.1753 -0.1210
 1336ERGO   ROH16397   3.740   2.955  10.173 -0.1294  0.1888  0.0797
 1336ERGO    R116398   3.886   2.825   9.968 -0.2375  0.1025  0.0563
 1336ERGO    R216399   3.865   2.898   9.702 -0.1827  0.1641  0.0680
 1336ERGO    R316400   4.135   2.920   9.721 -0.1623 -0.0595  0.0691
 1336ERGO    R416401   4.082   2.905   9.433 -0.1749  0.0127  0.0693
 1336ERGO    R516402   4.219   2.779   9.547 -0.2773 -0.1113  0.0558
 1336ERGO    C116403   4.462   2.930   9.294 -0.1512 -0.2853  0.0711
 1336ERGO    C216404   4.760   3.010   9.110 -0.2124  0.1767  0.0649
 1337ERGO   ROH16405   0.894   4.454   6.463  0.0529  0.2603  0.0057
 1337ERGO    R116406   0.915   4.460   6.745  0.0473  0.2032  0.0080
 1337ERGO    R216407   0.783   4.647   6.900 -0.0217  0.1227  0.0511
 1337ERGO    R316408   0.689   4.426   7.028  0.0548  0.0586 -0.0039
 1337ERGO    R416409   0.632   4.647   7.211  0.0930 -0.0290  0.1076
 1337ERGO    R516410   0.740   4.464   7.259  0.1333 -0.0324 -0.0078
 1337ERGO    C116411   0.456   4.439   7.512  0.2314 -0.1777  0.0889
 1337ERGO    C216412   0.129   4.470   7.670  0.6420 -0.1171 -0.2355
 1338ERGO   ROH16413  14.240   0.519   9.857 -0.2360  0.0005 -0.0080
 1338ERGO    R116414  14.191   0.720   9.664 -0.2053 -0.0680 -0.0874
 1338ERGO    R216415  14.360   0.764   9.449 -0.0588 -0.0076  0.0394
 1338ERGO    R316416  14.131   0.733   9.305  0.0749 -0.1768 -0.1409
 1338ERGO    R416417  14.341   0.779   9.105  0.1703  0.1942  0.0331
 1338ERGO    R516418  14.153   0.889   9.125  0.0262 -0.0313 -0.0237
 1338ERGO    C116419  14.115   0.759   8.768  0.4290  0.1529 -0.1397
 1338ERGO    C216420  14.101   0.635   8.489  0.1480 -0.0028  0.2534
 1339ERGO   ROH16421  12.192   8.077   6.427  0.0490 -0.0227  0.1183
 1339ERGO    R116422  12.133   8.021   6.698  0.3284 -0.3037  0.1241
 1339ERGO    R216423  12.325   7.932   6.876  0.7048  0.2556  0.0212
 1339ERGO    R316424  12.241   8.144   7.023  0.0568 -0.0416  0.1176
 1339ERGO    R416425  12.391   7.978   7.212  0.7118  0.3979  0.0031
 1339ERGO    R516426  12.187   8.051   7.237  0.4611 -0.2821  0.1210
 1339ERGO    C116427  12.350   8.204   7.546  0.1076  0.2018  0.0830
 1339ERGO    C216428  12.466   8.450   7.705  0.0519 -0.4151  0.2460
 1340ERGO   ROH16429  12.744   5.205   8.441  0.2101 -0.0584 -0.0797
 1340ERGO    R116430  12.521   5.342   8.333  0.2615 -0.0855 -0.2236
 1340ERGO    R216431  12.397   5.264   8.099  0.0712 -0.4470 -0.0112
 1340ERGO    R316432  12.175   5.263   8.255  0.1514  0.0330  0.1226
 1340ERGO    R416433  12.074   5.303   7.982  0.0523 -0.2059  0.1168
 1340ERGO    R516434  12.032   5.428   8.156  0.3006  0.0826 -0.0176
 1340ERGO    C116435  11.678   5.325   8.060  0.1165  0.3851  0.3168
 1340ERGO    C216436  11.435   5.365   7.836 -0.0499 -0.1115 -0.0048
 1341ERGO   ROH16437   1.665   1.338   9.828 -0.0783  0.2745  0.0978
 1341ERGO    R116438   1.726   1.481   9.591  0.1310 -0.0659 -0.0632
 1341ERGO    R216439   1.769   1.357   9.348 -0.3614 -0.3860 -0.0015
 1341ERGO    R316440   1.575   1.527   9.264  0.0056  0.0584  0.0112
 1341ERGO    R416441   1.756   1.502   9.035  0.0018 -0.2513  0.0408
 1341ERGO    R516442   1.691   1.687   9.128  0.3728 -0.1356  0.0844
 1341ERGO    C116443   1.566   1.746   8.773  0.5577  0.2443  0.0774
 1341ERGO    C216444   1.527   1.820   8.529  0.1786  0.1488 -0.0754
 1342ERGO   ROH16445   8.369  10.364   9.587 -0.2609  0.0967 -0.0605
 1342ERGO    R116446   8.367  10.271   9.319 -0.2529  0.0491 -0.0436
 1342ERGO    R216447   8.461  10.021   9.247 -0.0487  0.1212 -0.0250
 1342ERGO    R316448   8.214   9.997   9.135 -0.0593 -0.1211  0.0448
 1342ERGO    R416449   8.372   9.781   9.015  0.0416 -0.1446  0.2091
 1342ERGO    R516450   8.258   9.933   8.909 -0.0677 -0.3033  0.0912
 1342ERGO    C116451   8.089   9.618   8.775  0.0842 -0.5267  0.4111
 1342ERGO    C216452   7.979   9.460   8.424  0.0875  0.0107  0.5018
 1343ERGO   ROH16453   2.311   5.802   6.605 -0.1066 -0.0777  0.2029
 1343ERGO    R116454   2.520   5.720   6.776 -0.0739 -0.2180  0.0973
 1343ERGO    R216455   2.597   5.865   6.999  0.3027 -0.1337 -0.0782
 1343ERGO    R316456   2.555   5.629   7.127  0.0880  0.0215  0.1454
 1343ERGO    R416457   2.702   5.794   7.320  0.3368  0.0337 -0.0515
 1343ERGO    R516458   2.755   5.593   7.253  0.0941 -0.0873  0.1044
 1343ERGO    C116459   2.723   5.531   7.628  0.1552  0.2769  0.1740
 1343ERGO    C216460   3.008   5.545   7.896  0.0687  0.1716 -0.0204
 1344ERGO   ROH16461   4.343  17.556   6.138  0.1809 -0.3180 -0.0214
 1344ERGO    R116462   4.266  17.602   6.406  0.1218 -0.2112 -0.0566
 1344ERGO    R216463   4.203  17.397   6.581  0.1330 -0.1443  0.0245
 1344ERGO    R316464   4.392  17.515   6.737  0.0787 -0.0337  0.0082
 1344ERGO    R416465   4.267  17.314   6.910  0.0445  0.0595  0.0951
 1344ERGO    R516466   4.291  17.527   6.954  0.0142  0.0896 -0.0263
 1344ERGO    C116467   4.482  17.377   7.248 -0.0579  0.2818  0.1208
 1344ERGO    C216468   4.505  17.430   7.516  0.2350  0.1752 -0.0018
 1345ERGO   ROH16469   0.886   2.980   6.452  0.0738  0.0702 -0.0697
 1345ERGO    R116470   0.923   3.090   6.710  0.1287  0.0157 -0.0538
 1345ERGO    R216471   0.730   3.242   6.836  0.1897  0.0668 -0.0177
 1345ERGO    R316472   0.763   3.061   7.036  0.1357  0.0209 -0.0506
 1345ERGO    R416473   0.673   3.306   7.170  0.1673  0.0045 -0.0096
 1345ERGO    R516474   0.851   3.189   7.218  0.1390 -0.0357 -0.0146
 1345ERGO    C116475   0.670   3.173   7.553  0.1035 -0.0750 -0.0357
 1345ERGO    C216476   0.460   3.400   7.835 -0.1458  0.0388  0.0984
 1346W        W16477  15.137   2.898   2.085  0.0137  0.1510  0.0959
 1347W        W16478   7.850   6.728  14.675  0.0531  0.0938  0.2272
 1348W        W16479   9.678  16.497  12.949 -0.1995 -0.1811  0.1926
 1349W        W16480   8.389   4.645  14.113 -0.2572 -0.2965  0.0538
 1350W        W16481   3.304  13.092  15.694  0.3327 -0.0473  0.0739
 1351W        W16482   6.399  15.052   6.062  0.1024  0.3944 -0.0009
 1352W        W16483  14.471   7.838  15.378  0.0601 -0.2489 -0.2125
 1353W        W16484  18.330   7.581  15.954  0.3403  0.0635  0.1386
 1354W        W16485  17.368   4.389   2.527 -0.2837  0.1701  0.0922
 1355W        W16486   5.784   1.727  10.890  0.0608  0.0437  0.0965
 1356W        W16487  14.332   2.459   4.990  0.0564 -0.2278  0.2674
 1357W        W16488  16.229   5.628   0.665 -0.1127 -0.3091 -0.1236
 1358W        W16489  17.026  17.255   4.178 -0.0205  0.3671 -0.1319
 1359W        W16490  13.925  14.866   4.211  0.1094  0.2246 -0.0590
 1360W        W16491  15.156   4.313  11.122  0.1324  0.2478 -0.1170
 1361W        W16492   1.203   5.764   0.590 -0.1015 -0.0540 -0.0304
 1362W        W16493   2.563  17.858   3.866 -0.2905  0.0443  0.1732
 1363W        W16494   9.185   7.594   3.584  0.0379  0.0775 -0.2961
 1364W        W16495  10.477   9.420   5.362  0.0241  0.2036  0.0083
 1365W        W16496  14.589   5.519   4.079  0.0053  0.2305  0.0834
 1366W        W16497   8.010  10.215  11.696  0.1494  0.1351 -0.3399
 1367W        W16498  16.004   3.731   0.518 -0.0805 -0.3185  0.1624
 1368W        W16499  16.973  16.435   2.657  0.1323 -0.0486  0.1466
 1369W        W16500  14.735   5.823  13.574  0.0649 -0.0998 -0.0319
 1370W        W16501   4.658   6.495  15.465  0.1029  0.2848  0.1844
 1371W        W16502   0.873   1.017   3.005 -0.0865 -0.2069  0.2253
 1372W        W16503  10.860  11.020   0.236 -0.0905 -0.1243  0.0882
 1373W        W16504  14.344  16.971   3.228 -0.1338 -0.0200  0.1244
 1374W        W16505   0.757  12.904  14.679 -0.1718 -0.0338 -0.0977
 1375W        W16506  13.277   0.471   1.096  0.0884  0.0615  0.0105
 1376W        W16507  18.038   7.591  14.048  0.1248 -0.0973 -0.1994
 1377W        W16508  14.054  12.729   4.429 -0.3272 -0.1878  0.2546
 1378W        W16509  10.234  14.421  11.167 -0.0786 -0.0609  0.0811
 1379W        W16510   3.702  10.249   0.848  0.1566  0.0570 -0.0602
 1380W        W16511   0.869   5.334  13.747 -0.1357 -0.5486  0.1660
 1381W        W16512   7.242  15.580  14.925  0.0741  0.2633  0.0873
 1382W        W16513  16.003   3.753   3.857  0.1274  0.1173 -0.1316
 1383W        W16514   2.553  15.710   0.783 -0.0867  0.0061  0.0429
 1384W        W16515  11.182   4.270   2.022 -0.2169  0.1073 -0.2675
 1385W        W16516  13.032  10.102   6.472 -0.3235  0.0285 -0.3120
 1386W        W16517  10.891   7.215  13.587 -0.0155  0.1723  0.0785
 1387W        W16518   3.289   5.388  11.194 -0.1817 -0.0998  0.1841
 1388W        W16519   1.511  17.941  13.453  0.1134  0.0610  0.0240
 1389W        W16520   2.418  12.848  12.412  0.0719 -0.0387  0.0981
 1390W        W16521  13.415  10.284  13.926  0.0766  0.0290 -0.1181
 1391W        W16522  17.321   1.602   0.045 -0.0930  0.1607 -0.1109
 1392W        W16523   1.757   6.310  12.433  0.2323  0.0689  0.0668
 1393W        W16524   0.283  12.888  14.818 -0.2181  0.0741  0.2545
 1394W        W16525   3.269   5.220  12.562  0.2535 -0.1344  0.3370
 1395W        W16526   4.015  16.027  12.549  0.2493  0.2702 -0.0073
 1396W        W16527   1.386  11.418  15.525  0.2214 -0.1760 -0.0222
 1397W        W16528   3.924   7.095  11.097  0.0499  0.4752 -0.0226
 1398W        W16529   7.370  14.926  14.395  0.4101 -0.0917  0.1970
 1399W        W16530  11.818  13.282  13.368  0.0514  0.1744  0.0846
 1400W        W16531   5.519  14.511  10.468  0.0433  0.3304 -0.0235
 1401W        W16532   6.821   4.034  14.601 -0.6717  0.2893  0.0493
 1402W        W16533  12.096   3.620   1.202 -0.0841  0.1220  0.2699
 1403W        W16534   9.533   8.842  15.073  0.1704 -0.2769 -0.0332
 1404W        W16535  16.587   5.699  14.552 -0.0647  0.4144 -0.0169
 1405W        W16536   6.109  18.044   3.871 -0.1521  0.0199  0.0228
 1406W        W16537  12.799   1.508  11.424 -0.0184  0.2425  0.2576
 1407W        W16538   7.911  15.199  10.336 -0.2479  0.0181  0.1157
 1408W        W16539  12.436   5.687   2.361  0.0240  0.1247 -0.3252
 1409W        W16540   3.356   7.534   5.452  0.1340 -0.0376  0.6023
 1410W        W16541   4.828   1.421  12.780  0.1241 -0.0902 -0.1304
 1411W        W16542  12.385  14.845  12.175 -0.1790 -0.2365  0.2196
 1412W        W16543  12.646  14.122  12.487 -0.0468  0.0466  0.1762
 1413W        W16544  16.782   2.849   2.852 -0.0244  0.3968  0.1068
 1414W        W16545   2.464  11.246   0.663  0.1939 -0.0349 -0.0398
 1415W        W16546   8.224  16.170   4.229 -0.1355 -0.0458 -0.1295
 1416W        W16547  10.358  10.745  13.234 -0.0982 -0.2534  0.1187
 1417W        W16548  12.709  11.770   5.626  0.0795  0.1278 -0.1455
 1418W        W16549  13.704   2.193   3.890 -0.2673 -0.1578  0.2212
 1419W        W16550  14.220   4.353   5.007  0.2651  0.2397  0.0905
 1420W        W16551  12.757  13.401   0.425 -0.0745 -0.1145  0.0554
 1421W        W16552   8.681   9.262   1.456 -0.0212 -0.1574  0.2248
 1422W        W16553   0.350   6.094  10.989 -0.3068  0.1705  0.1616
 1423W        W16554  18.195   1.525   2.483  0.0826  0.0021  0.0661
 1424W        W16555  15.060  14.235  13.817  0.0218 -0.0935  0.1367
 1425W        W16556  15.882  15.229  15.496  0.3027 -0.0529 -0.3611
 1426W        W16557   0.519   6.116   5.372 -0.1107  0.1041 -0.2114
 1427W        W16558   9.749   5.397   4.890 -0.1154  0.3134  0.0178
 1428W        W16559   1.124   4.885  14.464  0.0037 -0.0586 -0.2855
 1429W        W16560   6.716   4.192  11.986 -0.1086 -0.1101 -0.1651
 1430W        W16561   7.974  13.897  14.820  0.0144 -0.0289  0.0122
 1431W        W16562  16.085   0.213   0.181 -0.0153  0.2631  0.0638
 1432W        W16563   9.430   1.400   1.083  0.3523 -0.2201  0.0756
 1433W        W16564   3.481   3.373  13.730  0.3191 -0.1622  0.1204
 1434W        W16565  15.030  12.354  15.253 -0.1626  0.6647 -0.1207
 1435W        W16566  14.130   1.326  14.350 -0.1918  0.1064 -0.1559
 1436W        W16567  13.785   9.395  13.704 -0.1212  0.0510 -0.0561
 1437W        W16568  16.142  11.771   4.107 -0.2877 -0.0927 -0.1095
 1438W        W16569   7.066  17.428   4.541 -0.0931  0.0421 -0.1441
 1439W        W16570   8.588   5.189   4.945  0.1447 -0.0430  0.0063
 1440W        W16571   4.053  18.231  15.800 -0.1795  0.0017  0.0917
 1441W        W16572  10.155  11.807  15.103 -0.0273  0.0186 -0.3319
 1442W        W16573  11.261  11.471  14.131  0.0845 -0.4259 -0.3709
 1443W        W16574  11.652   4.874  15.578  0.0288  0.2954  0.0771
 1444W        W16575   4.929   9.061  15.703 -0.1394  0.1839  0.0989
 1445W        W16576   3.454  10.895   2.437  0.0802  0.0815  0.0372
 1446W        W16577   7.617  12.778  12.443  0.0383  0.1587  0.4650
 1447W        W16578   3.439   5.783  11.799 -0.2809  0.0721 -0.2348
 1448W        W16579   0.160   0.558   2.305  0.1751 -0.2154  0.2664
 1449W        W16580  17.172  15.170  12.839 -0.2060  0.2153 -0.2419
 1450W        W16581   8.267   8.865   5.839 -0.0972  0.0509 -0.0490
 1451W        W16582   3.800   0.656   3.528  0.4392  0.0574 -0.1187
 1452W        W16583  15.687  18.142   3.051 -0.2285 -0.0590 -0.0219
 1453W        W16584   5.205  17.331   0.809 -0.1582 -0.3011 -0.2106
 1454W        W16585  13.280   5.242  14.023  0.0529 -0.0849  0.3076
 1455W        W16586   1.220  17.582  10.951  0.1385 -0.1292  0.1762
 1456W        W16587  13.893  10.785   0.796  0.0233 -0.1665 -0.0445
 1457W        W16588   7.067  15.249   5.406  0.1461 -0.3571 -0.0381
 1458W        W16589  10.073   1.213   0.630 -0.2417 -0.3257  0.0007
 1459W        W16590  14.042  10.732  14.456  0.4130 -0.2355 -0.2378
 1460W        W16591   6.678  16.998  14.509  0.1551 -0.0648  0.2133
 1461W        W16592  12.336   5.316  14.920  0.2161 -0.1227 -0.0227
 1462W        W16593  11.148  16.134   6.161 -0.3668 -0.0290 -0.0733
 1463W        W16594  10.660  17.956   3.550 -0.0987  0.1634  0.0563
 1464W        W16595   6.641  10.824  12.486  0.1679 -0.0898 -0.0230
 1465W        W16596   6.646   5.913  13.039  0.5067 -0.1163  0.1372
 1466W        W16597  12.076   0.682   1.151  0.3368 -0.1910  0.0053
 1467W        W16598  12.071   1.276   1.536  0.1737  0.1141 -0.1702
 1468W        W16599   3.594  10.720  12.244 -0.1671  0.0052  0.2446
 1469W        W16600   4.234   6.712  12.931  0.1143 -0.1821  0.2368
 1470W        W16601   7.902  13.084  12.084 -0.1944  0.0692  0.1184
 1471W        W16602   2.075   5.524  11.153  0.2531 -0.0766  0.1544
 1472W        W16603  18.289   9.391  11.288 -0.0789  0.0653 -0.3472
 1473W        W16604  11.469  15.118   3.554 -0.1719  0.0799 -0.2007
 1474W        W16605   1.477  11.971  10.685  0.0168 -0.1767 -0.0406
 1475W        W16606   0.925   8.130   0.771 -0.1606 -0.1933 -0.1641
 1476W        W16607   8.177  17.609   1.240  0.1290 -0.1423  0.0836
 1477W        W16608  10.841   7.214   3.778 -0.1140  0.1648  0.0948
 1478W        W16609   5.223   8.093  15.730  0.0773 -0.2154  0.1384
 1479W        W16610   4.270   3.184   3.279 -0.1474 -0.2161  0.0242
 1480W        W16611   8.510  13.132  12.180  0.0467  0.1252 -0.3078
 1481W        W16612   0.558   8.947   0.958 -0.2949 -0.1584  0.1463
 1482W        W16613  16.265  11.304  13.938  0.1816 -0.0538  0.0367
 1483W        W16614   9.248   6.079   4.647 -0.1016 -0.1772  0.1592
 1484W        W16615   3.405   2.555   2.837  0.0321 -0.0041 -0.0342
 1485W        W16616  13.920  13.914  10.888 -0.0210  0.1705  0.1324
 1486W        W16617  18.335   4.339  11.356 -0.0049 -0.3297 -0.0000
 1487W        W16618   6.988   9.157   5.572 -0.1728  0.2452 -0.2847
 1488W        W16619   0.188   6.013  14.118  0.1685  0.0161  0.1450
 1489W        W16620  15.569   7.146  13.033  0.0276 -0.0839  0.0466
 1490W        W16621  14.721  15.672   0.337  0.3808 -0.0261 -0.2863
 1491W        W16622   1.420   2.394   1.943 -0.1062 -0.1067  0.2891
 1492W        W16623   0.461  15.715  11.116 -0.1795  0.1973 -0.4879
 1493W        W16624  10.355  16.247  15.280 -0.2399 -0.0167 -0.0592
 1494W        W16625  10.795   2.591   5.624  0.1573  0.2546  0.2867
 1495W        W16626  17.736  10.460   0.238 -0.5312 -0.3967  0.0773
 1496W        W16627   5.484   2.802  14.705 -0.2047  0.0156  0.0325
 1497W        W16628  11.839   9.273   5.175 -0.1385 -0.0166  0.0925
 1498W        W16629   3.765  16.360   6.295  0.1342  0.2027  0.1184
 1499W        W16630  11.461   0.294  12.614  0.0279 -0.0762 -0.1615
 1500W        W16631  15.783   5.574  15.692  0.0260  0.3109  0.2342
 1501W        W16632   2.852  15.177  14.257 -0.1552  0.0542  0.1108
 1502W        W16633   1.767  12.357  14.543 -0.4469 -0.2579 -0.1497
 1503W        W16634  13.084   5.068   5.093  0.3724 -0.2227 -0.0362
 1504W        W16635   4.388  11.343   3.951  0.1055  0.0335  0.0274
 1505W        W16636   5.204   3.591  14.152 -0.0095 -0.0243  0.3635
 1506W        W16637   6.130   1.847  15.373  0.2723 -0.1777 -0.1640
 1507W        W16638  17.242  10.311  10.038  0.0346 -0.3179 -0.0107
 1508W        W16639   0.784  15.983   4.275 -0.3518 -0.1538 -0.0361
 1509W        W16640   0.921   0.327  14.020  0.1636  0.0578  0.2122
 1510W        W16641  16.778  11.783   1.031  0.0073  0.0372  0.3316
 1511W        W16642  10.957  14.993  14.455 -0.2195  0.3703 -0.0877
 1512W        W16643   2.136   8.558   0.232 -0.0923  0.0474 -0.0007
 1513W        W16644  11.794   6.584  14.822 -0.0688  0.2489  0.0015
 1514W        W16645  14.192  16.158   2.175  0.1001 -0.3242  0.3931
 1515W        W16646   0.664  11.254   5.533 -0.1710 -0.1371  0.2253
 1516W        W16647  17.707   4.604   0.031 -0.0426  0.4859  0.1264
 1517W        W16648  15.936  14.778   5.918  0.0807  0.1569 -0.1299
 1518W        W16649   8.152   8.008  13.563 -0.1678  0.0369 -0.1107
 1519W        W16650  16.699   1.107   3.775 -0.1259 -0.2095 -0.4258
 1520W        W16651  16.893   0.979   1.005  0.0332 -0.3346  0.0987
 1521W        W16652   4.697   9.703  12.731 -0.0123  0.1273  0.2311
 1522W        W16653  18.319   0.693  15.751 -0.0440  0.0977  0.3274
 1523W        W16654   9.820   6.322  11.320 -0.1345 -0.3916  0.2174
 1524W        W16655  16.445  16.513   3.755  0.0163  0.0276  0.3690
 1525W        W16656   6.925   3.153  11.811  0.0163 -0.2859 -0.1616
 1526W        W16657   3.377  13.363  14.226  0.1093  0.0989  0.2196
 1527W        W16658  17.726  12.998  14.991 -0.0375 -0.2457 -0.2046
 1528W        W16659  11.952   6.961   0.954  0.5166  0.4023 -0.4278
 1529W        W16660   1.186  13.206   5.732  0.2628 -0.2387  0.4352
 1530W        W16661  16.568   4.984  14.413 -0.0148 -0.1221  0.1611
 1531W        W16662   5.791   1.173  15.073  0.1349 -0.1056 -0.2649
 1532W        W16663   6.191   1.415   0.560  0.1644 -0.1228 -0.0745
 1533W        W16664   9.552   0.447  11.125 -0.0397 -0.0820  0.1855
 1534W        W16665  10.919  15.266   0.238  0.0902  0.0723 -0.0619
 1535W        W16666  17.073   2.348  12.562  0.1325 -0.0185 -0.0192
 1536W        W16667   9.974  11.880   2.783  0.0330  0.1085 -0.1924
 1537W        W16668   3.516   7.450  13.559  0.2652 -0.2918  0.1554
 1538W        W16669  16.028   6.712   5.287  0.0090 -0.0779 -0.1829
 1539W        W16670   8.327  17.152  10.422 -0.1210 -0.2478  0.0088
 1540W        W16671   6.817  18.207  15.548 -0.0067 -0.1702 -0.3706
 1541W        W16672   6.907  11.935  15.482  0.3674 -0.1787 -0.0853
 1542W        W16673   6.655  17.008  16.033  0.0384  0.1627 -0.1310
 1543W        W16674  13.202  10.528  11.064  0.0457 -0.0591 -0.2997
 1544W        W16675   7.492  12.295  10.711 -0.1481  0.0704 -0.2826
 1545W        W16676  14.236   2.305   3.613 -0.0979 -0.0451 -0.0323
 1546W        W16677   1.963   6.763  13.695 -0.0273  0.0406  0.1709
 1547W        W16678  16.633  15.305  13.664 -0.1959  0.0029 -0.0758
 1548W        W16679  16.046  14.421  15.944  0.3134 -0.0008 -0.1709
 1549W        W16680  15.162   2.658   3.466 -0.0378  0.3167  0.2321
 1550W        W16681   2.120  10.214  13.412  0.0438 -0.0876 -0.0524
 1551W        W16682  10.307   6.527   2.747 -0.1041 -0.0641  0.1517
 1552W        W16683  10.829   5.290  11.743  0.0209  0.1398 -0.0202
 1553W        W16684   6.647  15.714  14.807 -0.1958  0.3947 -0.2624
 1554W        W16685  13.602  11.552  15.508  0.0216  0.2345 -0.1784
 1555W        W16686   5.435  12.118  12.160 -0.0281 -0.0408  0.3082
 1556W        W16687   5.778  14.804  15.300  0.1350 -0.0982 -0.4352
 1557W        W16688  17.115   7.030  15.387 -0.0854  0.0753 -0.0415
 1558W        W16689   4.151  11.296   1.878 -0.2003 -0.2067  0.0590
 1559W        W16690   8.146   4.456   2.281 -0.0398 -0.1275  0.2081
 1560W        W16691   5.091   0.868   4.167 -0.0044 -0.0260 -0.1597
 1561W        W16692  17.508  12.752  10.973 -0.0034 -0.0120 -0.0511
 1562W        W16693   2.930   7.677   2.850  0.1217 -0.0941  0.0059
 1563W        W16694   3.336   9.927   0.660  0.1599 -0.1160 -0.3987
 1564W        W16695  12.900   1.980   1.547 -0.0364  0.0563  0.2408
 1565W        W16696   1.981  13.713   0.920  0.0830  0.3256  0.1810
 1566W        W16697   0.246   9.187  15.611 -0.0715 -0.0954 -0.0408
 1567W        W16698  13.041   3.990  11.806  0.1083  0.2078  0.1125
 1568W        W16699  16.246   6.210   0.982  0.0833  0.0528  0.1395
 1569W        W16700  16.550  16.905  13.643 -0.0853 -0.0759  0.1639
 1570W        W16701   3.682   7.959  13.577  0.2666 -0.0878  0.1195
 1571W        W16702  13.320   0.946  11.958 -0.1406  0.1660  0.2268
 1572W        W16703   5.628  11.109   1.151 -0.1202 -0.1732 -0.1029
 1573W        W16704  10.390  12.212  11.525 -0.1403  0.1336 -0.0203
 1574W        W16705   3.804  13.885  15.823 -0.0726 -0.1568 -0.3067
 1575W        W16706  17.371   3.884  15.295  0.2618  0.1115 -0.1206
 1576W        W16707   0.014   8.577   1.832  0.0782  0.0266  0.0601
 1577W        W16708  18.342  17.418   2.466 -0.1424 -0.1408  0.2912
 1578W        W16709   3.592   7.987   3.347  0.0960 -0.1313 -0.1148
 1579W        W16710  11.190  12.981  12.847 -0.0671  0.3446 -0.4129
 1580W        W16711   0.607  16.142  13.410  0.2219  0.0179  0.1846
 1581W        W16712  18.066  15.053  15.887 -0.0867 -0.3705  0.1449
 1582W        W16713   1.418  17.633  11.406  0.0357 -0.0323 -0.0960
 1583W        W16714  13.715  16.485   2.327 -0.0470  0.0461 -0.0647
 1584W        W16715  16.345  15.488   4.461  0.0137 -0.1992 -0.2770
 1585W        W16716   7.783   8.826  12.123  0.1280  0.0287 -0.4150
 1586W        W16717  14.273   1.514   4.443 -0.0860 -0.0727  0.0088
 1587W        W16718  14.697  12.186   0.017  0.4752  0.1240  0.2765
 1588W        W16719  12.738  15.724  14.037  0.5317  0.1426  0.0004
 1589W        W16720   1.779   6.915  15.550  0.0380 -0.3291  0.0256
 1590W        W16721   9.047   7.101  13.509 -0.0151 -0.2437  0.1219
 1591W        W16722   0.851  12.893   4.904 -0.2603 -0.0876  0.1314
 1592W        W16723  15.709   9.248  12.856  0.0487  0.1256 -0.0171
 1593W        W16724  12.001   5.298   3.571 -0.0736 -0.0001 -0.2320
 1594W        W16725   3.920   7.624   0.610 -0.3465 -0.1912 -0.1103
 1595W        W16726  16.093   5.611  10.675 -0.0971 -0.4112 -0.1546
 1596W        W16727   5.476  13.834   0.428  0.3759  0.0169 -0.1762
 1597W        W16728   5.374   1.057  13.774 -0.1118  0.2047  0.0693
 1598W        W16729  12.168   7.090   4.467  0.1639  0.2930  0.0540
 1599W        W16730   3.739   6.099  12.081  0.1161  0.1164  0.1500
 1600W        W16731  11.687   6.770   3.121  0.3719  0.1593  0.1526
 1601W        W16732   4.126   7.696  14.263  0.1255 -0.0905 -0.1334
 1602W        W16733   6.131   0.973  10.501 -0.0200  0.0169 -0.1448
 1603W        W16734   9.302   3.554   3.285  0.0880 -0.0093 -0.1856
 1604W        W16735  17.286   3.378  14.420 -0.3368  0.2065  0.1250
 1605W        W16736   9.589   7.735  14.163 -0.3181 -0.1306 -0.0064
 1606W        W16737   0.568  13.194   1.271  0.0679 -0.0598 -0.2482
 1607W        W16738  16.879  14.108  11.838  0.0647  0.4375  0.3072
 1608W        W16739   8.395   2.149   3.972 -0.0280 -0.0351 -0.3169
 1609W        W16740  17.163   1.993   0.515  0.2010  0.1415 -0.1230
 1610W        W16741  16.942  10.318  15.019 -0.4551  0.0761  0.1367
 1611W        W16742  17.376   7.900   4.267 -0.1589 -0.0562  0.0811
 1612W        W16743  16.183   8.272  11.647  0.1349  0.0386 -0.0603
 1613W        W16744   1.525   7.649   3.046  0.1463  0.1173 -0.1397
 1614W        W16745  18.156  16.750  13.658  0.2879  0.0193  0.1240
 1615W        W16746   1.894  15.939   3.777 -0.3568  0.2959  0.0113
 1616W        W16747  10.965  13.085  15.623  0.1288 -0.2278 -0.1706
 1617W        W16748  10.454   7.094  14.845 -0.2041 -0.0074 -0.1554
 1618W        W16749   6.165   0.834   4.317 -0.0612  0.0084 -0.0076
 1619W        W16750   5.246  17.130   1.352  0.0746  0.2015 -0.0437
 1620W        W16751   4.320  13.071   2.650  0.1524  0.0759  0.3583
 1621W        W16752  14.434   3.907   1.445 -0.2854  0.0270  0.0209
 1622W        W16753  13.610  15.695   4.733  0.0211 -0.0246  0.0381
 1623W        W16754   7.005  17.909   0.206  0.0767  0.1141 -0.0053
 1624W        W16755   3.000   9.676  10.928 -0.0718  0.0508 -0.1382
 1625W        W16756   6.511   3.239  13.604  0.1869 -0.0316  0.4241
 1626W        W16757   4.970   0.982  16.015  0.1233 -0.3315 -0.2177
 1627W        W16758   6.832  14.412   5.841  0.0984 -0.0112  0.1631
 1628W        W16759   7.566   9.701  11.010 -0.2037  0.0552  0.3702
 1629W        W16760   5.159  11.189   1.405  0.3007 -0.1979  0.2131
 1630W        W16761  13.609  11.175   2.713 -0.0827 -0.1657  0.0076
 1631W        W16762   3.872  15.382   3.761 -0.1283  0.0643  0.1970
 1632W        W16763   4.039  10.031  13.808 -0.1032 -0.2673  0.3113
 1633W        W16764   4.018  10.016  12.539  0.2728  0.0573 -0.1957
 1634W        W16765  14.713  12.420  12.012  0.1235 -0.3115  0.0011
 1635W        W16766  14.495  16.811  14.865  0.0033  0.2143  0.0597
 1636W        W16767  10.507  13.806   4.858  0.1271  0.0933  0.5089
 1637W        W16768   2.709   2.372  11.140 -0.2668  0.0920  0.2804
 1638W        W16769   2.478  14.276  10.869  0.0408 -0.2415 -0.2260
 1639W        W16770  15.403  10.188  12.030  0.3258  0.0211  0.1602
 1640W        W16771  13.882   8.527   4.928  0.1254 -0.3058  0.2432
 1641W        W16772  11.298   2.712   3.289 -0.2623 -0.1588  0.0327
 1642W        W16773  13.946   9.619   4.916  0.0400 -0.4028  0.2522
 1643W        W16774   7.722   5.524  14.689 -0.1355  0.1344 -0.0061
 1644W        W16775   3.950  12.974  11.259 -0.0449 -0.1583 -0.4870
 1645W        W16776   5.334  16.522   4.392  0.1810  0.0088  0.1423
 1646W        W16777   7.091   7.921   3.521  0.0847  0.1448  0.3595
 1647W        W16778  14.108  11.743  12.922 -0.0132  0.0658 -0.1210
 1648W        W16779  11.877   7.229   0.517 -0.1810 -0.1599 -0.0108
 1649W        W16780  16.437  17.601   1.351 -0.1177  0.0536 -0.0619
 1650W        W16781   3.594  12.758  11.514  0.1382  0.1090 -0.1155
 1651W        W16782  11.677   5.964   3.085 -0.0101  0.1182 -0.3003
 1652W        W16783   5.060   9.869   5.124 -0.1798 -0.0818 -0.2365
 1653W        W16784  10.018  12.748   0.791  0.1202 -0.0599 -0.1089
 1654W        W16785   3.630   3.642   0.592 -0.4159 -0.0526 -0.0611
 1655W        W16786   8.668   6.985  11.640  0.1688  0.1727  0.3010
 1656W        W16787   0.725   1.441  11.300 -0.1539  0.2544 -0.4244
 1657W        W16788  14.895  17.402   0.193  0.0138  0.0935 -0.0539
 1658W        W16789  15.993  13.033  12.076  0.1278  0.2105 -0.2410
 1659W        W16790   6.599   3.706  11.647 -0.1362  0.2649  0.2956
 1660W        W16791  11.782   2.473  11.234  0.3532 -0.4406 -0.0994
 1661W        W16792  15.113  11.502   4.279 -0.2067 -0.3712  0.0720
 1662W        W16793   7.516  18.212   1.128 -0.0780 -0.1743  0.3023
 1663W        W16794  15.833  10.057  10.039  0.0643  0.3206  0.1335
 1664W        W16795   8.696   5.421  12.579  0.1372 -0.0963 -0.0765
 1665W        W16796  16.580  10.862  15.502 -0.3452  0.0674  0.0212
 1666W        W16797   4.843   9.952  15.465  0.0016  0.0960 -0.3202
 1667W        W16798  10.646  16.853   1.543  0.3192 -0.5120 -0.2892
 1668W        W16799   7.660   5.395  14.137 -0.1370  0.1409 -0.1123
 1669W        W16800   0.225  13.662   0.305  0.1490 -0.0103 -0.1492
 1670W        W16801   3.024  16.357   3.119 -0.0110  0.1629 -0.0530
 1671W        W16802  12.229   9.455   2.964 -0.1298 -0.1392  0.0316
 1672W        W16803   7.755   1.306   2.917 -0.2112 -0.1178 -0.0734
 1673W        W16804  10.553   0.510   4.966  0.1084 -0.2223  0.0810
 1674W        W16805  13.524   7.746  14.061 -0.0578  0.1250  0.0585
 1675W        W16806   1.966   0.497  14.223  0.1781 -0.1205 -0.2143
 1676W        W16807  13.933   1.555  11.901 -0.1821 -0.1301  0.0550
 1677W        W16808   6.867   6.508  13.844 -0.1467  0.1572 -0.1511
 1678W        W16809   1.777   5.567  15.641 -0.1610  0.4200  0.1698
 1679W        W16810   6.132  12.489   1.002  0.0828  0.3338  0.1272
 1680W        W16811  17.645  12.784  15.889 -0.1059  0.1001  0.1391
 1681W        W16812   1.297  14.736   5.612  0.2106  0.1744 -0.3682
 1682W        W16813  12.858  18.343  11.759  0.4105 -0.0526  0.0753
 1683W        W16814  13.167  13.480   5.326  0.0668  0.3062  0.1075
 1684W        W16815   0.668  11.257   4.210 -0.0488  0.4266 -0.1520
 1685W        W16816   5.546  17.162  14.671 -0.1280 -0.0125  0.3013
 1686W        W16817   4.559   8.242   4.016  0.0722 -0.2417  0.1745
 1687W        W16818  10.466   2.274  13.096 -0.1969 -0.0014  0.0126
 1688W        W16819   6.487  10.905  13.592  0.0682 -0.3851  0.1407
 1689W        W16820   8.656   1.667   2.866  0.0399  0.1939 -0.2404
 1690W        W16821  17.956   9.054   5.615  0.1498  0.2187 -0.0721
 1691W        W16822  15.020   1.739   0.569 -0.0722  0.5423  0.1768
 1692W        W16823  11.103  16.249  11.257 -0.1780 -0.0477 -0.1292
 1693W        W16824   0.628   4.925  13.071 -0.1788 -0.1512  0.2606
 1694W        W16825  11.256   2.430  14.356 -0.0264 -0.1111  0.0589
 1695W        W16826  12.873   7.009   1.045  0.2962 -0.0739  0.0022
 1696W        W16827   7.083  17.321   2.281  0.1099  0.0625  0.1028
 1697W        W16828  15.670   3.576   4.824  0.2092 -0.1441  0.0064
 1698W        W16829   1.950  10.748  11.703 -0.1712  0.3309 -0.0057
 1699W        W16830   2.247  14.628   0.669 -0.0952  0.0810 -0.0767
 1700W        W16831   8.640  12.918  14.259  0.0943  0.1373 -0.1847
 1701W        W16832   3.405   9.873   4.730 -0.2857 -0.0037  0.1155
 1702W        W16833  13.029   3.631   4.517 -0.4785 -0.2632  0.2619
 1703W        W16834   3.202   8.275  10.745 -0.0226  0.1173 -0.3736
 1704W        W16835  12.829   2.712   2.051  0.3679  0.0721 -0.1812
 1705W        W16836   1.600   1.772  15.223 -0.0943 -0.1247 -0.0948
 1706W        W16837  14.328  14.540  12.496 -0.1365  0.0886 -0.1839
 1707W        W16838   6.767  15.632   4.174  0.2838  0.2851  0.0423
 1708W        W16839   2.850   3.933  12.402 -0.0994 -0.0979  0.1178
 1709W        W16840   7.782  15.831  10.891 -0.0624  0.2566  0.1993
 1710W        W16841  12.734  18.369   2.871 -0.0605  0.0585  0.0863
 1711W        W16842   8.428  12.358  15.729 -0.1062 -0.2059 -0.2141
 1712W        W16843   5.226   9.049   0.792 -0.0162  0.0155  0.5188
 1713W        W16844   3.192   5.918  10.139 -0.0159  0.0498  0.0673
 1714W        W16845   6.916   5.035   3.633 -0.1651 -0.1614 -0.1897
 1715W        W16846   1.825   0.318   2.164 -0.1431  0.0609  0.1932
 1716W        W16847   4.899   0.841   1.593  0.1815 -0.3047  0.1283
 1717W        W16848  15.840   1.209  10.133 -0.0879  0.0169  0.1339
 1718W        W16849   1.448   2.617   0.215  0.0558 -0.1594  0.0130
 1719W        W16850   7.760   2.826   1.771  0.1752  0.0108 -0.0311
 1720W        W16851   2.483   0.437  14.722  0.0152 -0.0314 -0.0767
 1721W        W16852  11.195  16.505  15.845 -0.0341 -0.0913 -0.1986
 1722W        W16853  12.980   6.883  13.570 -0.5179 -0.0003  0.1367
 1723W        W16854  17.732  12.310   2.117  0.5032  0.3270 -0.1204
 1724W        W16855   6.741   4.945  10.745 -0.2321 -0.1470 -0.1046
 1725W        W16856  17.318   0.982  12.995  0.1880  0.2415  0.0502
 1726W        W16857   2.821   9.983  15.718  0.1156  0.3339 -0.0274
 1727W        W16858   1.674  11.737  14.359 -0.0437 -0.3673  0.2689
 1728W        W16859   6.456  16.923  12.013  0.2109  0.0492  0.1869
 1729W        W16860  17.077  12.086  15.978  0.1014  0.1888  0.0732
 1730W        W16861   6.749   2.571   3.274 -0.1969 -0.0622  0.1157
 1731W        W16862  14.280   0.057  13.417 -0.1830  0.2029 -0.0437
 1732W        W16863   0.193  11.107   4.593 -0.3036  0.1071  0.2135
 1733W        W16864  10.420   1.224  10.094 -0.1146 -0.0300 -0.0689
 1734W        W16865   2.382  14.544   4.479 -0.1286  0.1473  0.0574
 1735W        W16866   0.549  17.503   5.218  0.0647 -0.3581  0.0648
 1736W        W16867   0.722   3.070   3.434  0.0038  0.1961 -0.1195
 1737W        W16868  15.945  13.376   1.127  0.3990  0.0796  0.0586
 1738W        W16869   9.261  13.734   0.245  0.3246 -0.1533  0.0681
 1739W        W16870   6.938  14.054   5.390 -0.0102 -0.3757  0.0783
 1740W        W16871  13.507   8.911   2.875 -0.1316  0.1034  0.0177
 1741W        W16872   4.450   9.958   5.720 -0.4839 -0.0967 -0.1879
 1742W        W16873   8.787  18.132  11.976 -0.3598 -0.0174  0.2132
 1743W        W16874   6.457  10.842   4.548  0.2461  0.0855  0.0564
 1744W        W16875  16.316  14.517   0.483 -0.2595  0.3324  0.0845
 1745W        W16876  16.040  16.097  15.746 -0.2885 -0.0322  0.1565
 1746W        W16877  16.570   8.845  12.310 -0.2710  0.0818  0.0156
 1747W        W16878   7.163  13.252  13.125 -0.2048  0.0719  0.0127
 1748W        W16879   5.502  14.629  14.423 -0.0555 -0.0115  0.2750
 1749W        W16880   2.869  15.874  12.107 -0.0098 -0.1557 -0.1091
 1750W        W16881  12.383   0.159  14.048 -0.4306 -0.1973 -0.2570
 1751W        W16882  12.678   7.991   3.256  0.0380  0.0487 -0.1106
 1752W        W16883   5.551   4.852  13.069  0.3618  0.3356  0.0024
 1753W        W16884  10.037  10.547   4.634 -0.0410 -0.1312  0.3530
 1754W        W16885  14.295  18.280   0.299  0.1548  0.1720  0.0635
 1755W        W16886  13.544   4.981   5.938 -0.0619 -0.0287  0.0179
 1756W        W16887   1.547   9.495   1.364  0.1084 -0.0755 -0.1664
 1757W        W16888  15.977   3.746  14.061 -0.4569  0.0615 -0.0045
 1758W        W16889  14.398  12.997  14.811 -0.1647  0.0593 -0.4220
 1759W        W16890   4.784   7.866  11.555  0.0290 -0.3561 -0.0646
 1760W        W16891  15.594  15.150  12.310 -0.2228 -0.1683  0.2321
 1761W        W16892  17.326   2.923   0.498  0.0930 -0.3135  0.0092
 1762W        W16893   8.063  11.356  12.368  0.1231 -0.0283 -0.0681
 1763W        W16894  15.255   7.056   4.218  0.0849  0.1891 -0.0863
 1764W        W16895   1.933  16.905   4.969 -0.1041 -0.0213 -0.2244
 1765W        W16896  14.202   4.771   3.533  0.0148  0.0104 -0.0701
 1766W        W16897  12.871   8.317  15.970  0.0104  0.0055  0.1301
 1767W        W16898   2.280  14.135   3.563  0.1872 -0.2248 -0.1536
 1768W        W16899  16.206  17.250  13.799 -0.3342 -0.1261 -0.0384
 1769W        W16900   3.487  15.462  13.006 -0.0674  0.0803  0.0003
 1770W        W16901   0.979   5.135   0.065 -0.2777 -0.3629 -0.1600
 1771W        W16902   4.692  13.392   2.258  0.1250 -0.0197  0.0762
 1772W        W16903  10.215  11.232   3.144  0.1807  0.1677  0.1416
 1773W        W16904   2.629   1.314  12.584 -0.0349  0.0277 -0.0714
 1774W        W16905   1.121   7.132  10.885  0.1213 -0.0869  0.0042
 1775W        W16906   4.271   2.522  12.141 -0.0019 -0.0007 -0.2611
 1776W        W16907   3.161   5.798   0.937  0.1549 -0.0193  0.0027
 1777W        W16908   0.866   0.464  11.438  0.2206  0.4755 -0.0524
 1778W        W16909   6.789  14.798   2.950  0.2798  0.2881 -0.0417
 1779W        W16910   8.139   1.551   1.678 -0.2216 -0.1643 -0.0516
 1780W        W16911  11.383  12.841   3.448  0.3553 -0.2535 -0.0639
 1781W        W16912   1.831   5.594   1.098  0.0765 -0.1285 -0.1165
 1782W        W16913  12.323  13.360   2.595 -0.2043 -0.0481 -0.0064
 1783W        W16914  10.748  10.504  15.488  0.1900 -0.1628 -0.0969
 1784W        W16915  16.796   2.439   1.072 -0.0553  0.1068 -0.4436
 1785W        W16916   9.608  12.389  15.093 -0.2068 -0.1420 -0.3571
 1786W        W16917   6.068  16.782  14.103 -0.3703 -0.1540  0.0907
 1787W        W16918  12.117   3.711   4.667  0.1943  0.1460 -0.3200
 1788W        W16919  12.729  15.426   0.717 -0.1917  0.1545 -0.0725
 1789W        W16920  16.429  10.145  14.781  0.0775  0.0862 -0.6978
 1790W        W16921   9.288  11.295  15.522  0.1946  0.3318  0.1544
 1791W        W16922   7.146   8.102   2.909 -0.0492  0.1638 -0.2244
 1792W        W16923  14.858  18.304  13.678 -0.1274 -0.0374  0.2522
 1793W        W16924  15.954   9.043   1.532 -0.1837 -0.0816 -0.0605
 1794W        W16925   5.181   3.227   4.079  0.0835  0.3671 -0.1204
 1795W        W16926   4.180   3.808  12.294  0.2352 -0.2411 -0.1441
 1796W        W16927  11.576   1.091  10.545 -0.0471 -0.1282  0.1257
 1797W        W16928   6.498  17.859  12.874 -0.1960 -0.3735  0.0546
 1798W        W16929   4.642   7.552   0.564 -0.1976  0.1684 -0.3698
 1799W        W16930   5.836   2.619  15.618  0.2859 -0.1617 -0.0597
 1800W        W16931  13.946   1.482  13.097  0.0017 -0.1342 -0.2086
 1801W        W16932  11.270   4.427  14.430 -0.0286 -0.3497 -0.0697
 1802W        W16933   5.759   2.826   3.225 -0.4203  0.5968  0.4212
 1803W        W16934   1.997  10.038  14.561 -0.0669 -0.0476 -0.0432
 1804W        W16935   4.365   8.576  13.231 -0.0661  0.0637  0.0047
 1805W        W16936  16.223  13.695  13.043  0.1742  0.1930  0.2566
 1806W        W16937   2.854  17.580  12.440 -0.1902  0.0691 -0.2155
 1807W        W16938  14.410  17.138   2.356 -0.0130  0.1162 -0.0204
 1808W        W16939  15.891   8.527   2.255  0.2702  0.1052 -0.2518
 1809W        W16940   0.490   8.506  14.388  0.1934  0.3678  0.2301
 1810W        W16941  17.479   0.139   2.237  0.2326 -0.0614  0.1306
 1811W        W16942   2.701  11.497  16.087 -0.0513 -0.2165  0.1122
 1812W        W16943   6.442  12.339   1.936  0.1953  0.0099 -0.1302
 1813W        W16944  15.326   3.002   1.649 -0.0968  0.2918 -0.3491
 1814W        W16945  15.294   5.565  14.574  0.0486 -0.0177  0.0154
 1815W        W16946  13.880   8.695   2.293 -0.2745  0.1549 -0.0831
 1816W        W16947   0.412   2.294   2.778 -0.2705 -0.2676 -0.1699
 1817W        W16948  13.101   9.403  15.006 -0.0274 -0.0911  0.2987
 1818W        W16949   2.671   4.681   3.044  0.4331 -0.1364  0.0174
 1819W        W16950  13.720  11.670  11.282 -0.1388 -0.2288 -0.2447
 1820W        W16951  12.717   6.447  14.419 -0.0383 -0.2549 -0.2430
 1821W        W16952   7.162   7.721   2.620 -0.1130  0.3118 -0.0773
 1822W        W16953   2.579   8.104   0.926  0.0105 -0.1482 -0.3289
 1823W        W16954   0.923   8.650  15.813  0.2118 -0.4005 -0.0019
 1824W        W16955   9.345  18.356  11.360 -0.1076  0.1113  0.1126
 1825W        W16956  12.040  10.100  12.985 -0.0314 -0.4341 -0.1466
 1826W        W16957  12.455  12.726  15.170 -0.1093  0.2859  0.0476
 1827W        W16958   7.747  13.903   1.696  0.0984  0.2796 -0.0079
 1828W        W16959  10.557   9.460  15.283 -0.0660 -0.2866 -0.3470
 1829W        W16960  14.925   4.241  14.801 -0.0448 -0.0123 -0.0666
 1830W        W16961   2.737   6.527  12.834 -0.0762 -0.0155 -0.1940
 1831W        W16962   1.442   9.973  15.396  0.2346  0.0782  0.0504
 1832W        W16963  13.153   9.576   3.906 -0.0638  0.1862 -0.0219
 1833W        W16964   0.784  14.883   0.751  0.1101 -0.2353 -0.1858
 1834W        W16965  17.216  16.778   1.325  0.1217  0.2389  0.0371
 1835W        W16966   4.182  16.186   0.428 -0.2736  0.1124 -0.0891
 1836W        W16967   3.071   3.212  12.222 -0.2271  0.0276  0.0648
 1837W        W16968  11.167   2.064   3.118  0.0011  0.2508  0.2941
 1838W        W16969   3.144   8.646  11.754 -0.1093 -0.2490  0.0051
 1839W        W16970   8.080  11.943  12.569  0.2133  0.0186 -0.2323
 1840W        W16971   6.679  16.193  14.372  0.4573 -0.0292 -0.1188
 1841W        W16972   5.694  14.910   3.819 -0.0033 -0.3322 -0.0047
 1842W        W16973  14.231   3.915   5.275 -0.2741  0.1585  0.0036
 1843W        W16974   4.938  15.065  12.062 -0.1454  0.0467  0.1424
 1844W        W16975   8.776   1.077   0.465 -0.0716  0.1830  0.0518
 1845W        W16976   6.979   3.186   0.034  0.1052 -0.0292  0.0917
 1846W        W16977   0.308  15.212  13.495  0.0869 -0.1844 -0.0271
 1847W        W16978  15.538   2.556  14.593 -0.1134 -0.2463 -0.0473
 1848W        W16979  11.727   8.132   0.563 -0.0726  0.1174 -0.0367
 1849W        W16980   9.744   4.566   4.538  0.4295  0.0221  0.1131
 1850W        W16981  11.623  15.596   1.225 -0.1116  0.1513  0.1999
 1851W        W16982   0.695   9.274  12.895  0.1973  0.0338 -0.2940
 1852W        W16983   0.718  14.593  16.037  0.2482  0.0258  0.0226
 1853W        W16984   7.267  10.446  13.200 -0.1610 -0.1434 -0.0723
 1854W        W16985   1.392  10.622   2.027  0.0762 -0.2552  0.0459
 1855W        W16986  15.217  10.558   0.155  0.0454  0.2052 -0.1097
 1856W        W16987  11.887  15.910   0.975 -0.4670 -0.0558  0.2421
 1857W        W16988  12.839  12.974   0.724 -0.1556 -0.1705 -0.1261
 1858W        W16989  16.431   6.330   4.356 -0.0571  0.0749 -0.0943
 1859W        W16990   9.400   4.066   4.001 -0.2644 -0.1320  0.3055
 1860W        W16991   3.408   9.432   2.186  0.0368 -0.0278 -0.2155
 1861W        W16992  13.682  15.468  13.345  0.1911 -0.0770 -0.2669
 1862W        W16993   3.820  10.694   4.867 -0.1849 -0.4155 -0.0481
 1863W        W16994   5.579   8.352   4.326  0.2035 -0.3817 -0.0652
 1864W        W16995   4.966  13.023   4.982 -0.0200 -0.0380  0.1129
 1865W        W16996   6.914   8.846  11.905 -0.1226 -0.1765 -0.0090
 1866W        W16997  11.109  11.248  12.808  0.0812 -0.5127 -0.2212
 1867W        W16998   3.172   4.745   3.090 -0.1018 -0.0656 -0.1489
 1868W        W16999   0.242   2.269   4.929  0.1924  0.2641 -0.3182
 1869W        W17000   7.853   0.225  11.305 -0.0951 -0.0733 -0.1948
 1870W        W17001  10.397   6.209   4.095  0.1184  0.0246  0.1549
 1871W        W17002   6.860   2.131  13.269  0.1226 -0.2009 -0.1655
 1872W        W17003  10.201   6.116   2.931  0.1230 -0.0529 -0.0323
 1873W        W17004   9.301   8.718   2.531 -0.1975 -0.0116  0.1173
 1874W        W17005   8.213   6.890   0.612 -0.2593  0.0133  0.1038
 1875W        W17006  16.134  15.846  10.967  0.0539 -0.2209  0.0497
 1876W        W17007   1.445   7.250  15.930  0.1751 -0.0072 -0.0350
 1877W        W17008  17.931  11.067  12.101  0.1706  0.0527  0.0720
 1878W        W17009   8.834   4.061  12.812  0.0404 -0.0447 -0.2304
 1879W        W17010  18.269   8.490   4.993  0.1489  0.0446  0.0582
 1880W        W17011  11.398  16.769   4.924 -0.1383 -0.1038 -0.1596
 1881W        W17012   5.427  14.917   4.329 -0.1974 -0.1331 -0.1449
 1882W        W17013  17.004  12.020   4.664 -0.0606  0.0396  0.2632
 1883W        W17014   4.954   6.569  14.220 -0.1013  0.3190 -0.1845
 1884W        W17015  16.637   7.906  14.315  0.0983 -0.2557 -0.0179
 1885W        W17016   6.990   8.504  14.344  0.1433 -0.1714  0.0821
 1886W        W17017   9.373  12.219  10.966 -0.0464  0.0238  0.0954
 1887W        W17018   9.640   8.327   3.262 -0.0061 -0.0072 -0.1337
 1888W        W17019  13.385   1.750   4.272  0.1412 -0.2058  0.1217
 1889W        W17020  15.917  10.303  14.881  0.2929 -0.1718  0.3745
 1890W        W17021  13.552  10.490  13.014 -0.1600 -0.2032 -0.1603
 1891W        W17022   3.430  15.374   3.138 -0.2089  0.0012 -0.1604
 1892W        W17023   9.057   8.450  14.202 -0.0356  0.3025  0.0559
 1893W        W17024   8.313  14.785  13.389 -0.2240  0.2160 -0.0545
 1894W        W17025  12.165  12.576   0.057  0.1039  0.1413  0.0455
 1895W        W17026   8.317   5.658   0.913 -0.1445  0.1054 -0.2848
 1896W        W17027  16.403   3.204   5.263 -0.2662 -0.0135  0.1854
 1897W        W17028   7.507  17.402   2.524 -0.0671 -0.4277  0.0921
 1898W        W17029  11.716  10.168  15.852 -0.0953 -0.1596  0.2068
 1899W        W17030  13.163  16.881   5.515  0.1810  0.0981  0.3742
 1900W        W17031   0.597  11.640  15.375 -0.2041 -0.1359  0.1260
 1901W        W17032   2.144  16.887  12.552 -0.2507 -0.0064  0.1551
 1902W        W17033  16.689  15.592  15.302  0.3635  0.1866 -0.3699
 1903W        W17034  13.799   5.633  14.589 -0.2483 -0.0235 -0.0604
 1904W        W17035   8.459   7.319   3.758 -0.1607  0.0761 -0.0921
 1905W        W17036  14.371   1.396  13.612  0.5082  0.1564  0.0388
 1906W        W17037   6.469   3.684   0.994  0.0214 -0.2702 -0.3283
 1907W        W17038   3.324   2.000   2.706  0.1384 -0.0470  0.0826
 1908W        W17039   9.550  16.534   0.431  0.0651 -0.1329 -0.0564
 1909W        W17040   0.558   8.135   5.751 -0.1037  0.1385  0.0504
 1910W        W17041   1.377   8.026  10.727 -0.1950  0.1262 -0.1367
 1911W        W17042  17.942  15.740   3.416  0.1234 -0.1542  0.0736
 1912W        W17043  14.459  11.415   5.803 -0.0282 -0.0880  0.0702
 1913W        W17044  17.491   6.820   3.458 -0.3533  0.1253 -0.0066
 1914W        W17045   9.888  13.716  14.883  0.2416  0.1869 -0.3277
 1915W        W17046   7.462  13.226   2.162  0.0502 -0.2364 -0.2181
 1916W        W17047  11.297  10.201   2.298  0.0065 -0.2562  0.3245
 1917W        W17048   2.482   4.757  12.283  0.2095 -0.2381 -0.5379
 1918W        W17049  12.926   1.298   5.205  0.0382 -0.2548  0.1967
 1919W        W17050   6.213   1.846  10.362 -0.2076  0.1023  0.1605
 1920W        W17051   3.761  13.794  15.254  0.2562  0.2460  0.1293
 1921W        W17052   0.592   0.340  13.566 -0.0673  0.2152 -0.1363
 1922W        W17053   5.191  17.107   1.893  0.2118 -0.0738 -0.1815
 1923W        W17054   0.599  17.393  13.408 -0.0050  0.0241 -0.0984
 1924W        W17055   0.639   6.845  12.293 -0.0447  0.4109 -0.2098
 1925W        W17056  15.293  14.642  14.757 -0.0496 -0.0057  0.0159
 1926W        W17057  17.989  14.996   0.295  0.0094 -0.0055  0.1271
 1927W        W17058  10.079  15.423  15.861  0.3321 -0.0492  0.0230
 1928W        W17059   6.316   3.753  15.111 -0.3060 -0.0757  0.4244
 1929W        W17060  10.377  12.729  14.874  0.0587 -0.1017 -0.3609
 1930W        W17061   7.397  11.747   3.885  0.1564 -0.1165 -0.3414
 1931W        W17062  11.236  10.155  16.062 -0.0041  0.1234 -0.3637
 1932W        W17063   6.470   6.755   2.261 -0.1973  0.0156 -0.1057
 1933W        W17064   8.327   6.439  11.952  0.0731  0.2002 -0.0787
 1934W        W17065   0.234  15.555  15.341  0.1669  0.0056 -0.2016
 1935W        W17066   9.770  18.030  13.739  0.1232  0.0073 -0.1929
 1936W        W17067  15.536   2.705   4.259 -0.0735  0.3431  0.3351
 1937W        W17068  11.733   6.962   2.613 -0.1472 -0.1123 -0.1381
 1938W        W17069   4.384   5.003   2.866 -0.0586 -0.2708 -0.0686
 1939W        W17070  11.321   8.757   1.396  0.0741 -0.0105 -0.2579
 1940W        W17071   3.684   9.445  11.068 -0.1619 -0.2169  0.1794
 1941W        W17072  12.901   2.946   3.794 -0.0409 -0.2089  0.0312
 1942W        W17073  12.168   4.874  15.121 -0.0462 -0.0566 -0.0992
 1943W        W17074   2.388  11.432  14.596  0.4275 -0.4465  0.3050
 1944W        W17075  12.325   0.487   2.980 -0.0966 -0.0000  0.0922
 1945W        W17076  16.089   9.295   3.329  0.0265 -0.2385 -0.1120
 1946W        W17077  12.672  15.149  12.509 -0.0460  0.2257 -0.0025
 1947W        W17078  17.795  16.009  13.463  0.1947  0.0074  0.2595
 1948W        W17079   4.526   4.516   4.445 -0.1344 -0.0685 -0.1210
 1949W        W17080  13.351  10.673   1.512  0.4197  0.0476  0.0618
 1950W        W17081  16.638   7.914   2.313 -0.0496 -0.0411 -0.2548
 1951W        W17082   4.595  10.559  15.854  0.0366 -0.0837  0.2930
 1952W        W17083   0.355   3.402   0.944  0.1638 -0.2967 -0.2031
 1953W        W17084  14.643   6.389   0.420  0.0555 -0.0529 -0.1045
 1954W        W17085   6.789   3.553  12.122  0.2306  0.3931  0.2836
 1955W        W17086   8.139  16.268  13.943 -0.0080  0.0500  0.3026
 1956W        W17087   0.337   1.298  14.811 -0.0729  0.0228 -0.0040
 1957W        W17088  15.900  15.028  14.144 -0.0643 -0.0557  0.1640
 1958W        W17089   8.357   0.540  13.934  0.1008 -0.0386 -0.1584
 1959W        W17090   2.218   5.233   2.010  0.1153 -0.0627  0.1912
 1960W        W17091  15.106   2.593  15.633 -0.1718 -0.1055 -0.1645
 1961W        W17092   1.476  16.227  15.068 -0.2228  0.2642 -0.3463
 1962W        W17093  14.398  10.621  11.437 -0.1929  0.1226  0.1402
 1963W        W17094  10.380   0.540  12.163 -0.0859 -0.0958  0.0183
 1964W        W17095  12.326   8.472   1.583  0.0939  0.0933 -0.0562
 1965W        W17096  12.497   3.863  15.381  0.1810  0.1232  0.2653
 1966W        W17097  17.134  13.182  11.021  0.2168  0.1008  0.0096
 1967W        W17098   6.745   4.269   1.887  0.2977  0.0598  0.4762
 1968W        W17099   8.041  11.693   5.365 -0.0623 -0.1389  0.1346
 1969W        W17100  18.136   4.943   5.595 -0.0986  0.0314 -0.1368
 1970W        W17101   0.779  18.071   1.220 -0.0412 -0.0316  0.1289
 1971W        W17102  13.587   6.499  14.689  0.2666  0.3581  0.0355
 1972W        W17103   3.902   1.874   4.280  0.1348  0.2362 -0.1013
 1973W        W17104  10.662  12.094  14.340 -0.2333  0.2164 -0.0756
 1974W        W17105  15.489   6.028   4.053 -0.0750  0.1906 -0.0453
 1975W        W17106  10.205   4.289   2.521 -0.2188  0.0730 -0.3558
 1976W        W17107   3.326   0.644  15.133 -0.0807 -0.0923 -0.0237
 1977W        W17108   6.186  15.855  12.227  0.0934  0.0308 -0.1937
 1978W        W17109   5.741  10.144  14.017 -0.4070 -0.2461  0.1213
 1979W        W17110   7.648  14.456  13.041 -0.2208  0.1276  0.2596
 1980W        W17111   1.315  15.217   5.433 -0.0329  0.0286  0.0129
 1981W        W17112  15.665  16.134  12.352 -0.1500  0.2394  0.0446
 1982W        W17113   7.990  10.550  15.822 -0.1152  0.0295  0.0567
 1983W        W17114   4.877   0.360   4.414  0.2389 -0.2763 -0.2453
 1984W        W17115  13.052   0.906   2.209  0.1030 -0.1484 -0.2041
 1985W        W17116   2.335   4.193   1.829  0.2100 -0.4304 -0.0474
 1986W        W17117   5.120   3.018  13.626  0.2660 -0.0984  0.4359
 1987W        W17118   2.267   3.426  15.219  0.1400  0.1329  0.2534
 1988W        W17119   4.304   5.442   4.481  0.1037 -0.0262  0.1859
 1989W        W17120  16.723   7.836  13.798 -0.0401 -0.0574  0.1428
 1990W        W17121  14.955   6.628   0.796  0.1493  0.0331  0.0508
 1991W        W17122   9.996  18.305   1.875  0.1049 -0.0910 -0.0081
 1992W        W17123  13.789   2.478   2.947  0.3316  0.1403  0.0894
 1993W        W17124   8.553   0.803   2.195  0.1246 -0.1447 -0.0140
 1994W        W17125  18.337  11.557   2.497 -0.2786 -0.1697  0.3514
 1995W        W17126   0.049  16.436  12.191 -0.0721 -0.0505 -0.2299
 1996W        W17127  10.808   8.196  11.865 -0.2199  0.0620  0.0000
 1997W        W17128   6.804   2.396   1.033 -0.0400 -0.3648 -0.1358
 1998W        W17129  10.490  11.430  14.802 -0.2498  0.2386 -0.2339
 1999W        W17130   6.414  17.072   1.064 -0.1139  0.0453  0.2974
 2000W        W17131  15.213  14.360   4.642  0.0528  0.1604 -0.0701
 2001W        W17132  10.385   6.139  12.000 -0.3020 -0.1342  0.2192
 2002W        W17133   9.643   0.234  15.359 -0.1091  0.0846 -0.1874
 2003W        W17134  17.908   5.684   3.396 -0.0436  0.1375 -0.0933
 2004W        W17135  12.625  17.706   0.608 -0.1871  0.0595 -0.0552
 2005W        W17136  17.722   9.890   1.533  0.1977  0.1723  0.1370
 2006W        W17137   8.557  12.329  13.264  0.6938  0.0567  0.3429
 2007W        W17138   3.367  13.022   5.337 -0.0855  0.3325 -0.1629
 2008W        W17139  12.354   3.292   5.024 -0.1040 -0.0168 -0.1261
 2009W        W17140  10.561  10.714   0.649  0.0859  0.1860 -0.2317
 2010W        W17141   6.159   6.801   1.108 -0.1643 -0.1869 -0.0347
 2011W        W17142  13.230   3.359   1.741  0.0260  0.1472  0.3706
 2012W        W17143   6.054   5.210   3.702 -0.2726  0.2257 -0.1441
 2013W        W17144   5.907   2.780   3.734  0.0372  0.0830  0.4972
 2014W        W17145  14.715  14.200  13.363 -0.1615 -0.3201  0.1621
 2015W        W17146   4.189  14.120   4.353  0.4730 -0.1641 -0.0920
 2016W        W17147  13.783  17.861  11.131 -0.1371 -0.1992 -0.1903
 2017W        W17148   7.216   9.160   3.615  0.2520 -0.2633  0.3409
 2018W        W17149   4.718  17.592   0.697  0.1169 -0.0538  0.1541
 2019W        W17150  16.814  15.926   1.109  0.1516  0.2294  0.1635
 2020W        W17151   6.634   8.116  11.335  0.1384 -0.1213 -0.2289
 2021W        W17152   5.649  13.650  10.885 -0.0375  0.2401  0.2985
 2022W        W17153   2.633  12.519  13.577  0.1164 -0.1532 -0.0884
 2023W        W17154  17.640  11.988  10.610 -0.1508  0.0449 -0.2552
 2024W        W17155  13.258   6.586  15.713 -0.2349  0.1936  0.2399
 2025W        W17156  12.836  17.636  14.277  0.0942  0.0014  0.0027
 2026W        W17157  16.771  10.766   5.092  0.0094 -0.0621  0.0341
 2027W        W17158  10.752  17.117  11.516  0.2904  0.3837 -0.0233
 2028W        W17159   4.575  12.222   2.364 -0.3405 -0.1058  0.0733
 2029W        W17160   7.987  17.574  13.135 -0.1293  0.0343 -0.2109
 2030W        W17161  16.061  14.512  11.025 -0.1361  0.1936  0.1572
 2031W        W17162  16.720   9.896   0.871  0.2115 -0.0917 -0.1438
 2032W        W17163  15.017  11.211  15.051  0.4121 -0.2311 -0.2614
 2033W        W17164  12.028   9.656  15.513  0.2743 -0.0182  0.2063
 2034W        W17165   2.550  13.422  16.118  0.1187  0.0454  0.1175
 2035W        W17166   1.571  13.142  14.263  0.2261 -0.4476 -0.1626
 2036W        W17167   8.256  14.277  14.535  0.1947  0.0776  0.0630
 2037W        W17168  12.268  11.409   1.487  0.0256 -0.0204  0.0879
 2038W        W17169   6.054   2.443  14.261  0.4714 -0.0930  0.3144
 2039W        W17170  17.184  16.731  11.140  0.3109  0.1388 -0.2074
 2040W        W17171   8.475  13.746  14.764 -0.1445 -0.0380  0.2676
 2041W        W17172   2.817  13.428  11.892  0.1112 -0.0928  0.1369
 2042W        W17173   9.987   3.274   4.127 -0.1547 -0.0952  0.1028
 2043W        W17174   5.483  14.831  14.005 -0.0427 -0.0485  0.3562
 2044W        W17175   4.294   6.810   0.453  0.1725 -0.1013 -0.0483
 2045W        W17176   7.828  12.670   0.800 -0.3732 -0.0122  0.0714
 2046W        W17177  18.352   3.499  13.610 -0.0188 -0.0066  0.1252
 2047W        W17178  12.047   0.164   5.101 -0.0512  0.1699  0.0434
 2048W        W17179   9.762  13.876  15.674 -0.0963 -0.0394  0.0003
 2049W        W17180   4.246   7.409   2.694 -0.2057 -0.1277  0.0275
 2050W        W17181   7.995   6.207  13.980  0.3200 -0.0552  0.1157
 2051W        W17182  12.264   2.302   3.722  0.0602  0.1059 -0.0197
 2052W        W17183  15.448   6.163   3.582  0.5287  0.1683  0.1293
 2053W        W17184   1.513   9.831  14.010  0.4121 -0.0023 -0.4560
 2054W        W17185   1.280   7.268  14.829 -0.2260  0.2876 -0.3337
 2055W        W17186   7.847  10.062   5.528 -0.0293  0.0706 -0.0613
 2056W        W17187  15.679   7.996  10.823 -0.1134  0.1244 -0.1200
 2057W        W17188   2.513   0.210   0.342  0.0320 -0.2887  0.1760
 2058W        W17189  14.345  17.756   3.636  0.0132 -0.2246  0.0087
 2059W        W17190  15.964   4.303   0.772  0.2222 -0.1375 -0.0344
 2060W        W17191   2.797   9.204   0.005 -0.0953 -0.2825 -0.2388
 2061W        W17192   6.526  18.113   1.425  0.2700 -0.0320 -0.3338
 2062W        W17193  16.189  13.715   1.356 -0.2586  0.2294 -0.1850
 2063W        W17194  13.333  11.964  14.894 -0.3917  0.0378  0.0269
 2064W        W17195   8.675  14.476  15.371 -0.1801  0.0340  0.1397
 2065W        W17196   0.143   2.057   4.462  0.3421  0.1465  0.4010
 2066W        W17197   4.752   2.007   0.976  0.1200 -0.1301 -0.1311
 2067W        W17198   6.488   9.594  12.520 -0.1544  0.2238 -0.0970
 2068W        W17199   5.638   7.458   2.279 -0.1001 -0.3078  0.2872
 2069W        W17200   0.030   9.043   3.361 -0.0241  0.1343 -0.0882
 2070W        W17201   3.231  14.923  14.582  0.1637  0.0048  0.1520
 2071W        W17202   6.644  13.969   4.392  0.2224 -0.0836 -0.0800
 2072W        W17203   7.570  16.157  14.749  0.0294 -0.1075 -0.2194
 2073W        W17204   1.744   5.484  11.812 -0.0612  0.2002  0.0369
 2074W        W17205   6.480  15.169   4.569  0.2624  0.0677 -0.1875
 2075W        W17206   9.677  11.170  10.710  0.1147 -0.3144  0.0825
 2076W        W17207   6.023   9.498  14.732 -0.3423 -0.0479 -0.0505
 2077W        W17208   7.725  11.027   1.212 -0.0455  0.0627 -0.2249
 2078W        W17209  13.141   6.891   4.986  0.1773  0.0890 -0.1060
 2079W        W17210  17.392  12.254  10.977  0.1236  0.1301 -0.0890
 2080W        W17211   6.312   5.563   3.091  0.2863  0.0813 -0.4683
 2081W        W17212  14.977  10.875  15.452  0.1471  0.2551  0.0974
 2082W        W17213  10.541   2.364   0.792 -0.1785 -0.2141 -0.1874
 2083W        W17214   2.204  10.857   5.321 -0.1967  0.0883  0.1688
 2084W        W17215  10.426  13.680  12.682  0.0825  0.2292 -0.2527
 2085W        W17216  14.998   9.387   3.548  0.0726  0.0116 -0.0723
 2086W        W17217  11.143  12.272  13.103  0.0161 -0.2974 -0.3516
 2087W        W17218   7.877   2.138   2.470  0.2408 -0.1432 -0.0743
 2088W        W17219  17.492   2.477  15.685  0.1113 -0.0463 -0.2858
 2089W        W17220   6.253   0.013   5.331 -0.3763  0.2981  0.1734
 2090W        W17221  14.633   5.117  11.371 -0.1376 -0.2494  0.2292
 2091W        W17222   4.643  10.228   5.246  0.4137  0.2386  0.2829
 2092W        W17223  16.731   4.519   3.344 -0.0975 -0.0732  0.2156
 2093W        W17224   2.892   5.261   4.250  0.3849 -0.0854  0.0134
 2094W        W17225   0.904  10.929   0.098  0.0689 -0.3180  0.1293
 2095W        W17226  10.198  13.175  14.998 -0.0113  0.0819 -0.0123
 2096W        W17227  12.544   3.542   2.139 -0.0771  0.1001  0.0887
 2097W        W17228  13.361   1.579  12.728  0.2028 -0.0996  0.3331
 2098W        W17229   1.198   9.119   4.382  0.2814  0.0781 -0.0034
 2099W        W17230   1.318  15.769  13.678 -0.0092  0.2625  0.0567
 2100W        W17231   1.239   4.843  11.469 -0.3179 -0.4007 -0.2013
 2101W        W17232   9.338   1.077   2.844 -0.0917  0.2202 -0.1062
 2102W        W17233   3.477  16.131  10.225 -0.3602 -0.0100 -0.1778
 2103W        W17234   6.598   8.318  14.115  0.3200  0.1290  0.1490
 2104W        W17235  13.124   6.962  11.532 -0.0221  0.1048 -0.0445
 2105W        W17236   6.914  16.966  15.063 -0.1364 -0.0485  0.0394
 2106W        W17237   3.414   3.684   3.984  0.2413 -0.2104  0.1631
 2107W        W17238   1.957  13.579   2.794 -0.0125 -0.2477 -0.0420
 2108W        W17239   7.360  16.855  12.867 -0.0592 -0.3348  0.0242
 2109W        W17240   9.262   5.475  15.480  0.0378  0.0279  0.0548
 2110W        W17241   4.265  11.579  11.568 -0.3335  0.1970  0.1915
 2111W        W17242   9.528  15.622   0.954  0.1954 -0.0801 -0.0779
 2112W        W17243  16.118   9.737  14.122 -0.1758 -0.1143  0.1275
 2113W        W17244   4.458   5.030  14.390  0.2022 -0.3194  0.1595
 2114W        W17245   2.032   4.612  12.494  0.1925 -0.1421 -0.2213
 2115W        W17246   7.253   2.285   0.146  0.3466 -0.0538  0.1219
 2116W        W17247  10.564   5.814  13.370  0.0543 -0.1591  0.0064
 2117W        W17248  16.089   2.672  15.604 -0.3112 -0.2748 -0.0948
 2118W        W17249   4.714   4.591   2.805 -0.1783 -0.0445 -0.0006
 2119W        W17250   8.734   6.618  12.239  0.1922  0.3128  0.0850
 2120W        W17251   3.379   7.809  10.757 -0.1608  0.0353  0.1742
 2121W        W17252   0.141  15.198   3.748  0.1946 -0.0968  0.1102
 2122W        W17253   0.876   7.313   4.669 -0.0099  0.0103  0.3108
 2123W        W17254   0.291  11.765   0.066  0.1427  0.2369 -0.1965
 2124W        W17255   3.841   7.680  14.687 -0.0883 -0.0285 -0.0845
 2125W        W17256   2.349  17.784   5.441 -0.2722 -0.1472  0.1011
 2126W        W17257  13.104   9.199   1.333 -0.2467 -0.1320 -0.1238
 2127W        W17258  13.549  14.754  14.350 -0.1080  0.1899  0.0202
 2128W        W17259  11.873   7.627   5.369  0.1022 -0.0457 -0.1281
 2129W        W17260   7.462   8.865  11.734 -0.1878  0.3288  0.0289
 2130W        W17261   3.386  10.509   2.161 -0.0434 -0.0925 -0.0894
 2131W        W17262  16.651   4.738   5.640  0.2155  0.0502  0.0926
 2132W        W17263  17.166   7.805   5.162  0.1882  0.0100 -0.1328
 2133W        W17264  13.700  14.098   4.775  0.0218 -0.0249 -0.1984
 2134W        W17265   2.615  11.629  10.401 -0.0511  0.1117 -0.0719
 2135W        W17266   5.396   6.223  11.560  0.0943  0.1164  0.2256
 2136W        W17267   4.503   7.028   2.951  0.3014  0.2118 -0.1553
 2137W        W17268   5.602  18.144  13.876  0.2599  0.1634  0.2767
 2138W        W17269   7.241   9.694   2.711  0.0429 -0.4852 -0.3365
 2139W        W17270  17.656   7.183  15.249  0.0118  0.0359  0.0641
 2140W        W17271  15.143  14.060  11.236  0.3763 -0.2218 -0.0202
 2141W        W17272  10.780   8.829  15.321 -0.0683  0.4025  0.3603
 2142W        W17273  17.223  14.609   1.757  0.1281  0.1776 -0.0903
 2143W        W17274  16.728  18.106   3.676 -0.3302  0.2076 -0.1544
 2144W        W17275   5.047  12.415  12.489  0.2638 -0.2067 -0.1363
 2145W        W17276   2.807   0.000  12.763  0.0039  0.2121 -0.0276
 2146W        W17277   1.925   2.022  12.969 -0.2742  0.0464  0.0099
 2147W        W17278  10.773   3.490   1.394  0.0347 -0.0040  0.0150
 2148W        W17279   6.054  14.418  10.466  0.0061 -0.0318 -0.0457
 2149W        W17280   2.689  17.908   1.687 -0.0383 -0.1316 -0.0680
 2150W        W17281   1.346   8.980  15.236  0.0981 -0.1883  0.0476
 2151W        W17282   5.742  10.236   4.542 -0.1142 -0.1637 -0.2352
 2152W        W17283   3.450  13.280  11.370  0.1837  0.0653  0.1498
 2153W        W17284   7.621  10.935   5.142  0.1160 -0.2466  0.1958
 2154W        W17285   6.795   7.041   4.579 -0.0182  0.0105  0.1279
 2155W        W17286  12.190   1.243  14.138 -0.0074 -0.0541 -0.0043
 2156W        W17287  15.121   8.493   4.428  0.3047 -0.0606  0.2622
 2157W        W17288  15.598   6.273   3.088 -0.1712 -0.0088 -0.1891
 2158W        W17289   8.728  12.967   1.182 -0.2600  0.1248 -0.0782
 2159W        W17290   7.346   0.287  14.652  0.2392 -0.1901  0.1538
 2160W        W17291  15.274   1.386  16.042 -0.0326 -0.1318 -0.1337
 2161W        W17292  15.943  16.759   1.164 -0.1846 -0.0666 -0.1350
 2162W        W17293   6.949  16.164   2.648 -0.0327 -0.1336 -0.0894
 2163W        W17294   7.839  13.207   2.997 -0.1367 -0.0176  0.1521
 2164W        W17295   4.003   4.198   5.054 -0.2222  0.0771 -0.0953
 2165W        W17296   2.680   5.884   5.123 -0.1786 -0.0954  0.0002
 2166W        W17297  11.297  15.078  11.174 -0.0161  0.2146 -0.1339
 2167W        W17298   8.429   8.329  11.648  0.0743  0.2001 -0.1402
 2168W        W17299  12.889  14.403   1.282 -0.0582 -0.1240  0.2748
 2169W        W17300   3.277   9.076  13.305  0.1274 -0.0760  0.1422
 2170W        W17301   9.623  11.470  11.492  0.0234  0.3117 -0.0180
 2171W        W17302   5.933   9.843   0.777 -0.1714  0.0729 -0.2594
 2172W        W17303   3.581  18.004   3.940 -0.3623  0.1998  0.0144
 2173W        W17304  13.211   7.000   5.528  0.1809 -0.1174 -0.1597
 2174W        W17305  14.907   9.205  15.976  0.1009  0.0207  0.2374
 2175W        W17306   7.255   4.988   2.462 -0.0410  0.1037  0.0982
 2176W        W17307  17.529  10.375  15.886 -0.0957 -0.1358 -0.0038
 2177W        W17308  15.293   0.234  15.968  0.2305  0.0169  0.2951
 2178W        W17309  15.305   3.412  15.863  0.1643  0.1461 -0.1774
 2179W        W17310   0.158   4.439  14.995 -0.0962 -0.1813 -0.1073
 2180W        W17311   0.295   4.005  11.723 -0.4894 -0.0462 -0.0900
 2181W        W17312  10.848   1.519   0.896  0.2538 -0.1896 -0.0958
 2182W        W17313  15.283  13.437  13.693 -0.0279  0.2031  0.0740
 2183W        W17314   8.756   3.285   4.962  0.0525  0.2983  0.0221
 2184W        W17315   6.960  13.074  14.648 -0.1315  0.1062  0.3277
 2185W        W17316  15.360  11.295  12.849  0.2286  0.1220  0.2038
 2186W        W17317   3.027  15.723   0.531  0.3196  0.1916  0.0837
 2187W        W17318  15.928   6.829   3.763 -0.0578  0.2624  0.0817
 2188W        W17319  14.461   3.248  15.487 -0.0051  0.0920 -0.3296
 2189W        W17320   6.329   1.895  11.230 -0.1366  0.0426 -0.2527
 2190W        W17321  14.355   9.938   3.396 -0.2319 -0.1120  0.2017
 2191W        W17322  11.910   7.695   0.658 -0.0614  0.0591 -0.3631
 2192W        W17323   3.205   4.897  14.796  0.2274  0.0894  0.1783
 2193W        W17324   2.666   8.394  14.362  0.2142 -0.0245 -0.2103
 2194W        W17325   1.691  17.074  12.914  0.0575  0.2516  0.2019
 2195W        W17326  17.921   7.122  15.707  0.1037 -0.2325  0.1007
 2196W        W17327  10.904   7.274  12.587 -0.0590 -0.0835  0.1323
 2197W        W17328   5.106   2.548  14.356 -0.0794  0.1238  0.2893
 2198W        W17329   1.126  13.191   2.615  0.2946 -0.1963 -0.5457
 2199W        W17330   2.684  10.007  13.411  0.1333 -0.1622 -0.1316
 2200W        W17331   3.798  10.834   0.478  0.2695 -0.3915 -0.0793
 2201W        W17332  16.996   7.705  10.889 -0.2152  0.1215 -0.0621
 2202W        W17333   3.589  14.104   3.568  0.1265 -0.1508 -0.0822
 2203W        W17334  16.591  18.204  11.616  0.3382 -0.1692 -0.1434
 2204W        W17335   7.376   5.445   4.274  0.0170 -0.2227  0.1065
 2205W        W17336   0.971  14.311  12.259  0.2568  0.0399 -0.0472
 2206W        W17337  17.119  12.156   5.522 -0.2885  0.1288  0.0140
 2207W        W17338   3.907   3.460  12.018  0.3476 -0.3011 -0.0348
 2208W        W17339  12.346  16.803  14.687 -0.1390 -0.1327 -0.1439
 2209W        W17340  12.435   1.097  14.562 -0.2370 -0.0016  0.2476
 2210W        W17341   2.253   3.872   4.456  0.0359 -0.0640 -0.0764
 2211W        W17342   7.734  13.888  11.432  0.0249 -0.0682  0.1565
 2212W        W17343  12.597   1.315   5.701 -0.0414 -0.1772  0.0620
 2213W        W17344   2.642   6.690  10.946 -0.0461 -0.3823 -0.1054
 2214W        W17345   2.311   3.069   1.481  0.0349  0.4155 -0.3366
 2215W        W17346   2.657   3.992  15.851 -0.0657 -0.1484 -0.0049
 2216W        W17347   1.809   6.861   4.322  0.3144  0.0458  0.1414
 2217W        W17348   6.956   0.264  12.738 -0.1964  0.0487 -0.0408
 2218W        W17349   5.974  12.877  14.724 -0.0635  0.0390 -0.0766
 2219W        W17350   2.978  11.785   2.304  0.1128  0.3291  0.0292
 2220W        W17351  16.185   4.106   2.777  0.1710  0.1504  0.2841
 2221W        W17352   8.368   2.888   1.640  0.2304 -0.1724  0.0807
 2222W        W17353   1.378  16.636  11.288 -0.0644  0.2116 -0.3649
 2223W        W17354  16.274   7.650  15.433 -0.0112  0.1794 -0.2136
 2224W        W17355  10.487   2.979   5.729 -0.2198 -0.0622  0.0134
 2225W        W17356  14.021  14.365   2.711 -0.1425  0.1664 -0.2615
 2226W        W17357  11.370   9.333   5.539  0.1809 -0.1108 -0.1209
 2227W        W17358  16.309  16.890   5.005 -0.0536 -0.0102 -0.2897
 2228W        W17359  10.647  10.948  15.042 -0.3524  0.0014 -0.2610
 2229W        W17360   2.296  12.117  10.482 -0.2370 -0.2346 -0.0792
 2230W        W17361  18.029   4.694  13.586  0.0757 -0.1992  0.3892
 2231W        W17362   2.502  16.667   3.413 -0.0224  0.0262  0.1695
 2232W        W17363   6.268   6.973   3.397 -0.1996 -0.0129  0.1747
 2233W        W17364   5.710   6.117   0.294  0.0713  0.1397  0.1072
 2234W        W17365   2.964  14.673  14.151 -0.1806 -0.4274 -0.0050
 2235W        W17366   0.584   3.574  12.645  0.0767 -0.0624  0.1660
 2236W        W17367   8.151   6.898  13.432  0.0364  0.2968  0.0873
 2237W        W17368   4.483   4.471   0.223 -0.4558  0.2744 -0.1767
 2238W        W17369  10.484   0.396  16.059 -0.2426 -0.4246 -0.5116
 2239W        W17370  15.781   4.986   3.327  0.0184  0.2898 -0.0840
 2240W        W17371   9.231  15.050  13.389  0.2301  0.0965 -0.1600
 2241W        W17372  13.444   8.480  15.904 -0.1824  0.0802  0.2094
 2242W        W17373  17.031   0.203  14.675  0.0214 -0.1330  0.0089
 2243W        W17374  14.017  14.747  11.775  0.1350 -0.0562  0.0394
 2244W        W17375   6.884  13.641   1.860 -0.0163 -0.1839  0.3474
 2245W        W17376  11.903   1.229  10.979  0.1284  0.0163  0.0251
 2246W        W17377   1.514  17.192   6.315  0.0035  0.0336  0.1067
 2247W        W17378  13.063   6.685   4.352 -0.1637  0.0547  0.0382
 2248W        W17379   2.817   4.211   5.718  0.1628  0.2009 -0.1279
 2249W        W17380   8.816   3.378  13.628 -0.0396 -0.3560  0.1574
 2250W        W17381  10.583   4.921   5.010 -0.1914  0.0826 -0.1936
 2251W        W17382   2.788  16.531   0.071 -0.0592 -0.2687  0.1590
 2252W        W17383   6.946  16.778  11.892 -0.3392  0.4416  0.0509
 2253W        W17384  14.956   9.479   4.117  0.0096 -0.3234  0.1125
 2254W        W17385   6.102  11.531  10.483  0.0337 -0.1330 -0.2794
 2255W        W17386   4.055   3.922   5.496  0.0985 -0.0414 -0.0037
 2256W        W17387   5.183  15.378  10.729  0.2297  0.0031  0.2071
 2257W        W17388   7.210   6.004  16.023  0.1299 -0.0917  0.2526
 2258W        W17389   7.157   1.022  14.070 -0.1538 -0.3562 -0.2050
 2259W        W17390  16.299   5.136   3.360 -0.3211  0.0366  0.5563
 2260W        W17391   7.402   9.834   5.592 -0.0987  0.1286  0.1284
 2261W        W17392   7.382  14.521  14.124  0.0204 -0.0179 -0.3429
 2262W        W17393   6.013  10.511   0.005 -0.3450 -0.1216  0.2043
 2263W        W17394   5.351  10.413   3.021 -0.0285 -0.1599  0.0562
 2264W        W17395  10.166  17.763  12.475  0.0557 -0.1990  0.0544
 2265W        W17396   0.624   6.532  13.171  0.2223  0.0371 -0.0917
 2266W        W17397   0.855  13.897  12.470  0.1041 -0.4250 -0.0051
 2267W        W17398   3.191   1.852  11.885  0.2810 -0.1287 -0.1646
 2268W        W17399   4.981   7.762  15.406  0.2825  0.0891  0.3295
 2269W        W17400  15.555  14.358   4.024  0.3470 -0.2548  0.2582
 2270W        W17401  13.669   6.298   3.195  0.0294 -0.0788  0.4242
 2271W        W17402  15.043  16.500   0.754  0.1643 -0.0821 -0.1357
 2272W        W17403   0.278   3.877   5.344 -0.4009  0.1510  0.2340
 2273W        W17404   6.799  11.779   0.448 -0.0547  0.0680  0.0994
 2274W        W17405   0.539   5.898   1.972  0.2036  0.3351  0.0038
 2275W        W17406  10.915   9.606   5.629  0.0808 -0.0893  0.0542
 2276W        W17407   0.166   9.700   5.379 -0.0379 -0.0541  0.0245
 2277W        W17408   4.886   9.553   5.495 -0.3044 -0.0984 -0.1357
 2278W        W17409  11.604   3.936   4.900 -0.0720  0.0490  0.0894
 2279W        W17410  16.474   1.850  11.359 -0.0549 -0.1763  0.1081
 2280W        W17411  16.964   5.480   3.404  0.2418 -0.2635 -0.0418
 2281W        W17412   1.554  10.040  10.684  0.0139  0.1775  0.1925
 2282W        W17413  16.364   7.462  13.070 -0.1944  0.1627  0.0042
 2283W        W17414   9.024   3.030   0.465  0.2397 -0.3181  0.1142
 2284W        W17415  16.801   9.923   5.456  0.1819  0.5022 -0.0436
 2285W        W17416   6.808   2.829  12.694  0.0405 -0.2457  0.1166
 2286W        W17417   7.469  17.854  13.900  0.0888 -0.2575 -0.1267
 2287W        W17418  13.984   0.492  13.567  0.2458  0.0530  0.1370
 2288W        W17419  11.526  10.030  11.407 -0.2055 -0.0970 -0.1367
 2289W        W17420   4.279   7.491  12.517 -0.0090 -0.1527 -0.1919
 2290W        W17421  11.927  17.806  14.683  0.2903  0.3064  0.1256
 2291W        W17422  12.511   4.646  12.027 -0.5227 -0.1838 -0.1270
 2292W        W17423   3.773   8.987  13.624 -0.2565  0.1042  0.1319
 2293W        W17424   1.674   3.139   4.145 -0.0180 -0.1011 -0.1215
 2294W        W17425   6.359   8.746  15.500 -0.1521 -0.2668  0.4164
 2295W        W17426  14.239  16.876  11.740 -0.0302  0.1643  0.0560
 2296W        W17427   4.809  12.385  11.517 -0.0823  0.0228 -0.5060
 2297W        W17428  13.702  11.703  14.995 -0.3001 -0.0009  0.0483
 2298W        W17429  11.076   7.516   3.174  0.3656 -0.1642 -0.0209
 2299W        W17430   0.245  10.688  11.697  0.1196 -0.1033 -0.0771
 2300W        W17431  13.886  12.450  12.289 -0.1956  0.0486  0.1302
 2301W        W17432  14.970  12.370  15.755 -0.1864 -0.1859  0.0199
 2302W        W17433  16.936   3.239  12.404 -0.1521  0.0539  0.2028
 2303W        W17434   0.547   0.229   4.468 -0.1688  0.1353  0.2132
 2304W        W17435  15.730   9.410  14.302  0.3193  0.0030 -0.1973
 2305W        W17436   1.535  14.835   0.168 -0.1795 -0.0735 -0.2712
 2306W        W17437  14.820   8.317   2.504  0.1308 -0.0924  0.0049
 2307W        W17438   2.080   2.048  15.625 -0.1723  0.0199 -0.2906
 2308W        W17439  13.938  16.955  12.992  0.0226 -0.2905  0.0966
 2309W        W17440   8.304  14.571   0.679 -0.1101 -0.0186 -0.0581
 2310W        W17441   0.960   8.102   1.741 -0.0450 -0.2214 -0.0657
 2311W        W17442  18.261  15.277  11.753  0.0056  0.1280  0.1132
 2312W        W17443   0.576   1.894   0.797  0.1637  0.2604 -0.0538
 2313W        W17444  17.541  13.035   5.839 -0.0827 -0.2525  0.1275
 2314W        W17445  12.991  11.223   2.041 -0.1865  0.0102  0.1931
 2315W        W17446  16.053  12.453   0.612  0.0067 -0.2467 -0.0526
 2316W        W17447   4.897  12.989  13.201 -0.1793 -0.4217 -0.0011
 2317W        W17448   4.770   4.253   3.318  0.1322  0.2655 -0.0117
 2318W        W17449  14.777   1.728   3.072 -0.3217  0.4044 -0.0534
 2319W        W17450  14.041   7.416  14.738 -0.0672 -0.1779  0.0972
 2320W        W17451  18.141  15.757  11.991  0.2952  0.1656  0.0151
 2321W        W17452  10.991   7.109  10.859 -0.1428  0.1379  0.1133
 2322W        W17453   3.382   7.771  13.915 -0.0310  0.0131 -0.1955
 2323W        W17454   2.748   5.591   2.873  0.2833 -0.1718  0.0333
 2324W        W17455   3.277  17.344   1.285  0.1810  0.0728  0.2804
 2325W        W17456  14.967  15.466  10.964  0.3369  0.1648  0.0703
 2326W        W17457  16.018  12.354  15.032  0.0715  0.4100 -0.0711
 2327W        W17458   1.348   0.006  12.129 -0.0047  0.1114  0.2122
 2328W        W17459   5.502   0.395  13.061 -0.2098  0.0301 -0.1688
 2329W        W17460   7.089  10.773  10.831  0.2909  0.2832 -0.4308
 2330W        W17461   0.121  17.354   3.083 -0.0834 -0.0007 -0.1956
 2331W        W17462  13.419   1.818   0.242  0.3277  0.2014 -0.0712
 2332W        W17463   3.560   0.166   1.755 -0.0840 -0.2140 -0.1855
 2333W        W17464  13.109  11.304  12.186  0.1040  0.0249  0.1623
 2334W        W17465  15.174   0.366  13.574  0.2412  0.2464  0.4978
 2335W        W17466  16.346  15.095   2.611 -0.2195 -0.1600  0.0570
 2336W        W17467   0.637   3.597   4.703 -0.0400 -0.0070 -0.2978
 2337W        W17468   5.351  15.529   0.238 -0.2813 -0.0495  0.2353
 2338W        W17469  12.246   8.872   4.454  0.0071  0.0494  0.0512
 2339W        W17470  14.080  18.137  11.427 -0.1354  0.1491 -0.4600
 2340W        W17471   3.519  11.913   1.173 -0.0544  0.2805  0.1192
 2341W        W17472  16.640   4.896  11.965  0.1657 -0.0262 -0.3769
 2342W        W17473   7.126  10.929   3.887  0.0020 -0.0317 -0.2169
 2343W        W17474  16.256  17.593  15.499 -0.0748 -0.0158 -0.1584
 2344W        W17475  11.662  10.457  15.442  0.0579  0.0330 -0.2396
 2345W        W17476  14.401   4.728   0.989 -0.0005 -0.1612  0.2373
 2346W        W17477  15.537  10.991   2.351 -0.1718  0.5579 -0.3122
 2347W        W17478   5.074   8.111  11.150 -0.0412  0.1623  0.0946
 2348W        W17479  14.704   6.221  11.223  0.0510 -0.1391  0.0481
 2349W        W17480  10.081   4.646  12.865  0.1687  0.0911  0.1228
 2350W        W17481  11.833  13.260  13.918  0.2174  0.2139  0.1846
 2351W        W17482   6.689   7.409  11.709 -0.0089  0.4856 -0.1425
 2352W        W17483   7.261   2.151  10.918  0.0430 -0.2457  0.2288
 2353W        W17484   0.300   8.615  13.345  0.0830 -0.2392 -0.2339
 2354W        W17485   3.921  14.221   3.951 -0.0662 -0.2610 -0.0755
 2355W        W17486   0.144   4.797  13.288 -0.1719 -0.3008  0.1960
 2356W        W17487   5.121   1.304   3.942  0.2941 -0.3038  0.0321
 2357W        W17488   8.082  16.574   0.694  0.1212  0.1045  0.1085
 2358W        W17489   7.617  15.525   1.703 -0.0372 -0.1705 -0.0612
 2359W        W17490  10.595   6.398   0.217 -0.1252 -0.0516  0.2335
 2360W        W17491  12.729  12.071  14.833 -0.2126 -0.1116  0.0096
 2361W        W17492   1.859   9.103  15.190  0.0702 -0.0590 -0.2214
 2362W        W17493   4.642   9.442  13.162  0.0340  0.0430 -0.3581
 2363W        W17494   5.684  12.124  13.195  0.1186  0.1927  0.0179
 2364W        W17495  17.334  15.767  13.565  0.3630  0.0190  0.0405
 2365W        W17496   8.887  11.279   2.490 -0.2187  0.2308  0.0961
 2366W        W17497  14.306   0.767   0.562 -0.0951 -0.1330  0.0542
 2367W        W17498   1.538   3.004   1.878 -0.1229  0.1256  0.1422
 2368W        W17499  10.718  17.567  15.135 -0.1045  0.2527 -0.2635
 2369W        W17500  16.456   4.195   4.684  0.2291 -0.0352 -0.5534
 2370W        W17501  10.548   9.908   5.079  0.2271 -0.1123  0.0156
 2371W        W17502   7.279  17.542   3.660 -0.0444  0.1020 -0.2963
 2372W        W17503   6.289  12.351   5.242  0.2187 -0.1608 -0.1451
 2373W        W17504   4.351  18.048   0.744 -0.2284  0.0736  0.2225
 2374W        W17505   2.532   3.150   0.520  0.0368  0.1619 -0.1767
 2375W        W17506  10.374   4.593   2.178  0.0549 -0.0684  0.0330
 2376W        W17507   3.749   9.699  14.103  0.1667 -0.0389  0.0016
 2377W        W17508   1.187   3.406  11.877 -0.1724 -0.0052 -0.1484
 2378W        W17509  14.397  15.251   2.567 -0.2496 -0.0712  0.3111
 2379W        W17510   2.925   7.569   4.162  0.1654 -0.0248  0.2831
 2380W        W17511   2.697   6.043   0.917  0.0678 -0.2448  0.1831
 2381W        W17512   2.124   4.661   1.284 -0.0495 -0.1524  0.0824
 2382W        W17513  16.653   0.248   0.117 -0.0138  0.1765 -0.2459
 2383W        W17514   6.968  17.693   1.389 -0.1966 -0.0728 -0.2694
 2384W        W17515  12.629   2.305   4.590 -0.2402 -0.0772 -0.0718
 2385W        W17516   5.095  11.751  14.481 -0.4605 -0.2735  0.1466
 2386W        W17517  12.650  15.431  13.523 -0.0779 -0.0518  0.0396
 2387W        W17518   3.951  16.335  14.390  0.1964 -0.0700 -0.0363
 2388W        W17519   6.737   7.883  10.316  0.4641  0.0356 -0.1169
 2389W        W17520   7.907   0.762   4.420 -0.0973 -0.1117 -0.0371
 2390W        W17521  15.780   7.557  14.040  0.2326 -0.0395  0.2059
 2391W        W17522  12.898   0.479   3.806 -0.1213 -0.1800  0.4533
 2392W        W17523  17.517   1.268   2.472 -0.0641 -0.4428  0.0981
 2393W        W17524  14.508  16.896   0.209  0.0120 -0.1293  0.1416
 2394W        W17525  17.688  15.219  16.116 -0.1746 -0.1359  0.0139
 2395W        W17526  12.320   5.388  13.659 -0.2147 -0.1254  0.1060
 2396W        W17527   0.554  16.057  12.703  0.3008  0.0707  0.0785
 2397W        W17528  11.694  16.777  11.841  0.0729  0.1112  0.2652
 2398W        W17529   3.503   1.440   3.213  0.4192  0.0890  0.2431
 2399W        W17530  11.454  18.177  15.401  0.0578  0.3848  0.0418
 2400W        W17531  10.440  15.394   1.460  0.1724 -0.3731 -0.2915
 2401W        W17532   6.932   9.166  15.977 -0.1523  0.0805 -0.0211
 2402W        W17533  13.925  15.648  15.334  0.1721 -0.3763 -0.2612
 2403W        W17534   7.795   3.027   3.973 -0.0463  0.0532 -0.3012
 2404W        W17535   9.232  17.980   1.328  0.4681 -0.1814  0.0232
 2405W        W17536   6.435   0.248  13.828  0.2128  0.0012  0.1133
 2406W        W17537  13.967   7.934   2.696  0.1410 -0.0094  0.1993
 2407W        W17538   3.771   9.525  15.415  0.2856  0.1731 -0.1190
 2408W        W17539   4.135  13.295   0.519  0.2574  0.0101 -0.1509
 2409W        W17540   0.599   2.217   5.455  0.0554 -0.4222 -0.4523
 2410W        W17541  15.528   9.178   3.388  0.0649 -0.2394  0.0841
 2411W        W17542  12.266  11.790   3.533 -0.1362 -0.0293  0.3029
 2412W        W17543  10.749  15.149   4.831  0.2749 -0.1625  0.1042
 2413W        W17544   9.164   6.868  12.459 -0.1420  0.1150  0.1527
 2414W        W17545   6.477   0.374  15.294 -0.2771 -0.1866 -0.2362
 2415W        W17546   6.106   2.854   5.294 -0.1324 -0.3288 -0.2035
 2416W        W17547  16.402   9.656   3.477  0.2102  0.1508 -0.1195
 2417W        W17548   5.181  11.351   1.976 -0.2200  0.0716  0.0988
 2418W        W17549   8.094  10.514  15.349 -0.0402 -0.0600 -0.3827
 2419W        W17550   6.220  14.203  13.765  0.0741 -0.0299 -0.5426
 2420W        W17551  14.219   5.871   1.255 -0.3735 -0.3893  0.3065
 2421W        W17552  11.185  16.824   3.946 -0.1199  0.1462 -0.4984
 2422W        W17553   6.111   9.850   2.681  0.0150  0.3058 -0.1756
 2423W        W17554  12.104  11.775   0.539  0.1110  0.1592  0.2966
 2424W        W17555   4.121  16.542   2.250  0.3897  0.2397 -0.1240
 2425W        W17556   2.412  17.719  13.237 -0.0507 -0.1131  0.1001
 2426W        W17557   7.255  13.051  11.055  0.1914 -0.1275 -0.0081
 2427W        W17558   2.090   8.684   1.829  0.1399  0.2768  0.0174
 2428W        W17559  14.671   1.255   1.841 -0.1468 -0.1250  0.0017
 2429W        W17560  10.200  14.877  12.527  0.0654 -0.1432 -0.1684
 2430W        W17561   6.330   7.055   4.323 -0.1744  0.0036 -0.1438
 2431W        W17562  15.490   0.132  10.783 -0.1975 -0.0509  0.1705
 2432W        W17563  13.424   6.744   0.466 -0.1577  0.3136 -0.1540
 2433W        W17564   0.783  10.039  14.624  0.0659  0.1259 -0.2302
 2434W        W17565   6.817   5.660  11.847  0.1779 -0.0131 -0.2128
 2435W        W17566  13.053   3.371   0.537  0.1609 -0.1933  0.1719
 2436W        W17567   0.738   6.540   1.096  0.1679 -0.2565 -0.0894
 2437W        W17568   7.714  10.098   2.120  0.0601 -0.3676 -0.0678
 2438W        W17569  13.460   6.781  11.902  0.1730  0.1499  0.4079
 2439W        W17570  18.348  12.447   3.746  0.2000  0.2785  0.1627
 2440W        W17571   1.205   6.676   5.142  0.3023  0.0685  0.1667
 2441W        W17572   2.419  12.141   4.798 -0.2891 -0.0393  0.1496
 2442W        W17573   8.087   7.779  13.111  0.3871 -0.1758  0.0591
 2443W        W17574  16.277   1.975   1.979 -0.0943 -0.1467  0.3091
 2444W        W17575   5.602   3.662   5.397 -0.3273 -0.0177 -0.2264
 2445W        W17576   9.353   7.709  14.938 -0.1391 -0.0437 -0.0020
 2446W        W17577   4.231  14.056   2.834  0.3610  0.2335  0.1707
 2447W        W17578   8.304  13.830  11.648 -0.1882  0.2581 -0.1806
 2448W        W17579   3.600   5.412  11.542  0.1723  0.2221  0.2066
 2449W        W17580   1.644   9.517   5.040 -0.0117  0.1856 -0.0426
 2450W        W17581  12.353   8.720  10.501  0.0876  0.0051  0.2972
 2451W        W17582   8.808   2.098  11.264  0.1697  0.0298 -0.2327
 2452W        W17583  10.478  17.520   3.206 -0.0004  0.2761 -0.0230
 2453W        W17584  12.291  10.271  12.520  0.1638  0.2615 -0.0582
 2454W        W17585   0.055   8.279   5.813  0.1328 -0.0160  0.0152
 2455W        W17586   4.341  15.573   3.556  0.0658  0.1314  0.2391
 2456W        W17587  17.090   8.484  14.860 -0.1383  0.0135 -0.0611
 2457W        W17588   7.728  13.771  13.995 -0.0505 -0.0436 -0.0763
 2458W        W17589   8.686   1.909   5.574  0.3894  0.4572 -0.0059
 2459W        W17590   0.083   0.448   4.406  0.0056  0.4165  0.2608
 2460W        W17591  14.260  12.077  12.226 -0.2001  0.0531 -0.4366
 2461W        W17592   4.346   4.660   2.273 -0.2915 -0.3109  0.0572
 2462W        W17593   8.263   3.388  14.492 -0.5484 -0.0622  0.0794
 2463W        W17594   2.885  13.758   4.914 -0.0057 -0.2274 -0.0275
 2464W        W17595   9.268   1.685  15.935  0.1324  0.0476  0.3146
 2465W        W17596   5.060  16.299   0.765 -0.4478  0.2729 -0.1802
 2466W        W17597   4.579   6.230   9.886 -0.0186 -0.1757  0.1137
 2467W        W17598  14.489   3.568   5.516  0.0369  0.1026  0.0105
 2468W        W17599   5.328  11.399  13.458  0.1888  0.2337 -0.0190
 2469W        W17600   9.929   1.784  12.120 -0.0591 -0.0741 -0.5721
 2470W        W17601   1.597  18.078  11.207 -0.1367  0.0042 -0.0531
 2471W        W17602   9.925  11.033   1.466  0.0363  0.0103  0.2496
 2472W        W17603  15.884  17.875   1.561  0.0517 -0.1170  0.2947
 2473W        W17604   2.341  14.350   5.263 -0.1366  0.0822  0.1897
 2474W        W17605   5.620  12.563   3.848  0.0713  0.1697 -0.0603
 2475W        W17606  13.433   9.170   6.076  0.1824  0.1710  0.3483
 2476W        W17607   0.747  17.691  14.412  0.2783 -0.0320 -0.0286
 2477W        W17608   8.330   0.354   2.146  0.0200 -0.0862  0.1232
 2478W        W17609  13.336  12.934  11.204  0.2153 -0.1437  0.3276
 2479W        W17610   1.912  17.262   2.457 -0.1948 -0.1153  0.1882
 2480W        W17611   3.222  16.135   6.401 -0.1769 -0.1599 -0.0401
 2481W        W17612  17.937   0.986   4.026 -0.1732 -0.1848 -0.1294
 2482W        W17613  12.364   4.998  11.477 -0.1862 -0.1383  0.0067
 2483W        W17614   1.784  10.247  11.518  0.0386  0.1161 -0.0730
 2484W        W17615  15.111   6.952  16.016 -0.3078  0.2047  0.0647
 2485W        W17616   9.472  10.693   2.065  0.0880  0.1059  0.0673
 2486W        W17617  12.503  18.322  11.310  0.0462 -0.1548 -0.0135
 2487W        W17618  11.390   6.549  11.956 -0.0577 -0.0470  0.1820
 2488W        W17619   2.812   2.113  12.129 -0.0224 -0.0731 -0.3662
 2489W        W17620  11.473   4.040   3.651 -0.2751  0.0847  0.1927
 2490W        W17621  13.429  11.724   6.049 -0.0655  0.0213  0.2851
 2491W        W17622   9.875   0.414   1.991 -0.1940  0.0576 -0.1239
 2492W        W17623   5.531   1.716   2.900  0.1684 -0.3221 -0.1371
 2493W        W17624  11.797   2.781   1.820 -0.1017  0.1652 -0.0737
 2494W        W17625   2.407  10.051   2.351  0.0397  0.0042 -0.0387
 2495W        W17626  15.796  16.832   2.792 -0.0098  0.1211  0.1703
 2496W        W17627  15.348  10.237   4.387 -0.0563 -0.2325  0.0998
 2497W        W17628   6.573  12.869   3.354 -0.1344 -0.0731  0.4160
 2498W        W17629   7.575   3.995   1.890  0.2433 -0.2081 -0.0500
 2499W        W17630  16.191   9.424  12.995 -0.1817  0.1562 -0.0905
 2500W        W17631  14.585  11.426   2.468  0.2180 -0.3964  0.3653
 2501W        W17632   5.598   9.541  16.069 -0.0525 -0.1001 -0.1466
 2502W        W17633   1.762   4.857   2.454 -0.0810 -0.0247  0.3200
 2503W        W17634   5.656   2.637  11.900  0.0364 -0.0745  0.3060
 2504W        W17635  10.586   5.084   2.227  0.0313 -0.0281 -0.0416
 2505W        W17636   2.923  14.383  15.620  0.1026 -0.1098 -0.0042
 2506W        W17637   8.740   9.416  12.677 -0.0925  0.0200 -0.0729
 2507W        W17638   1.504  18.342  14.823  0.0063  0.1384 -0.0661
 2508W        W17639   7.656   2.362   3.223 -0.0688  0.1000  0.0955
 2509W        W17640   6.764   0.488   0.181  0.0445 -0.3767  0.0273
 2510W        W17641  14.087   3.664   3.162 -0.0947 -0.1099  0.0020
 2511W        W17642  16.754  10.981   3.357 -0.0087 -0.0293  0.0966
 2512W        W17643  15.860   8.188  11.249 -0.1857 -0.0510  0.0170
 2513W        W17644   7.444  15.109   4.115 -0.2412  0.0430 -0.0672
 2514W        W17645   8.996  13.849  14.073  0.1679  0.3585  0.0165
 2515W        W17646   5.403  15.016  15.659 -0.0484  0.2064 -0.3038
 2516W        W17647  17.159   1.308   1.839  0.0567  0.3510  0.2620
 2517W        W17648   1.465   4.160  12.243 -0.0457  0.2771 -0.0351
 2518W        W17649   9.958   9.747  13.621  0.1446 -0.0212  0.1884
 2519W        W17650   0.499  17.866   0.903 -0.0013  0.1261 -0.0283
 2520W        W17651   2.142   5.297  15.354 -0.1375 -0.0512  0.3828
 2521W        W17652   5.842  14.525   1.918  0.1842  0.1303  0.2588
 2522W        W17653   4.424  10.371   3.975 -0.0987  0.0465  0.0126
 2523W        W17654   0.896  12.604   3.917 -0.1428  0.0910 -0.3438
 2524W        W17655   7.528   2.237  13.827  0.0048  0.3561  0.1297
 2525W        W17656   6.412   2.185  14.591 -0.0911  0.1388 -0.2830
 2526W        W17657  12.323  11.311  12.794  0.1035 -0.0013  0.0620
 2527W        W17658  18.082  17.395  11.159 -0.2132 -0.1985 -0.1748
 2528W        W17659  14.969   1.607  13.170  0.0152 -0.2136  0.0457
 2529W        W17660  13.646   9.323  15.027  0.3808  0.0759 -0.2533
 2530W        W17661  13.467  17.486   5.556  0.0511  0.1915  0.3838
 2531W        W17662  16.888   9.213   5.374 -0.0412 -0.1076 -0.2766
 2532W        W17663   3.051  16.466  12.829 -0.1245 -0.2674 -0.0383
 2533W        W17664   8.186  12.733  13.428  0.0198 -0.0982 -0.1134
 2534W        W17665   7.774   7.001   5.486  0.2182  0.2345 -0.1205
 2535W        W17666   2.975   7.468  12.405 -0.0157 -0.2503  0.1458
 2536W        W17667   8.791  14.818  13.250 -0.0402 -0.0381 -0.0273
 2537W        W17668  12.319  13.814   3.442 -0.2988  0.1100  0.0520
 2538W        W17669  17.122   2.692   3.193 -0.0650 -0.1634  0.0299
 2539W        W17670  12.402  10.843  12.853  0.0119  0.1856  0.0289
 2540W        W17671  16.786   0.294  12.613  0.1620  0.1301  0.0773
 2541W        W17672  11.364   9.392  13.883  0.3083 -0.0482  0.2799
 2542W        W17673  15.963  16.484   4.542 -0.0960  0.1220 -0.2750
 2543W        W17674  13.411   6.841   2.485 -0.1050  0.0475 -0.0758
 2544W        W17675   7.406   5.916  11.787  0.3128  0.0333  0.0537
 2545W        W17676   0.204   5.883  14.617  0.2211  0.0413 -0.0867
 2546W        W17677  11.921   0.466  15.896 -0.0489  0.1817  0.5187
 2547W        W17678  14.089   4.812   5.208  0.0900 -0.0769 -0.2506
 2548W        W17679  14.569  11.406  12.868  0.0413 -0.4789  0.1244
 2549W        W17680   1.606  14.467  15.164 -0.0918  0.0045 -0.0149
 2550W        W17681   3.407  15.664  15.591  0.1293  0.0613 -0.0788
 2551W        W17682  10.326   3.302  15.011  0.1273  0.3543  0.0130
 2552W        W17683  16.688   9.566  12.993  0.1591  0.1258  0.3531
 2553W        W17684  10.882  17.497   3.507  0.1344  0.2530 -0.1599
 2554W        W17685   4.983   8.189   0.052  0.1387  0.0997  0.0530
 2555W        W17686   4.180   9.371  13.026  0.1460  0.1135  0.0237
 2556W        W17687   0.131  17.935   3.640 -0.1824 -0.1127 -0.0652
 2557W        W17688   2.655   2.956   3.056  0.2655 -0.1563 -0.0431
 2558W        W17689   5.995   7.376   1.269  0.4867 -0.0235  0.0039
 2559W        W17690   6.876   6.504  11.554  0.1309 -0.0294  0.3609
 2560W        W17691   6.548  15.287  13.265  0.1353 -0.3164  0.1221
 2561W        W17692   1.059   0.864   2.509 -0.2369 -0.1066  0.0921
 2562W        W17693  10.461  17.804  10.902 -0.2582 -0.1227 -0.0042
 2563W        W17694  15.771  15.443   3.642  0.0620 -0.0994 -0.1029
 2564W        W17695   8.483   2.147  15.955  0.1266 -0.0174  0.1402
 2565W        W17696  17.406   0.200  11.793  0.0517  0.1402 -0.1199
 2566W        W17697   8.412   9.653  10.917  0.1038  0.0914  0.2512
 2567W        W17698   1.001  16.454   4.081 -0.1166 -0.1960 -0.1970
 2568W        W17699   9.279   4.930   3.780  0.0795  0.2057  0.2215
 2569W        W17700  12.054   5.460   1.062  0.0166 -0.0330 -0.3147
 2570W        W17701   7.825   2.609  14.771 -0.2884 -0.0860 -0.0963
 2571W        W17702  10.228   2.703  14.456  0.1395  0.1956  0.0939
 2572W        W17703  14.934  16.156   0.168 -0.1768  0.2352  0.2211
 2573W        W17704  17.924  11.814   2.427 -0.2825 -0.0522 -0.3215
 2574W        W17705  15.138   8.462  14.369  0.2670 -0.1073  0.3949
 2575W        W17706  14.289  11.949  14.047  0.3271  0.0663  0.0761
 2576W        W17707  14.213   7.687   0.796 -0.0719 -0.1119 -0.3114
 2577W        W17708   2.075  16.289  10.459 -0.2598  0.2743 -0.2488
 2578W        W17709   1.748   6.270   4.906  0.2988 -0.0535  0.1001
 2579W        W17710   1.470   0.360  14.447 -0.0351  0.1509  0.0943
 2580W        W17711  16.718  10.096   1.864  0.1957 -0.2087  0.1495
 2581W        W17712   4.842   0.438  15.339 -0.1412  0.2776  0.3282
 2582W        W17713   6.367  18.143  11.420 -0.0254 -0.2745 -0.1105
 2583W        W17714   4.718   8.600  10.321 -0.0312  0.3350 -0.2271
 2584W        W17715   2.702   6.162  11.042  0.0289  0.2750 -0.2528
 2585W        W17716  12.501  12.501   5.241 -0.3103  0.0274 -0.2582
 2586W        W17717   4.555  13.303  12.844 -0.0488  0.1967 -0.0773
 2587W        W17718   3.145  11.621  13.286 -0.0192 -0.3960 -0.1718
 2588W        W17719   3.726   9.121   1.719  0.2302  0.1442 -0.3203
 2589W        W17720  14.415  10.907  10.349 -0.0206  0.0495 -0.3736
 2590W        W17721   3.890   5.871   0.204 -0.1871 -0.1064 -0.0692
 2591W        W17722  16.172   5.406  13.252  0.2106  0.0786  0.0456
 2592W        W17723  13.387   4.080   3.377 -0.4656 -0.3174  0.2788
 2593W        W17724  13.763   4.527  13.107 -0.1408 -0.1129  0.1174
 2594W        W17725   1.377  12.510   3.764 -0.2874 -0.0245 -0.2329
 2595W        W17726  16.423   8.521   1.564 -0.1563  0.2824  0.0932
 2596W        W17727   1.491  17.424   0.963 -0.0805 -0.1396 -0.1051
 2597W        W17728  13.082   8.419   5.437  0.2995 -0.0782 -0.1037
 2598W        W17729  10.382   3.527   3.904  0.0189  0.3059 -0.4696
 2599W        W17730  14.379   7.310   2.145  0.3163 -0.0620  0.3125
 2600W        W17731   5.907   3.865   2.534  0.2085 -0.2155  0.1376
 2601W        W17732   0.722  10.430  15.652 -0.1817  0.1533 -0.3051
 2602W        W17733   1.408  16.664  12.725  0.3270  0.0908 -0.0796
 2603W        W17734  17.439  11.855  14.466 -0.0275  0.0966  0.1067
 2604W        W17735   6.852  11.572   2.421  0.3164 -0.0787 -0.0667
 2605W        W17736  12.124  17.650   3.366  0.0125  0.0357 -0.3346
 2606W        W17737   3.323  18.141   4.842  0.2464 -0.1266  0.1775
 2607W        W17738  10.825  14.659  11.918  0.0796  0.0650 -0.2067
 2608W        W17739  11.389   6.183  15.888  0.2674  0.0930  0.2112
 2609W        W17740   8.409  17.225   1.455 -0.2176  0.1029  0.0459
 2610W        W17741  10.439   6.910  14.382  0.0129 -0.1424  0.1896
 2611W        W17742  12.134  16.470  15.975  0.0747 -0.1677  0.0059
 2612W        W17743   5.619   5.663  11.608 -0.1548 -0.3880  0.0779
 2613W        W17744   9.897   7.287  11.143  0.2410 -0.2930  0.0389
 2614W        W17745   5.205  13.848  14.737 -0.4060  0.0473  0.1213
 2615W        W17746   9.737   7.908  14.691  0.1185  0.2385  0.3939
 2616W        W17747  15.561   0.253   0.232  0.2252 -0.2123  0.0630
 2617W        W17748  16.764   2.389   0.081  0.0078 -0.0834 -0.1289
 2618W        W17749   6.493   9.142   2.082 -0.1547  0.0820  0.1337
 2619W        W17750   0.673   2.128  13.734  0.0403 -0.2117  0.0383
 2620W        W17751  16.432  17.670   0.061 -0.0455 -0.0011 -0.1322
 2621W        W17752  17.964   5.217   3.539  0.1563  0.1563 -0.2889
 2622W        W17753   7.651  12.303  14.087 -0.1455 -0.3561  0.3825
 2623W        W17754  15.822  13.862   4.059  0.0829  0.0531 -0.3355
 2624W        W17755   7.300   2.171   1.023  0.0077 -0.1472 -0.1638
 2625W        W17756  13.030   5.188   1.047  0.1224  0.2547  0.0510
 2626W        W17757  10.938  13.935   4.687 -0.1240  0.0466 -0.1577
 2627W        W17758  13.077  13.198  12.531  0.2609 -0.0821 -0.0655
 2628W        W17759  11.377  15.371  13.069 -0.1396  0.1389  0.2738
 2629W        W17760  10.586   7.954  15.870 -0.4040  0.1488  0.2474
 2630W        W17761   8.856   0.637  13.983  0.0572  0.1211 -0.1063
 2631W        W17762  17.516   2.351  10.999  0.2987  0.3342  0.0453
 2632W        W17763  17.669   1.090  12.621 -0.0355  0.0875  0.1366
 2633W        W17764   2.646   4.686  11.682  0.2799 -0.3039  0.0056
 2634W        W17765  12.817   4.142   3.548 -0.1999  0.0776  0.0221
 2635W        W17766   3.386  14.804  10.266 -0.1733  0.1778 -0.1080
 2636W        W17767   9.123  13.280   0.052  0.1033  0.0059 -0.0849
 2637W        W17768   1.761  11.570  16.123  0.1115 -0.1873 -0.0455
 2638W        W17769  14.023   0.310   2.476 -0.1070 -0.1518 -0.3291
 2639W        W17770   9.898  14.015  12.744  0.1151 -0.0337  0.3772
 2640W        W17771   8.890  11.026   1.909  0.0205  0.0162 -0.0487
 2641W        W17772  17.273   8.693   4.927 -0.1008  0.2021 -0.0656
 2642W        W17773  12.149  10.804   5.265 -0.0207  0.1508  0.2660
 2643W        W17774   8.882  16.604  15.190  0.1864  0.0715 -0.0305
 2644W        W17775  10.586   0.485  14.657 -0.1148  0.3176  0.0627
 2645W        W17776   9.583   8.645  11.214  0.0323 -0.0636 -0.0526
 2646W        W17777  12.570   5.144  10.964 -0.0735 -0.0533  0.1044
 2647W        W17778   6.817  15.345  12.219 -0.2060  0.1357 -0.1338
 2648W        W17779  16.379   1.668   3.010 -0.1044  0.2606  0.0578
 2649W        W17780  16.362   2.596   1.341 -0.0398 -0.3185 -0.1162
 2650W        W17781   2.861  16.479   3.760 -0.0881  0.1420  0.2042
 2651W        W17782  13.385   2.409   4.874 -0.0222 -0.0430 -0.1233
 2652W        W17783   3.992   6.180   4.971  0.1881 -0.1895  0.1444
 2653W        W17784  13.466   2.751   5.715  0.1348  0.0976  0.1438
 2654W        W17785   6.001  16.884  14.626  0.1861  0.0399  0.1474
 2655W        W17786  14.541   0.975  10.181  0.2448 -0.0816 -0.2806
 2656W        W17787   5.257  17.416  15.794 -0.0131 -0.2598 -0.0960
 2657W        W17788  17.203  12.488   4.474  0.0678 -0.0278 -0.1123
 2658W        W17789   0.308   4.570   0.793 -0.1109  0.1496  0.0651
 2659W        W17790   4.791   4.059   2.388  0.5455  0.0423 -0.1052
 2660W        W17791   1.734   9.969   3.945 -0.0485  0.2485 -0.0962
 2661W        W17792   1.917  16.982   0.095  0.3522  0.0846 -0.1711
 2662W        W17793  12.670   6.125   4.464 -0.0076 -0.0609 -0.1234
 2663W        W17794  18.321   6.479   3.817 -0.1810 -0.0190 -0.1682
 2664W        W17795   1.568   2.913   0.613  0.1830  0.1469  0.0496
 2665W        W17796  12.750   5.428   9.912  0.2321  0.1790 -0.2395
 2666W        W17797   9.884   6.906  10.201  0.0012  0.0678  0.0212
 2667W        W17798  10.910  13.708   4.043 -0.0502 -0.0693 -0.4388
 2668W        W17799  17.771   3.160   3.415  0.1002 -0.1871  0.3895
 2669W        W17800   4.437  14.128  11.118 -0.2655  0.1753  0.1588
 2670W        W17801  11.733   2.860   6.501  0.1506  0.2376 -0.1466
 2671W        W17802  11.306   6.462  14.542 -0.0555  0.2766 -0.3173
 2672W        W17803   8.395  11.563   3.637 -0.0190  0.2784 -0.1071
 2673W        W17804  14.314  14.747   2.803 -0.2940 -0.0333 -0.1372
 2674W        W17805  18.263   0.910  12.721  0.1143  0.2394 -0.2615
 2675W        W17806  17.233   7.188   3.656  0.0945  0.1297 -0.0222
 2676W        W17807  10.065   6.045   1.760 -0.0684  0.1291  0.1907
 2677W        W17808  10.533   9.165   3.939  0.2387 -0.1467  0.1431
 2678W        W17809  11.040  10.700   0.614 -0.0877 -0.1285 -0.0588
 2679W        W17810   3.428  15.105   4.319 -0.1320 -0.1043 -0.3141
 2680W        W17811   8.970   4.049   1.275  0.1634 -0.3541  0.2262
 2681W        W17812   6.762  13.002   1.301 -0.0118  0.0887  0.1983
 2682W        W17813  10.785   6.111  14.644  0.2973  0.2988 -0.2257
 2683W        W17814  15.936   0.983   6.434  0.1773  0.1103  0.0452
 2684W        W17815   8.783  11.846  11.726  0.1455 -0.2805 -0.0409
 2685W        W17816  16.975  10.694   5.923  0.0864 -0.1085 -0.1575
 2686W        W17817   8.113  12.464  11.458  0.3414  0.0916 -0.3107
 2687W        W17818   3.241   2.311  15.914 -0.2299 -0.0259  0.3147
 2688W        W17819  13.400   8.900  14.716  0.2061  0.3279 -0.1920
 2689W        W17820  14.348  13.844   1.207 -0.0753 -0.0085 -0.1237
 2690W        W17821  11.283  11.061   2.734  0.1595 -0.0344  0.1170
 2691W        W17822   9.767  12.044  10.500 -0.3001 -0.2486 -0.1019
 2692W        W17823   8.441   0.925   4.267 -0.0818  0.2531 -0.0129
 2693W        W17824   5.587  15.319   4.082 -0.0111  0.3395  0.2877
 2694W        W17825   5.015  10.915   2.368 -0.0038 -0.0843  0.1276
 2695W        W17826   7.258   0.803   4.882  0.0828 -0.0445  0.1713
 2696W        W17827   6.387   6.558   4.559  0.3749 -0.0174  0.0495
 2697W        W17828  15.710  18.153   1.167 -0.3567  0.2133  0.0455
 2698W        W17829  14.249   9.462  15.469  0.0239  0.2609  0.0374
 2699W        W17830   6.443   5.720   3.596  0.1407  0.2119  0.2252
 2700W        W17831   9.352  16.351  12.075 -0.2860  0.1015  0.0504
 2701W        W17832   7.078   7.966   4.524  0.0194  0.2376  0.0815
 2702W        W17833  11.758   1.800   2.574  0.2100  0.1083  0.1263
 2703W        W17834  10.261  13.311   4.882  0.1111 -0.3444 -0.5683
 2704W        W17835   7.154  15.675   2.661  0.1445  0.1230  0.2291
 2705W        W17836  14.683  12.407  12.604  0.3903 -0.0099  0.1042
 2706W        W17837   4.176   5.617  11.415 -0.0984  0.0206 -0.0329
 2707W        W17838   5.116   3.281  11.077  0.0276 -0.4188 -0.2682
 2708W        W17839  17.540   7.509   0.689 -0.0654  0.1467  0.0670
 2709W        W17840   9.092  12.985  13.062  0.0206  0.1649 -0.1376
 2710W        W17841  10.027   1.965  10.831 -0.1584  0.3088  0.1509
 2711W        W17842   6.526  16.610   4.883  0.2241 -0.1015  0.0252
 2712W        W17843   2.836   0.225   2.401  0.2160 -0.1603 -0.1636
 2713W        W17844  13.131   6.023  12.398  0.2983  0.3341 -0.0971
 2714W        W17845   1.659   9.140   3.692  0.1217  0.0728  0.0408
 2715W        W17846  18.136  14.313   4.704 -0.0153  0.0583  0.1995
 2716W        W17847  12.120  17.605  15.144  0.0659 -0.0947  0.4123
 2717W        W17848   4.322   7.499   3.172 -0.0459 -0.3479  0.2570
 2718W        W17849   0.839   1.444   2.664 -0.0614  0.0571 -0.2390
 2719W        W17850  11.890   3.193   0.268 -0.1718 -0.2193 -0.2516
 2720W        W17851  14.850  15.231   2.203  0.0863 -0.3223  0.2264
 2721W        W17852   0.894  16.189   9.945  0.0406  0.0052  0.0085
 2722W        W17853  10.513  18.142  13.209  0.0472 -0.2305  0.2953
 2723W        W17854  12.432   4.047  16.099  0.0094  0.2908 -0.2665
 2724W        W17855   0.457  14.271  15.661  0.1074  0.3467 -0.3079
 2725W        W17856  11.736  10.806   5.599  0.1205  0.1624  0.2406
 2726W        W17857  18.297   5.704   1.736 -0.0924 -0.2146 -0.1581
 2727W        W17858  17.226   2.163  15.427  0.0697 -0.1858  0.0023
 2728W        W17859  15.303  18.257  12.722 -0.1957  0.0211  0.2301
 2729W        W17860   6.787   5.932   0.661 -0.2233 -0.1691 -0.2307
 2730W        W17861   3.880  17.858  14.503  0.0508 -0.0432  0.0803
 2731W        W17862   2.442   9.404   2.461  0.4520 -0.2781  0.1987
 2732W        W17863  10.604   8.482   5.417 -0.1415 -0.1085 -0.1373
 2733W        W17864   8.301   9.774   5.191  0.3359 -0.1727 -0.0164
 2734W        W17865  17.309   4.372   0.332 -0.0732  0.2460  0.2566
 2735W        W17866  13.949   0.348   3.545 -0.0957 -0.2088 -0.2475
 2736W        W17867   5.171  17.175  11.495 -0.0157  0.2322  0.1373
 2737W        W17868   1.953   7.897   0.416  0.2404 -0.0229  0.2915
 2738W        W17869  13.713  12.057  13.731  0.0032  0.0906  0.0550
 2739W        W17870  15.192   6.847  11.599 -0.0762 -0.1291  0.0672
 2740W        W17871   1.829   7.172  10.353 -0.0369 -0.0678 -0.0068
 2741W        W17872  16.843   5.053   3.591  0.2598  0.0942 -0.0927
 2742W        W17873   5.830   9.934  14.759  0.0126 -0.0014  0.2903
 2743W        W17874  11.235   9.454  14.861 -0.0595 -0.2201  0.1315
 2744W        W17875  14.499   9.666   2.977  0.0336  0.0762  0.1026
 2745W        W17876   2.988   8.637   4.720  0.2094  0.0741  0.2511
 2746W        W17877  13.667   3.155   0.206 -0.0101 -0.0102 -0.2255
 2747W        W17878  11.778   8.058  11.695  0.3845 -0.2512 -0.3736
 2748W        W17879  11.746   9.426   3.677 -0.0239 -0.0349 -0.2361
 2749W        W17880  15.738   5.790  13.499  0.2689  0.1132 -0.4548
 2750W        W17881  14.766  13.020   2.951  0.2665 -0.1220  0.0500
 2751W        W17882  15.391  15.371   5.755  0.3022 -0.0604  0.3769
 2752W        W17883   5.345  12.326   5.509  0.0098  0.1948  0.3277
 2753W        W17884  16.822  14.950   2.778  0.1005 -0.0728  0.1022
 2754W        W17885   7.683   1.889  14.290 -0.0496 -0.0762 -0.1463
 2755W        W17886   6.603  16.421  11.142 -0.0039  0.0017  0.0927
 2756W        W17887   8.579  13.634   0.123  0.0752 -0.1234  0.0009
 2757W        W17888   7.730  15.669  13.480 -0.1926  0.2163  0.3380
 2758W        W17889   4.736   3.469   3.819  0.0656  0.0140  0.0161
 2759W        W17890  11.657   1.650   2.133 -0.0596  0.1117 -0.1747
 2760W        W17891   0.457   3.969  15.874 -0.1329 -0.0785  0.2304
 2761W        W17892   3.724   1.321   4.273  0.0649  0.1522 -0.1991
 2762W        W17893  11.736  10.954  11.729  0.0189  0.3114  0.0621
 2763W        W17894  13.178   1.185  12.546  0.4057 -0.2375 -0.0204
 2764W        W17895   2.049  13.023   6.032  0.5704  0.4318 -0.2513
 2765W        W17896  12.450  15.400   2.838  0.2245 -0.0263 -0.2139
 2766W        W17897   4.305  15.653   2.886 -0.0540  0.0020  0.1724
 2767W        W17898  17.340   1.700   5.914 -0.2795  0.4457  0.0306
 2768W        W17899  16.689  16.511   3.084  0.2819 -0.2827 -0.1354
 2769W        W17900   6.448  18.183   2.581 -0.3003  0.0464 -0.3371
 2770W        W17901  16.970   1.906  14.160  0.2868 -0.2496 -0.0041
 2771W        W17902   5.687   7.798   1.213  0.3882 -0.0257  0.1033
 2772W        W17903   3.089  17.634   0.953  0.1469  0.0449 -0.1314
 2773W        W17904  13.669  13.845  13.483 -0.2432 -0.1282 -0.1467
 2774W        W17905  14.555   9.755  11.250  0.1369  0.0347 -0.1037
 2775W        W17906   4.999   7.924  12.009  0.0146  0.1341 -0.3035
 2776W        W17907   5.906  15.664  15.718  0.1543  0.0202 -0.1558
 2777W        W17908   3.599   4.667  15.423 -0.2044 -0.1635  0.4817
 2778W        W17909  15.326   8.023   3.111  0.1247 -0.1597  0.0202
 2779W        W17910  15.030  11.727   4.715 -0.1063 -0.1130  0.1498
 2780W        W17911  13.536   9.908   0.155 -0.3200 -0.0945 -0.2624
 2781W        W17912  17.463   5.954  14.841 -0.3605  0.2330 -0.0917
 2782W        W17913   8.757  14.350   4.260 -0.0410  0.0059 -0.1284
 2783W        W17914   7.797  18.364   3.448 -0.1913 -0.1355 -0.0653
 2784W        W17915  16.635  10.835   5.561  0.1590  0.3479 -0.1349
 2785W        W17916   2.451   8.893   2.327  0.1078  0.1013 -0.1962
 2786W        W17917  13.232  11.257   0.391  0.0661  0.0937  0.0503
 2787W        W17918   8.256   6.414  15.517  0.3015  0.0450  0.0266
 2788W        W17919   7.407  11.137   4.680  0.0719  0.2327 -0.2741
 2789W        W17920   1.827   1.935   1.728  0.0540 -0.2951 -0.0158
 2790W        W17921  14.467   8.234  15.044  0.1398  0.2229  0.0564
 2791W        W17922   2.391   2.503   1.808 -0.2240  0.2716 -0.0623
 2792W        W17923   1.469  16.580  14.700  0.1786 -0.1840  0.0605
 2793W        W17924  12.799   5.247  15.280 -0.0938  0.1700  0.0111
 2794W        W17925   2.092  10.558   2.190  0.0742 -0.1395  0.1450
 2795W        W17926  10.893  12.525   2.261 -0.3840  0.1040  0.1985
 2796W        W17927   3.653   2.774  11.615 -0.2501  0.0391  0.0830
 2797W        W17928   2.009   6.856   0.485 -0.1233 -0.0650  0.0090
 2798W        W17929   8.617   8.525  13.997 -0.2853 -0.1607  0.1624
 2799W        W17930   9.522   3.870   2.894  0.1384 -0.5107 -0.1342
 2800W        W17931   5.914  14.983  11.154  0.0532  0.2272  0.2071
 2801W        W17932   8.422   0.678  15.369 -0.0721  0.1290 -0.1470
 2802W        W17933   2.003  11.216   4.912  0.2353 -0.0793 -0.2580
 2803W        W17934  17.384   4.240  11.215  0.1732  0.1728  0.0873
 2804W        W17935  12.339   0.065  13.532  0.0604 -0.0745 -0.0193
 2805W        W17936  17.895   0.917  13.063 -0.0517 -0.3190 -0.1794
 2806W        W17937   8.506   9.844  11.770  0.0229  0.0548 -0.1227
 2807W        W17938   3.705   3.295  11.542  0.0818 -0.3800  0.2054
 2808W        W17939  12.758   1.047   0.041 -0.2186 -0.0758 -0.0043
 2809W        W17940  11.037  15.303  15.437 -0.1210 -0.0874  0.0899
 2810W        W17941   1.324   5.037   1.965 -0.1396 -0.4691 -0.0632
 2811W        W17942   5.542   1.929  13.595  0.1414 -0.0500 -0.2073
 2812W        W17943  18.238  15.692   4.974  0.3371 -0.0292 -0.1706
 2813W        W17944  13.206  12.605  11.514  0.2114  0.0912 -0.1259
 2814W        W17945   5.152   3.347  10.560  0.2350  0.1049 -0.0137
 2815W        W17946   8.118   7.796  15.503  0.0786  0.0045  0.1826
 2816W        W17947  14.891   8.976  11.303  0.0729 -0.2396  0.1264
 2817W        W17948  16.189   7.128   5.071  0.1485 -0.3085  0.2465
 2818W        W17949   6.097  14.323  16.132  0.0261 -0.1136  0.2545
 2819W        W17950  13.635  14.314  14.618 -0.0038 -0.0315 -0.1654
 2820W        W17951   1.251   5.141   3.921  0.1080  0.1580  0.2271
 2821W        W17952  16.329   2.902  14.270  0.1463  0.1243 -0.0345
 2822W        W17953   9.148  11.055   5.568 -0.2878 -0.0674 -0.1215
 2823W        W17954  13.686  14.142  11.844 -0.1230 -0.1265 -0.0581
 2824W        W17955  15.871   3.732   4.379  0.0496 -0.1274 -0.3427
 2825W        W17956   9.816  12.802  14.940  0.0936  0.2019 -0.0689
 2826W        W17957   1.050   5.185  13.253  0.1195  0.0209 -0.0806
 2827W        W17958   2.913   2.784   0.715  0.1176  0.1178  0.3474
 2828W        W17959  10.762   2.357   6.458 -0.0196 -0.2738  0.0568
 2829W        W17960   2.122   2.539  15.397 -0.1370 -0.3372 -0.0326
 2830W        W17961  14.181   2.189   5.504  0.0521  0.0331 -0.1186
 2831W        W17962  14.570   8.938  13.991 -0.1637  0.2125  0.0219
 2832W        W17963  18.272   0.468   0.102 -0.1220  0.0707  0.1657
 2833W        W17964   5.801   8.504   2.048 -0.0311 -0.1978  0.2107
 2834W        W17965  11.854   1.095   5.219 -0.3393 -0.0959 -0.0522
 2835W        W17966  17.538   3.898   0.774 -0.3715 -0.0469  0.1445
 2836W        W17967  10.794   6.347  11.039  0.1500 -0.1149 -0.0424
 2837W        W17968   3.770  10.593  13.226 -0.0618 -0.0396  0.1459
 2838W        W17969   6.411  13.130  13.904  0.2274  0.1171  0.2295
 2839W        W17970  16.616   7.473  14.555  0.1481  0.0305  0.1711
 2840W        W17971  14.140   3.414   1.310 -0.1481 -0.2412  0.3203
 2841W        W17972   3.550   3.237  14.723  0.0851 -0.1847 -0.2211
 2842W        W17973   2.873   5.216   0.269  0.1801  0.2433 -0.1018
 2843W        W17974   8.169   9.023  14.437 -0.0100 -0.0707  0.0680
 2844W        W17975   7.260  12.381  12.075  0.2384 -0.3483  0.0357
 2845W        W17976  10.251  13.841  15.830  0.2340 -0.1824 -0.2556
 2846W        W17977  17.048   1.751  12.807  0.2243  0.0865 -0.0883
 2847W        W17978  10.044  13.832   4.435  0.0291 -0.1208 -0.2861
 2848W        W17979   6.200   7.364  13.424 -0.0687  0.1743  0.1597
 2849W        W17980   6.788   4.927   1.274 -0.2580 -0.0335  0.2503
 2850W        W17981  10.563   2.906   2.321  0.0864  0.1400 -0.0101
 2851W        W17982  15.523  12.816   4.062  0.0837 -0.0765  0.2611
 2852W        W17983  10.598   8.868   4.324 -0.1567  0.2303 -0.2343
 2853W        W17984   2.325  17.598   2.454 -0.0046 -0.0413  0.1810
 2854W        W17985   9.963   1.597   4.581  0.1811 -0.1661  0.1281
 2855W        W17986   0.896   4.505   0.599 -0.0114 -0.1102  0.1587
 2856W        W17987   2.654   1.029   9.831 -0.1506 -0.2276  0.1980
 2857W        W17988  15.263   6.462  12.407 -0.3142  0.2913  0.1293
 2858W        W17989   2.937   5.247   1.865  0.1497  0.1371 -0.1561
 2859W        W17990  11.155   8.681   2.329 -0.1816 -0.2598  0.1127
 2860W        W17991   3.754   8.784  13.143 -0.0394 -0.0395 -0.2707
 2861W        W17992  18.022  15.292   3.610 -0.4829  0.0035 -0.1637
 2862W        W17993  17.638  18.326  11.428 -0.4188 -0.2244  0.2008
 2863W        W17994   7.623   4.570  16.028 -0.2113 -0.0990 -0.2002
 2864W        W17995  13.503   9.306  11.577  0.3288  0.0045  0.1777
 2865W        W17996   5.210   7.382   2.531 -0.2500 -0.0323  0.1624
 2866W        W17997   6.241   4.404  14.433  0.2007 -0.3761 -0.2019
 2867W        W17998   2.527  10.298   1.572 -0.1355  0.1006 -0.0418
 2868W        W17999  13.323  12.882   0.776 -0.2025 -0.0395 -0.0242
 2869W        W18000  10.688  11.453  11.766 -0.0697 -0.0682  0.0377
 2870W        W18001  17.754  13.674   0.474  0.0659  0.0709  0.0525
 2871W        W18002  15.178  17.433  15.138  0.2323 -0.1322 -0.1455
 2872W        W18003   7.724  17.307  14.761  0.0176  0.1413  0.0053
 2873W        W18004   7.996  18.202  15.143  0.2702 -0.0722 -0.2588
 2874W        W18005   1.520   8.642   1.627  0.1833 -0.1508  0.0872
 2875W        W18006  10.666  14.593  14.357 -0.1338 -0.1023 -0.1008
 2876W        W18007   6.332  11.657  11.246 -0.0996 -0.2134  0.2443
 2877W        W18008   9.769  12.997  11.554  0.2577 -0.0509 -0.0731
 2878W        W18009  13.978   0.143   4.856  0.1842 -0.1622  0.2376
 2879W        W18010   8.783   3.179  14.114  0.0010 -0.1591 -0.2050
 2880W        W18011   5.076  12.866  12.745  0.1522 -0.1376 -0.0605
 2881W        W18012   3.969   4.495  14.798  0.1641  0.0708  0.0991
 2882W        W18013   0.967  13.254  14.943  0.2895 -0.0617  0.0549
 2883W        W18014  14.787  12.916  12.543 -0.1057  0.0157  0.1026
 2884W        W18015   5.755   5.659   9.920 -0.0381 -0.1461 -0.0404
 2885W        W18016  13.939   7.661   0.387  0.1223  0.3517 -0.2289
 2886W        W18017  14.964  10.764  14.873 -0.1715 -0.2902 -0.0585
 2887W        W18018  18.136   9.933  13.223  0.0275 -0.1831  0.0724
 2888W        W18019  13.561  14.854  11.073  0.0120  0.3657  0.1010
 2889W        W18020   3.937  16.191   1.419 -0.3458  0.1989  0.0702
 2890W        W18021  11.729   0.339   4.162  0.2213  0.1031  0.0267
 2891W        W18022  15.752  16.065   5.357  0.2128  0.1937  0.0528
 2892W        W18023  14.051   8.687  10.425  0.1756  0.0288 -0.0779
 2893W        W18024   0.958   0.294   1.860  0.1802 -0.2727 -0.0885
 2894W        W18025   0.886   0.249  12.830  0.1879 -0.2666  0.2810
 2895W        W18026   2.280   5.615   5.366 -0.2173  0.2017  0.3979
 2896W        W18027   4.091   6.376  13.424  0.1165  0.1964 -0.0505
 2897W        W18028   5.171   6.089   3.802 -0.0481 -0.1983  0.0721
 2898W        W18029  14.789   7.458   4.990  0.0072  0.0742  0.0348
 2899W        W18030   6.228   0.710  15.835 -0.0000 -0.1196  0.1588
 2900W        W18031   9.366  10.717  14.240  0.1340  0.0772  0.1900
 2901W        W18032   5.456  13.491  11.654 -0.0112  0.1465 -0.1689
 2902W        W18033  11.627   6.591   1.008  0.0129  0.2970  0.0140
 2903W        W18034  10.401   0.722   0.334  0.0462 -0.1446 -0.2083
 2904W        W18035   3.333  10.813   0.293  0.1549 -0.0216  0.0006
 2905W        W18036  11.985  18.198  10.070  0.0426  0.2763  0.3519
 2906W        W18037   7.755  15.518   2.673  0.3884 -0.0456 -0.0809
 2907W        W18038   1.072  15.540   2.303  0.0243  0.1451 -0.2055
 2908W        W18039  10.659   6.565  14.959 -0.0748  0.3336  0.2145
 2909W        W18040   2.162   9.917   2.785 -0.5603  0.1162 -0.1147
 2910W        W18041  17.218  10.030   4.729 -0.2358  0.1596  0.1771
 2911W        W18042  12.149   1.415  13.579 -0.1197 -0.2231  0.2513
 2912W        W18043  11.140   7.691   5.463 -0.1810  0.0612 -0.1203
 2913W        W18044  11.513  11.912  15.945  0.1103 -0.1403 -0.1288
 2914W        W18045  10.345  15.737  15.149 -0.0884 -0.4647 -0.0276
 2915W        W18046   8.402  12.346  12.535  0.1212 -0.2910  0.2927
 2916W        W18047   0.049  15.748   3.569 -0.2879  0.1350  0.0800
 2917W        W18048  15.462   9.333  14.692  0.2143 -0.0003  0.1508
 2918W        W18049   9.465  17.060  11.972 -0.0229  0.1978 -0.1884
 2919W        W18050   3.072   1.496  11.562 -0.1238 -0.1523  0.0916
 2920W        W18051  11.095   8.487  13.318 -0.0521  0.1707 -0.1016
 2921W        W18052   9.548  16.754  12.429 -0.0105  0.3308  0.2979
 2922W        W18053  16.396   0.624  12.712  0.0064 -0.0720 -0.2324
 2923W        W18054   1.913   9.420   1.710 -0.1915  0.1740  0.0448
 2924W        W18055  17.577   8.249  14.413 -0.1206  0.2266 -0.2270
 2925W        W18056  14.311   1.273   2.410  0.1847 -0.0905  0.1103
 2926W        W18057  11.713   8.906  11.929  0.2633 -0.1317 -0.1117
 2927W        W18058  10.689   8.808  11.888  0.2500  0.1512 -0.3150
 2928W        W18059  18.345  12.071  13.998  0.0063 -0.1794  0.0158
 2929W        W18060  16.901  16.190  13.657  0.0908 -0.0676 -0.0080
 2930W        W18061  18.194  14.983   2.532 -0.1204 -0.2829 -0.0345
 2931W        W18062   8.453  14.143  15.774 -0.0252 -0.1079  0.1455
 2932W        W18063  14.914   8.767   5.685  0.2325 -0.1442  0.2676
 2933W        W18064  10.959  17.311  15.993 -0.0530 -0.1983 -0.0309
 2934W        W18065  12.799   6.894  14.138 -0.1582 -0.0864  0.0184
 2935W        W18066  13.419  16.581   0.253 -0.2753  0.2016 -0.1156
 2936W        W18067   1.769   9.028  14.290  0.0313 -0.0157  0.0075
 2937W        W18068   1.862   1.539  13.163 -0.1185 -0.1723 -0.1248
 2938W        W18069  17.940   9.196   3.588 -0.0258  0.1234 -0.2420
 2939W        W18070  14.910  11.961  13.490 -0.2579 -0.2780  0.1620
 2940W        W18071   9.653   6.326  13.268 -0.2563 -0.0725  0.2374
 2941W        W18072   7.293  13.698  13.650  0.2681  0.2371  0.2898
 2942W        W18073   4.623   0.673   5.370  0.0712 -0.0060  0.0218
 2943W        W18074   6.190  10.528  13.337 -0.1238  0.1789 -0.2798
 2944W        W18075   8.323   8.314   4.974 -0.3533 -0.0859  0.0247
 2945W        W18076   0.348  13.535  11.308  0.0570  0.0735  0.2084
 2946W        W18077  13.863   7.985  14.800 -0.1302  0.3134  0.4200
 2947W        W18078   0.499   6.670   5.249  0.1555 -0.1199 -0.1977
 2948W        W18079   8.317  12.179   4.984 -0.2122  0.2624  0.0973
 2949W        W18080   9.094   9.913  14.575  0.0227 -0.0780  0.1686
 2950W        W18081   0.780   3.788  11.628 -0.2138 -0.1071  0.0432
 2951W        W18082  14.735   9.337  12.087 -0.1856 -0.4309  0.2912
 2952W        W18083  10.411  11.892   5.028  0.0274 -0.6004  0.0438
 2953W        W18084  11.049   3.346   1.825  0.1051  0.1044  0.0011
 2954W        W18085   8.729  11.459  13.865  0.2148 -0.1611 -0.3261
 2955W        W18086  17.773   5.441  12.003  0.3458  0.0435 -0.0344
 2956W        W18087  13.465  18.295  15.261 -0.2036 -0.2616  0.0233
 2957W        W18088   6.797   8.191   0.785 -0.2776  0.1812 -0.0225
 2958W        W18089   2.419  13.907  15.961  0.1244 -0.0922 -0.0261
 2959W        W18090   0.232  11.547   4.253 -0.0793  0.1346  0.1032
 2960W        W18091  14.798  11.727  15.359  0.2398 -0.2112 -0.0416
 2961W        W18092   6.176   0.860  12.482 -0.0711 -0.1295  0.1951
 2962W        W18093  17.689   8.436   1.572  0.2538 -0.0206  0.2091
 2963W        W18094   8.041  14.945   0.957  0.3941  0.0993 -0.1115
 2964W        W18095   0.834   2.633   1.117  0.1672  0.0634 -0.1307
 2965W        W18096  16.125   5.124  10.482  0.1323  0.1139 -0.1825
 2966W        W18097  12.864   6.613   5.685 -0.1695  0.0715 -0.1918
 2967W        W18098  11.773  17.314  15.382 -0.1510 -0.0273  0.1568
 2968W        W18099   5.077  11.589  15.556 -0.3108  0.0735 -0.1530
 2969W        W18100  17.597   7.873  15.243 -0.0008 -0.3372  0.0416
 2970W        W18101   6.697  10.974  11.630 -0.2487  0.0815 -0.1396
 2971W        W18102  17.767   0.355  14.316 -0.2085  0.0678  0.0664
 2972W        W18103   0.443  12.560   3.864  0.3987  0.2699 -0.1715
 2973W        W18104  14.642  12.841  10.643 -0.1797  0.0698  0.1820
 2974W        W18105   4.397   8.211  11.438  0.2900  0.1281 -0.2925
 2975W        W18106  13.963   5.417  11.665  0.3289 -0.2997 -0.3428
 2976W        W18107   4.440   4.688   3.401 -0.2696  0.4081  0.3040
 2977W        W18108   3.498  15.143   4.811 -0.2309  0.0659 -0.0348
 2978W        W18109   2.468  17.035   1.362  0.2065 -0.0315  0.0442
 2979W        W18110   3.758  12.175  10.824  0.2555 -0.0702  0.3400
 2980W        W18111   7.279  14.676   1.188  0.0152 -0.0988  0.0595
 2981W        W18112   9.832  14.493  12.538  0.0963  0.2712 -0.0460
 2982W        W18113   0.186   2.672  14.084 -0.0219 -0.0803 -0.1335
 2983W        W18114  10.852  12.501   4.443 -0.1462  0.0803  0.2223
 2984W        W18115   8.459  11.438   1.180  0.0861  0.2536 -0.2307
 2985W        W18116   6.014   3.078  14.165 -0.3153 -0.0455  0.0575
 2986W        W18117  10.196  15.045  11.174  0.1169  0.1320  0.2122
 2987W        W18118   0.821   2.055  14.898 -0.0685 -0.0775 -0.1328
 2988W        W18119  15.572  17.084   9.697  0.0278  0.0318 -0.1308
 2989W        W18120  11.490  17.384  13.536 -0.2329  0.0415  0.1895
 2990W        W18121   7.130  11.746  10.810 -0.0017  0.1110 -0.3173
 2991W        W18122   8.055  14.788  10.842 -0.2260 -0.2862 -0.0452
 2992W        W18123   0.859  17.396   3.664  0.3760  0.0791  0.0953
 2993W        W18124   0.121  13.070  15.288 -0.2285  0.0401 -0.0731
 2994W        W18125   3.706  10.751  11.696  0.0477 -0.0517  0.0607
 2995W        W18126  12.097  16.395  15.500 -0.0769  0.2901  0.1102
 2996W        W18127   0.369  12.102  12.078 -0.0266 -0.1461 -0.1026
 2997W        W18128   7.205   5.056  14.167  0.4619 -0.0928 -0.2004
 2998W        W18129   4.445   1.487   4.744  0.3950  0.1438  0.0440
 2999W        W18130  15.661  12.122   0.751 -0.1047  0.3674 -0.0140
 3000W        W18131  11.962   3.459  13.253  0.2943 -0.1299 -0.1381
 3001W        W18132   0.128  14.490   5.033 -0.1048  0.0310  0.0242
 3002W        W18133   3.481   1.583   1.806  0.0102 -0.1794  0.0266
 3003W        W18134   0.730  12.032   2.209 -0.0648 -0.1775  0.1617
 3004W        W18135   6.266   7.501   4.646  0.1527 -0.2045 -0.3042
 3005W        W18136   6.876   9.784   2.118 -0.1090 -0.0407  0.4022
 3006W        W18137  17.236  10.996   0.945  0.4015  0.2381  0.2451
 3007W        W18138   8.006   5.613   2.786  0.1056 -0.0903  0.0186
 3008W        W18139  14.760   9.917  10.832  0.1400 -0.1345 -0.0255
 3009W        W18140  14.268   3.437  15.914  0.0032  0.2277  0.0598
 3010W        W18141  15.340   2.356  12.860 -0.2272  0.1343  0.0073
 3011W        W18142  17.783   9.573   6.045  0.1834  0.1345 -0.0192
 3012W        W18143  15.492   2.643  13.921 -0.0186 -0.0949 -0.0632
 3013W        W18144  10.966   9.727  15.977 -0.1927 -0.0022 -0.1859
 3014W        W18145  16.659   3.486   2.195 -0.3000  0.1940  0.0288
 3015W        W18146   1.107  10.782  11.037  0.0489  0.0327 -0.0543
 3016W        W18147  13.613  14.979   4.674 -0.2373  0.1944  0.0870
 3017W        W18148   8.984   7.819  15.334 -0.1525  0.1655 -0.0657
 3018W        W18149  14.578   2.800  13.379 -0.2952  0.0887 -0.0059
 3019W        W18150  16.307  18.226  15.396  0.0067  0.1955  0.3886
 3020W        W18151   8.898   9.776   5.930  0.2062  0.2054  0.0607
 3021W        W18152   8.921   2.282   0.910 -0.0824  0.0098  0.1685
 3022W        W18153   4.994  11.452  11.034  0.0771 -0.2409  0.1439
 3023W        W18154  14.512   9.841  13.620  0.1424 -0.1645 -0.2365
 3024W        W18155   4.157  18.246   9.893  0.1460 -0.2240  0.0291
 3025W        W18156   5.182  11.524  13.974  0.2345  0.3184 -0.2188
 3026W        W18157  15.456   3.595   2.139 -0.0556  0.2166 -0.0970
 3027W        W18158   8.606   9.858  13.324 -0.1616 -0.2179 -0.1658
 3028W        W18159   1.158  12.770  10.496  0.2278 -0.2985  0.0697
 3029W        W18160   9.247   9.317  11.843  0.2289 -0.3932 -0.1298
 3030W        W18161   9.855  13.583   3.217  0.1678 -0.0350 -0.0315
 3031W        W18162   9.823   0.013  10.653 -0.2651 -0.0174  0.0064
 3032W        W18163   3.154   5.906   4.947 -0.1006  0.3091  0.1271
 3033W        W18164   0.458   8.379  14.963 -0.0006  0.2660  0.1163
 3034W        W18165  15.546   6.283   4.631  0.0684 -0.0020  0.1729
 3035W        W18166  16.683   7.341  11.391 -0.1194 -0.1463 -0.2772
 3036W        W18167  16.163   9.800   1.900  0.0676 -0.1062 -0.1926
 3037W        W18168   0.113   0.859  13.824 -0.0315 -0.2372 -0.1215
 3038W        W18169  15.727  13.173   4.318  0.3722 -0.0396  0.1089
 3039W        W18170  10.666   8.237   0.402  0.0745 -0.2223  0.2336
 3040W        W18171   9.872  15.573   2.795 -0.0349  0.0915 -0.1317
 3041W        W18172   8.368   7.966   1.024  0.1562  0.0697 -0.0873
 3042W        W18173  15.514   4.457   0.939 -0.0225 -0.6539  0.0423
 3043W        W18174   5.016  17.953  11.591 -0.1117 -0.0209  0.1008
 3044W        W18175  14.653  11.433   5.271  0.3980  0.0663 -0.0955
 3045W        W18176   7.834  15.653  12.244 -0.0086  0.0773  0.1458
 3046W        W18177  13.568  12.445   5.523  0.0635 -0.1548  0.0491
 3047W        W18178  16.095   1.694  14.006 -0.1319 -0.3148  0.1660
 3048W        W18179   9.816   0.734  14.345  0.1987 -0.2630  0.4336
 3049W        W18180   4.421   8.817   1.396  0.1389  0.0206  0.0131
 3050W        W18181  10.539   7.343  15.912  0.0334  0.1792  0.0633
 3051W        W18182  18.226   9.229   5.155 -0.0177  0.0728  0.1802
 3052W        W18183   9.052  10.223  12.015  0.1636 -0.2779 -0.1696
 3053W        W18184   2.240  16.065   0.597 -0.0088 -0.1420  0.0722
 3054W        W18185  12.082   2.710  10.909 -0.0184  0.2613 -0.1262
 3055W        W18186  12.820  15.273  15.494  0.1040  0.0829 -0.2421
 3056W        W18187  10.080   9.620  15.470 -0.1798 -0.2906 -0.0178
 3057W        W18188   1.862  15.837  11.282  0.1371 -0.1037  0.1302
 3058W        W18189  13.594   6.491  11.551  0.2365  0.0336 -0.0540
 3059W        W18190  15.812   2.237   6.605  0.1919  0.0701  0.3565
 3060W        W18191   3.849   9.175   2.253  0.1941 -0.0441 -0.1273
 3061W        W18192   1.153   7.371  13.044  0.4060 -0.1625 -0.0479
 3062W        W18193   6.448   3.290   1.304  0.2653 -0.0866  0.1688
 3063W        W18194   2.238  10.311   4.285  0.1138 -0.1169  0.0636
 3064W        W18195   5.462  10.740   3.327 -0.0900 -0.0114 -0.0824
 3065W        W18196  11.918  11.881   5.414 -0.1224 -0.3129  0.2032
 3066W        W18197   7.687   8.239   5.485  0.0246 -0.0089 -0.3575
 3067W        W18198  16.985   0.071   5.262  0.1735 -0.1283  0.0010
 3068W        W18199   4.002   5.937  12.528 -0.0008 -0.0503  0.0795
 3069W        W18200   7.192  17.051   2.807  0.1022 -0.1770 -0.0198
 3070W        W18201  12.861  18.228   4.556  0.2549  0.0226 -0.0335
 3071W        W18202  15.241   0.850  15.829 -0.3392  0.0009  0.0888
 3072W        W18203   1.000  16.402   3.557 -0.0612 -0.2793  0.1120
 3073W        W18204  13.883  17.323   3.886  0.0451 -0.3105 -0.0643
 3074W        W18205   3.633   6.558  13.248 -0.4174 -0.3182  0.0888
 3075W        W18206   7.136   7.478   4.479 -0.1610 -0.4341 -0.0397
 3076W        W18207  12.182   3.609  12.547 -0.0182 -0.0599 -0.1901
 3077W        W18208  14.160   8.291   3.040 -0.1139  0.2563  0.0564
 3078W        W18209   5.510  13.907  11.367  0.0817  0.0891  0.1657
 3079W        W18210   9.603  10.143   3.220  0.1648  0.0526 -0.2710
 3080W        W18211   6.717  15.809   2.352 -0.1840 -0.0269 -0.1825
 3081W        W18212   4.552  11.257   0.630 -0.3157 -0.0941 -0.1676
 3082W        W18213  16.644   7.451   5.113  0.0787  0.0068 -0.1916
 3083W        W18214   4.252   3.093   2.770  0.0103 -0.0611 -0.0521
 3084W        W18215  15.866   2.127  12.710 -0.0173  0.0557  0.2727
 3085W        W18216  11.632   3.946   0.535 -0.0128 -0.0981  0.2879
 3086W        W18217   6.955  15.295   0.046 -0.1894  0.0796  0.1696
 3087W        W18218  16.171   8.756  14.495 -0.3892 -0.1974  0.2175
 3088W        W18219  13.817  17.851   3.382  0.1227  0.3287  0.1931
 3089W        W18220   1.481   2.843   3.211  0.1807  0.0013  0.0281
 3090W        W18221  18.040  14.241   1.823  0.2004 -0.2173 -0.1979
 3091W        W18222   3.545   9.879  11.349 -0.0384  0.0663 -0.0029
 3092W        W18223   6.548  15.734   3.347 -0.1236 -0.2559  0.1256
 3093W        W18224  17.156   1.583  15.009 -0.0662 -0.1224 -0.0601
 3094W        W18225  18.237  15.121  12.770  0.1706  0.2402 -0.0722
 3095W        W18226   4.581  15.303   2.133  0.6095  0.0112  0.0125
 3096W        W18227   3.541  12.366  15.752 -0.1457 -0.1502  0.1433
 3097W        W18228   6.951   7.836  11.680  0.0057  0.0853 -0.1217
 3098W        W18229   8.512   7.125   4.334 -0.2800  0.0746  0.2993
 3099W        W18230   3.014   3.246   0.730 -0.0292  0.1759  0.0702
 3100W        W18231  17.349  16.236   2.194 -0.0840 -0.3826 -0.0616
 3101W        W18232  15.332   1.973  11.336  0.0936  0.4304 -0.0742
 3102W        W18233   5.209  14.800   0.968  0.1836  0.0779 -0.2876
 3103W        W18234  17.383   2.529  10.486 -0.1666  0.0356  0.0268
 3104W        W18235  12.275   9.093  10.968 -0.2948 -0.0019  0.3069
 3105W        W18236   4.403  16.929   1.221 -0.1373  0.0067 -0.1913
 3106W        W18237  10.947  16.619  15.342  0.3524 -0.1844 -0.3248
 3107W        W18238   9.209  11.963  14.992 -0.3667  0.1782 -0.0263
 3108W        W18239  12.729  10.196  15.695 -0.2765  0.0802  0.2082
 3109W        W18240   0.548  10.506   4.825 -0.3035  0.1541 -0.1320
 3110W        W18241   2.230   7.853  12.400 -0.1016  0.1296  0.1511
 3111W        W18242  11.845  11.025   1.642 -0.1510  0.2882  0.1540
 3112W        W18243   7.871   6.128   6.245 -0.0931  0.0963 -0.1075
 3113W        W18244   8.429   7.902   1.573 -0.2449  0.0703 -0.0225
 3114W        W18245   9.697  12.614   1.181 -0.3515  0.1556 -0.0466
 3115W        W18246   3.277   2.352  12.296 -0.2580  0.1318 -0.2656
 3116W        W18247  14.221   1.322  12.226  0.1922  0.1115 -0.0909
 3117W        W18248  16.438  16.568   4.636 -0.0045 -0.3759 -0.2307
 3118W        W18249  11.302   6.077  12.152 -0.1444  0.1970  0.0421
 3119W        W18250  11.243  16.618   6.255  0.0132  0.0788 -0.0390
 3120W        W18251  16.729   4.847   0.373  0.1382 -0.2534  0.0667
 3121W        W18252  15.636  10.203   5.899 -0.2320  0.1752  0.3018
 3122W        W18253   1.171  14.019   1.292 -0.0831 -0.1176 -0.0333
 3123W        W18254   8.696   5.636   5.690 -0.4292 -0.1135  0.1397
 3124W        W18255   9.728  15.526  13.236 -0.4606  0.1250 -0.0053
 3125W        W18256   3.096   1.721   3.139  0.1616  0.0062 -0.0243
 3126W        W18257   2.346   8.721  13.057 -0.0744 -0.2226  0.0190
 3127W        W18258   8.405   5.396   5.411  0.1560 -0.0464  0.3109
 3128W        W18259  12.064   6.057   1.582  0.1286  0.1245 -0.1041
 3129W        W18260  17.421   0.543  14.632  0.3736  0.1325 -0.0989
 3130W        W18261   5.370   4.216   4.369 -0.1129 -0.0698 -0.1361
 3131W        W18262   0.828  16.430   5.370  0.1640  0.1715  0.2968
 3132W        W18263   9.839  16.483  12.079  0.2067  0.1947  0.1584
 3133W        W18264  12.355   2.043   1.460  0.1128  0.1580 -0.0073
 3134W        W18265  13.547  15.636  15.627 -0.1964 -0.0519  0.0874
 3135W        W18266   8.333   1.388   4.437 -0.0552  0.3843  0.1738
 3136W        W18267   8.429  10.666   2.088 -0.0946 -0.1612  0.0518
 3137W        W18268  16.173  10.984   0.873 -0.0065  0.1138  0.0566
 3138W        W18269  12.212  17.800   1.773 -0.0072 -0.1665  0.0627
 3139W        W18270  13.973   5.597   2.991 -0.1016 -0.0674  0.1784
 3140W        W18271  16.364  10.466   4.844 -0.3251  0.0130  0.1931
 3141W        W18272   6.815  14.564  15.571  0.1897  0.3240  0.0962
 3142W        W18273   8.619  13.547   4.894  0.0839  0.2984 -0.4002
 3143W        W18274   9.775  13.601  14.225 -0.0143 -0.1441  0.1137
 3144W        W18275  10.544   5.191  13.544 -0.0079 -0.3923  0.0653
 3145W        W18276   7.234   5.810  13.510  0.0100 -0.1116  0.0105
 3146W        W18277  10.549   5.227   0.293 -0.0934 -0.0951  0.2736
 3147W        W18278   5.778   5.215   2.141  0.1329  0.0062 -0.1365
 3148W        W18279   0.199   5.362   4.286 -0.0782  0.0463 -0.2045
 3149W        W18280   0.711   8.443   3.838  0.3485 -0.3040 -0.0729
 3150W        W18281   7.005   5.224   2.908 -0.1290 -0.0376  0.3264
 3151W        W18282   2.880   7.702  13.720 -0.1659  0.1006  0.2531
 3152W        W18283   1.778  11.972   3.175 -0.5453 -0.1484  0.3846
 3153W        W18284  11.691   3.842   4.395 -0.1678 -0.1089 -0.2339
 3154W        W18285   3.551  12.053   2.137 -0.1703 -0.3093 -0.0901
 3155W        W18286  12.383   0.882  15.834  0.2216  0.1449  0.4277
 3156W        W18287  11.517   8.582  14.006  0.1257  0.1870  0.0685
 3157W        W18288   3.586  18.036   2.621 -0.1221 -0.0226  0.0714
 3158W        W18289   4.176  16.003  14.072 -0.1907  0.0208 -0.1527
 3159W        W18290   9.458   2.456   1.820  0.2836 -0.1266 -0.0102
 3160W        W18291   0.041  13.151   2.069  0.2467 -0.3597 -0.0266
 3161W        W18292   3.022   3.774   3.191  0.1448 -0.0398 -0.3374
 3162W        W18293  13.557  12.227   4.760 -0.2104  0.0646 -0.2806
 3163W        W18294  14.722   3.466   3.939 -0.0483  0.0190 -0.2555
 3164W        W18295  10.040   1.077  15.423 -0.0356  0.1811  0.1145
 3165W        W18296  18.308   0.192  11.399  0.2203 -0.1068 -0.5156
 3166W        W18297   5.034  10.550  10.723 -0.1673  0.0772 -0.0041
 3167W        W18298  12.994  10.449   6.170 -0.0112 -0.0713  0.2618
 3168W        W18299  16.601  18.218   3.029 -0.0463  0.0306 -0.0328
 3169W        W18300  10.303  15.214   0.994 -0.0465 -0.1579  0.0466
 3170W        W18301   8.093  16.311   0.207 -0.0931 -0.1713 -0.0724
 3171W        W18302   5.747  12.703  13.971  0.2023 -0.0687  0.0633
 3172W        W18303   2.193   6.009  11.250 -0.1846 -0.0401  0.0832
 3173W        W18304   7.485   2.295  14.534  0.1204 -0.0400  0.3635
 3174W        W18305  14.769   4.050  11.378  0.1214 -0.1830 -0.1116
 3175W        W18306   5.094  13.513   0.564  0.1140  0.4494  0.1165
 3176W        W18307   5.958   7.082  14.678  0.3245  0.2107  0.2867
 3177W        W18308   5.180   1.841  12.858 -0.0286 -0.1426 -0.0616
 3178W        W18309  15.574   4.026  16.044  0.0861 -0.1340  0.1123
 3179W        W18310  12.504   2.957  14.182  0.0191  0.0154  0.0888
 3180W        W18311   2.778   2.377  14.523 -0.1158 -0.1961 -0.0374
 3181W        W18312   7.445   9.412   5.325  0.0518 -0.0502 -0.1670
 3182W        W18313  13.591  13.337   5.541  0.1066 -0.2431 -0.2642
 3183W        W18314   5.285  15.534   5.866  0.2513  0.2701  0.0847
 3184W        W18315   3.765  10.004  14.709  0.1209  0.2776  0.2850
 3185W        W18316  12.871  13.831   2.191  0.0478 -0.1075 -0.0389
 3186W        W18317   4.777   3.635  10.406 -0.0501 -0.1907 -0.0344
 3187W        W18318   7.960  10.420  14.376 -0.0220  0.0195 -0.0214
 3188W        W18319   0.932   0.920   1.977 -0.4071  0.0395 -0.0751
 3189W        W18320   6.286  16.365   5.435 -0.2321  0.4990 -0.0849
 3190W        W18321   9.881   4.658  13.990  0.2040  0.2459  0.0566
 3191W        W18322   6.856  18.093   2.187  0.4398  0.3616  0.0901
 3192W        W18323   6.789  13.951   2.586 -0.1152 -0.0405 -0.1531
 3193W        W18324  15.481   8.727   2.940  0.1827 -0.0034  0.1099
 3194W        W18325   9.763  11.209   3.449  0.0062  0.0832  0.3372
 3195W        W18326   2.845   6.346  13.784  0.3118  0.0428 -0.1344
 3196W        W18327   7.647  12.663   1.969  0.1557 -0.0664 -0.3859
 3197W        W18328   8.308   2.829  14.233  0.2439 -0.2198 -0.0791
 3198W        W18329   6.920  13.771   0.076  0.0508 -0.3239 -0.1842
 3199W        W18330  16.893   1.222   0.433  0.0620  0.5044 -0.1466
 3200W        W18331   9.557   8.490   3.822 -0.4394  0.1476  0.0418
 3201W        W18332   1.453   9.565  13.462  0.0413  0.0060 -0.1368
 3202W        W18333  11.421   3.161  15.522  0.1257 -0.0200  0.1452
 3203W        W18334   9.412   7.929   5.957 -0.1040  0.0261  0.0724
 3204W        W18335   4.808  13.067  13.685  0.0714  0.1197 -0.4093
 3205W        W18336   5.994  13.940  13.207 -0.3753  0.1977  0.5377
 3206W        W18337   2.749  17.337  10.655 -0.0449 -0.0235 -0.1352
 3207W        W18338  13.683   9.909   5.294 -0.0937 -0.3803 -0.0829
 3208W        W18339   8.204  14.821  14.724  0.2056 -0.2707  0.1710
 3209W        W18340  13.690   5.996  13.729 -0.3315 -0.0359 -0.1655
 3210W        W18341   3.049   2.478  13.452  0.1033  0.0594 -0.1939
 3211W        W18342  13.622   0.822  13.802 -0.0702  0.1165 -0.1855
 3212W        W18343  17.894   5.502   0.805  0.1829 -0.0060 -0.0132
 3213W        W18344   0.164  10.536   4.463  0.1397 -0.1319  0.2803
 3214W        W18345   7.626  17.758   2.031  0.0686 -0.0165  0.5474
 3215W        W18346  15.298  17.107   4.258  0.2629 -0.2337  0.1346
 3216W        W18347   2.538  11.925  10.870  0.0389  0.1616 -0.3753
 3217W        W18348  16.907   4.258  10.995  0.1233 -0.0796  0.0908
 3218W        W18349   6.850   1.456   1.134  0.0216  0.3437 -0.0228
 3219W        W18350   3.104   6.760   2.416 -0.0437  0.0398  0.0605
 3220W        W18351   1.076  16.234   4.847  0.0936 -0.0327 -0.0403
 3221W        W18352  11.668   2.827  12.640 -0.1284 -0.3259 -0.0234
 3222W        W18353   6.269  17.355   4.633  0.0932  0.0344  0.2316
 3223W        W18354  16.806   4.125  14.140 -0.3404  0.1906 -0.1739
 3224W        W18355  18.173  14.707   1.818  0.4476 -0.0737  0.0010
 3225W        W18356  10.562   3.134  13.911  0.0028  0.1010 -0.0357
 3226W        W18357  10.012  12.304   3.263  0.1501  0.0439 -0.2058
 3227W        W18358   0.559   9.466   1.649 -0.0661  0.4425 -0.0931
 3228W        W18359   2.997  15.326  13.098  0.1000 -0.1629 -0.1362
 3229W        W18360  13.263   8.978  10.412 -0.2102 -0.2549 -0.2643
 3230W        W18361  16.939   1.950  11.223  0.1865  0.2222 -0.0432
 3231W        W18362  10.813  10.077  14.410 -0.0097 -0.0740  0.1229
 3232W        W18363   9.687   9.815   3.955  0.0825 -0.1599 -0.0822
 3233W        W18364   6.044   9.355   1.885  0.1928  0.0923 -0.0817
 3234W        W18365   7.646   6.531   0.716 -0.0013 -0.3637 -0.1317
 3235W        W18366  11.930  12.839   3.238  0.3251 -0.0190 -0.0650
 3236W        W18367  15.325  11.952   6.359  0.1893 -0.1562 -0.0980
 3237W        W18368  13.490  13.285  12.267  0.0496 -0.3562 -0.0450
 3238W        W18369  11.339  11.489   2.272  0.1033  0.3985 -0.1017
 3239W        W18370  14.772  15.330  12.805 -0.2762 -0.0236  0.1915
 3240W        W18371   0.061  11.321   0.216 -0.0378 -0.0745 -0.0273
 3241W        W18372  13.725   3.292   3.033  0.0225 -0.2979  0.0331
 3242W        W18373   1.492  14.159   0.916 -0.1024 -0.0961  0.1467
 3243W        W18374  11.752  10.313   3.666 -0.0025  0.2268 -0.1285
 3244W        W18375  11.663  17.481   2.300  0.0007 -0.0363  0.1613
 3245W        W18376   6.490  14.891  13.543  0.2536 -0.1955 -0.4305
 3246W        W18377  15.801  13.000   5.227  0.0551 -0.0276 -0.1935
 3247W        W18378   6.654   1.998  12.576  0.1430 -0.0249 -0.1555
 3248W        W18379   8.095   7.561  14.140 -0.1203  0.0043  0.0514
 3249W        W18380   5.506   7.777  11.823  0.0277 -0.0255 -0.2799
 3250W        W18381   7.748   3.069   5.030 -0.1726 -0.0192 -0.1416
 3251W        W18382  12.825  16.769   1.204  0.0096  0.3670  0.0848
 3252W        W18383  11.460   6.393  12.520 -0.1071 -0.2714  0.2778
 3253W        W18384  17.222  13.600  14.411  0.0754 -0.0239  0.0311
 3254W        W18385   3.956   7.639   0.087 -0.0346  0.5159 -0.0605
 3255W        W18386   9.728  16.516   4.074 -0.1320  0.2015 -0.1666
 3256W        W18387   3.278  12.690   2.155  0.1596 -0.2568  0.0294
 3257W        W18388  16.131  13.026  15.939 -0.3954 -0.0772 -0.1107
 3258W        W18389   4.957   6.242  12.292 -0.1366  0.1801 -0.0397
 3259W        W18390   4.985   2.600  15.837  0.0757 -0.1014  0.5524
 3260W        W18391  13.746  11.677  14.101 -0.0180  0.1786 -0.0148
 3261W        W18392  17.535   9.078   0.690 -0.0146 -0.3970  0.1206
 3262W        W18393  11.254   7.774  16.115 -0.1456  0.0026 -0.2146
 3263W        W18394  16.356  18.099  14.214  0.0786  0.0509  0.3318
 3264W        W18395   8.015  14.216   2.158 -0.3684 -0.0787  0.1934
 3265W        W18396  11.127  16.913   2.390 -0.0825 -0.0755 -0.1871
 3266W        W18397   4.559  13.562  11.857 -0.0615  0.1074  0.1912
 3267W        W18398   3.115  13.217   2.623  0.3385 -0.2309  0.1345
 3268W        W18399   9.978   4.704  14.814  0.0938  0.0893 -0.0538
 3269W        W18400  18.035  16.699   1.018 -0.1485 -0.0145  0.2524
 3270W        W18401  17.653  14.765  16.049  0.0402  0.1027 -0.0119
 3271W        W18402  13.151   4.172   1.550  0.0758 -0.1338 -0.1112
 3272W        W18403  16.182   6.785  14.310 -0.0980  0.0678 -0.1044
 3273W        W18404  17.471   6.258  15.751 -0.1552 -0.2639 -0.1750
 3274W        W18405  16.782  16.553  13.365 -0.1101 -0.2877  0.0469
 3275W        W18406  16.345   1.751  15.240  0.0257 -0.5656 -0.0466
 3276W        W18407  13.313  16.166  13.112  0.3306 -0.3418 -0.2205
 3277W        W18408  15.177  10.571   4.837  0.0611  0.1037 -0.1971
 3278W        W18409   8.750  16.156  14.978 -0.2348 -0.0759 -0.0558
 3279W        W18410   0.574   7.719   3.288 -0.0242 -0.2135  0.0125
 3280W        W18411  17.824   7.051   0.867  0.1472  0.3242 -0.0591
 3281W        W18412  15.624  16.874   0.003 -0.0424  0.0216  0.3248
 3282W        W18413   8.424   9.139   0.457 -0.2361 -0.0006  0.0372
 3283W        W18414   8.503   6.130   0.925 -0.2381  0.0426  0.1506
 3284W        W18415  11.076  17.297   4.007  0.0015 -0.3181 -0.2274
 3285W        W18416  17.531   1.773  13.786  0.0156 -0.1852  0.0815
 3286W        W18417   1.215   7.478  13.577 -0.2408 -0.4163 -0.0016
 3287W        W18418   1.679  13.115   1.027 -0.0189  0.0872  0.1470
 3288W        W18419   6.538   4.705   4.092 -0.2712  0.5090 -0.0224
 3289W        W18420   9.043   2.894   1.724  0.5179  0.2549 -0.2217
 3290W        W18421   6.895   7.562  13.199  0.0754 -0.1649  0.0416
 3291W        W18422   8.310   9.514  15.109 -0.0525  0.2852 -0.3300
 3292W        W18423   2.383  10.430  10.964  0.0667  0.1347 -0.1345
 3293W        W18424  15.649  16.129  12.873 -0.1200  0.2376 -0.2071
 3294W        W18425   8.835   0.974  11.308 -0.0137  0.0098  0.0094
 3295W        W18426  15.210  12.424  12.781  0.1995 -0.0107 -0.0566
 3296W        W18427   5.482  17.866   3.414 -0.0768 -0.1319  0.0053
 3297W        W18428  13.347   8.199   2.041 -0.0845  0.0161  0.0937
 3298W        W18429  11.209  10.189   3.290 -0.1597 -0.2324 -0.1058
 3299W        W18430  16.448   0.115  14.497  0.4283 -0.0101  0.1608
 3300W        W18431   2.154   8.057  10.986 -0.2769 -0.2321 -0.1709
 3301W        W18432  11.456   0.591  10.513  0.1263 -0.4654 -0.1844
 3302W        W18433  14.832  17.387  12.725 -0.0890 -0.0855  0.3311
 3303W        W18434  16.492   7.300  10.869 -0.0138 -0.1562  0.2884
 3304W        W18435   3.413  11.640  15.973  0.1746  0.2776  0.1979
 3305W        W18436  14.470   0.375  13.796 -0.1668 -0.0713 -0.1367
 3306W        W18437   6.999  12.733  11.375 -0.2449  0.2435  0.4354
 3307W        W18438  13.504   0.213   0.707  0.2329 -0.0094 -0.2174
 3308W        W18439   8.083  13.241   2.489 -0.0340  0.0794 -0.0747
 3309W        W18440  17.848   7.600   3.580  0.2926 -0.1789 -0.3034
 3310W        W18441  17.270   1.772  15.733  0.2386 -0.2571 -0.1239
 3311W        W18442  14.154   3.746   2.319 -0.1555  0.2913  0.0328
 3312W        W18443  10.450  10.841   1.314  0.4079  0.2160  0.1914
 3313W        W18444   4.806   5.325   1.441  0.1559  0.0506  0.0845
 3314W        W18445  11.658  11.226   3.617  0.1204 -0.2595 -0.1281
 3315W        W18446   8.265   0.632   1.138 -0.0045  0.1065 -0.0575
 3316W        W18447  15.215  13.043  15.962 -0.1765  0.0443 -0.0710
 3317W        W18448  13.241   8.209   0.256 -0.1101  0.0588 -0.1825
 3318W        W18449  16.718   8.212   0.273 -0.0806 -0.1818 -0.2728
 3319W        W18450   1.182  12.663   2.599  0.1706  0.0423  0.0390
 3320W        W18451  16.272   5.740  15.673 -0.2758 -0.1558  0.1145
 3321W        W18452   6.394  17.052  13.039  0.2054 -0.0243 -0.4766
 3322W        W18453  11.943   9.620  14.349 -0.0748 -0.3036 -0.4681
 3323W        W18454  12.350  16.597   2.092 -0.2337 -0.0676  0.4822
 3324W        W18455  11.993   8.635  13.859  0.2508  0.1579 -0.0980
 3325W        W18456   9.610  10.789   4.458 -0.0913 -0.0493 -0.0798
 3326W        W18457  17.843   9.461   4.745 -0.0869  0.0280  0.2008
 3327W        W18458   4.443  11.142   1.441 -0.0590 -0.0678  0.0171
 3328W        W18459   4.591   2.951   2.462 -0.0263  0.1360 -0.0200
 3329W        W18460  18.291   5.789   3.114 -0.1324 -0.0225 -0.2335
 3330W        W18461  17.305  11.626   4.662  0.2170 -0.1760  0.0070
 3331W        W18462  13.080   0.910  14.777 -0.0116  0.1291  0.0948
 3332W        W18463  14.706   2.511  12.495 -0.0506  0.2088 -0.1595
 3333W        W18464  15.801  14.541   1.302  0.1762 -0.0099  0.2628
 3334W        W18465  12.058   2.027  14.476  0.3220 -0.1895  0.0277
 3335W        W18466   5.172   1.707   0.784 -0.2653  0.0544 -0.2021
 3336W        W18467   3.879  12.169   1.591 -0.0831  0.2220 -0.1974
 3337W        W18468  18.021  16.152   4.844 -0.1872 -0.1282  0.1973
 3338W        W18469   2.081  11.302   2.796 -0.1626 -0.0672  0.2803
 3339W        W18470  11.951  11.996   1.216 -0.0157  0.1049  0.0336
 3340W        W18471   7.160   2.730   4.951  0.0425 -0.0298 -0.2149
 3341W        W18472   7.079   0.835   2.756  0.1957 -0.0392  0.0117
 3342W        W18473  13.345  16.043   2.607  0.3188  0.1249 -0.3550
 3343W        W18474   0.661   0.149   1.417 -0.1190 -0.0329  0.0597
 3344W        W18475   7.484  12.040  14.544 -0.0272  0.2506 -0.1424
 3345W        W18476   1.859  14.365  12.104  0.2672  0.0385  0.1318
 3346W        W18477   4.329   4.518  14.405 -0.0277 -0.0257  0.0564
 3347W        W18478  17.189   8.390   4.000  0.0449 -0.1485 -0.0311
 3348W        W18479  10.119   7.249  15.217 -0.0135  0.2230  0.0147
 3349W        W18480   4.825  13.688  15.867 -0.1133  0.1216  0.2694
 3350W        W18481  10.173   1.463   5.430 -0.1240  0.1899 -0.0265
 3351W        W18482   6.349   9.321  12.038 -0.0919 -0.1850 -0.0001
 3352W        W18483   1.876  15.370   2.942  0.1937 -0.2697 -0.2360
 3353W        W18484   7.924   5.885  12.750 -0.3395 -0.0106  0.0103
 3354W        W18485  13.273   8.946  11.920 -0.1959 -0.0685  0.2251
 3355W        W18486  11.839  10.828   3.892 -0.0495  0.1869  0.0650
 3356W        W18487   7.086   1.222   0.786 -0.1003  0.1188 -0.0773
 3357W        W18488   7.501   9.546  11.464  0.0147  0.0046  0.2476
 3358W        W18489  14.178  13.987  13.303 -0.1166 -0.1703  0.0731
 3359W        W18490   9.384   5.296  14.382 -0.2354  0.2097 -0.0440
 3360W        W18491  18.123  14.246   1.303  0.0340  0.0873  0.1772
 3361W        W18492  18.021   1.173  11.355 -0.1671  0.1245  0.0046
 3362W        W18493  13.714   2.899   1.839 -0.0613  0.2810 -0.1219
 3363W        W18494   7.942  17.943  15.947 -0.2334 -0.2227 -0.1403
 3364W        W18495   1.145  18.085   0.193  0.1090 -0.2395 -0.0105
 3365W        W18496   0.646   7.395   0.596  0.1853 -0.1839 -0.0447
 3366W        W18497   8.736   8.420   0.889  0.1507  0.2203 -0.2854
 3367W        W18498  16.973   5.283   0.608  0.0313  0.0265 -0.1329
 3368W        W18499  14.163  10.382  12.117 -0.1625  0.1193 -0.4072
 3369W        W18500   2.812  15.238  13.615  0.0963  0.0384  0.0757
 3370W        W18501   4.625  11.137   2.071 -0.0241  0.0958 -0.0860
 3371W        W18502  13.810  17.828   5.516 -0.2383  0.1190 -0.1233
 3372W        W18503  14.900   9.764   5.545 -0.0759 -0.1230 -0.1047
 3373W        W18504  13.596  14.484   2.901  0.1119  0.5052 -0.3125
 3374W        W18505  15.469  11.171  15.866  0.1769 -0.0554 -0.3246
 3375W        W18506   2.607   4.353  13.094  0.1716  0.1460 -0.1785
 3376W        W18507   6.161  15.927   5.078  0.1719  0.3066 -0.0908
 3377W        W18508  18.117   6.441   2.407 -0.2856  0.0268 -0.1423
 3378W        W18509   8.717   8.193   4.702 -0.0130  0.0528 -0.2322
 3379W        W18510   8.051   8.306   2.499  0.1352  0.1584  0.1515
 3380W        W18511  15.646   8.278  16.072 -0.0387  0.0616 -0.0864
 3381W        W18512  14.457   8.063  13.466 -0.0013  0.1983 -0.0093
 3382W        W18513   4.174   2.079  11.252  0.1208  0.4738 -0.1715
 3383W        W18514   8.461   4.838   0.535 -0.3974  0.2366 -0.0332
 3384W        W18515   2.235   0.869  13.374 -0.0272 -0.0199 -0.3615
 3385W        W18516  11.971   9.173  14.203 -0.2128  0.0082 -0.1442
 3386W        W18517  11.597  17.654   5.744  0.1849  0.1274  0.1112
 3387W        W18518   6.963   6.329   5.216 -0.1320  0.2578  0.1229
 3388W        W18519   0.100  12.105   5.222 -0.0398  0.3216 -0.0281
 3389W        W18520  10.991  17.411  14.108 -0.1610  0.0316 -0.1037
 3390W        W18521  12.646   7.836  11.444  0.2336 -0.2077 -0.0911
 3391W        W18522  14.932  14.749  11.625  0.2566  0.2604 -0.2466
 3392W        W18523   2.411   4.272  14.495 -0.0027 -0.0159 -0.2324
 3393W        W18524  11.672   4.600  11.696  0.0941 -0.2133 -0.0906
 3394W        W18525   7.660   8.847   0.126  0.2168  0.0121  0.0462
 3395W        W18526  15.608  10.620   2.017 -0.0218 -0.1245 -0.1341
 3396W        W18527   4.061   3.183  13.685 -0.4532  0.2590  0.1779
 3397W        W18528   4.797  12.353   4.244 -0.2204  0.0824  0.1379
 3398W        W18529  11.345  13.201  13.259  0.1069  0.0769 -0.2638
 3399W        W18530   4.895   7.933  10.717 -0.0109  0.3611  0.2049
 3400W        W18531   5.936   0.602   5.297  0.2417  0.1940 -0.2408
 3401W        W18532  13.626  16.420  15.076  0.0909 -0.2215 -0.1072
 3402W        W18533  17.635  16.360  14.500 -0.0374 -0.1523 -0.2168
 3403W        W18534   3.800  11.080  13.033 -0.1489 -0.0866  0.3594
 3404W        W18535  14.116   7.494  10.034  0.1360 -0.2688 -0.3024
 3405W        W18536   2.740  16.810   2.975  0.0558 -0.0807  0.0023
 3406W        W18537   1.338   0.488  13.106 -0.2240  0.0231 -0.0549
 3407W        W18538  16.472  14.527  11.309  0.1551  0.1310  0.3400
 3408W        W18539   6.642   3.425   4.277  0.2067 -0.1100 -0.3896
 3409W        W18540   6.398   8.928  10.080  0.0124 -0.2342 -0.3707
 3410W        W18541   4.965  13.666   1.381 -0.1112 -0.0570  0.3287
 3411W        W18542   2.458  16.874   5.278 -0.1109 -0.0616 -0.0094
 3412W        W18543   4.996   5.948  16.038  0.3063  0.1928  0.0775
 3413W        W18544  10.445  15.968  11.660 -0.0616  0.0026 -0.2523
 3414W        W18545  16.700   8.625  11.108 -0.0191  0.1553 -0.1159
 3415W        W18546  16.368  13.474   3.059  0.1805 -0.0205  0.1759
 3416W        W18547  13.723  16.001   1.931 -0.1284 -0.0713 -0.1529
 3417W        W18548   6.865   1.084  11.099 -0.1785  0.0170 -0.3516
 3418W        W18549  12.222   5.366  14.433 -0.0192  0.1085  0.0742
 3419W        W18550   8.305  12.796  16.019  0.0671 -0.2016  0.0767
 3420W        W18551   4.276   3.486   4.269  0.2365  0.0530 -0.4580
 3421W        W18552  14.769   5.103  12.634 -0.1351  0.0265  0.1608
 3422W        W18553  17.904  10.029   4.770 -0.1785 -0.0400 -0.2324
 3423W        W18554  11.240   3.538   4.375  0.0260 -0.1977 -0.1327
 3424W        W18555  14.324   3.374  12.515  0.3103 -0.0330  0.1776
 3425W        W18556  14.689   2.381   1.057  0.0019 -0.3676 -0.2065
 3426W        W18557  16.923   7.054  10.855  0.1876 -0.1634  0.1111
 3427W        W18558   1.997   0.533  10.155 -0.1981 -0.4600  0.4751
 3428W        W18559   4.051  17.709   3.674  0.0776 -0.1884  0.0205
 3429W        W18560  16.322   2.751   6.507 -0.0486 -0.0060  0.0823
 3430W        W18561  12.518   9.785  14.205 -0.1316  0.0539  0.0655
 3431W        W18562   8.441   8.642   2.437  0.0710  0.0470 -0.1880
 3432W        W18563  17.964  17.985  11.231  0.2327 -0.3701  0.0218
 3433W        W18564  11.603  13.180   0.194  0.0810  0.1163  0.0169
 3434W        W18565  10.502  13.318   2.089  0.2571  0.0031  0.3017
 3435W        W18566   5.894  16.322   1.190  0.1598 -0.0449 -0.2024
 3436W        W18567   2.288   0.120  13.955 -0.1339  0.0142  0.2836
 3437W        W18568  17.870  14.855   4.454 -0.2128  0.0686  0.2166
 3438W        W18569   4.512  17.806   5.747  0.0519  0.3074  0.1097
 3439W        W18570   7.177  15.707   0.263 -0.1891  0.1485 -0.2267
 3440W        W18571  16.949  15.367   1.825 -0.0604 -0.4705  0.3046
 3441W        W18572  16.259   5.809   4.216  0.0679 -0.1952 -0.0153
 3442W        W18573   7.725   4.045   2.427  0.0409 -0.4906  0.0351
 3443W        W18574   0.494  13.158  12.140 -0.0979  0.0298 -0.1498
 3444W        W18575   5.932   9.066   4.170 -0.1304 -0.1643  0.1531
 3445W        W18576   0.444   6.898   3.874  0.2224  0.2091  0.0434
 3446W        W18577  11.667   7.557   0.219 -0.0565 -0.4404  0.1492
 3447W        W18578  17.398   9.373  11.834  0.3542 -0.2002  0.0503
 3448W        W18579   7.542   6.921  12.638 -0.1152 -0.0841 -0.1084
 3449W        W18580  14.835  14.805   4.827  0.0040  0.3120  0.1860
 3450W        W18581  15.968  16.571  11.324 -0.0138 -0.1305  0.0517
 3451W        W18582   7.355  10.192   2.825  0.1665  0.2047  0.0361
 3452W        W18583  13.450  12.926   3.634 -0.1097  0.1004 -0.0397
 3453W        W18584   2.443   9.282   1.922  0.0272  0.0920  0.0350
 3454W        W18585  17.207   0.793  11.199 -0.0485 -0.0978 -0.0054
 3455W        W18586   0.123  13.038   3.723  0.0578  0.1382 -0.0493
 3456W        W18587  17.972   6.910   2.435  0.0118 -0.4096 -0.0086
 3457W        W18588  13.866   4.035   2.040 -0.2440 -0.0876  0.0138
 3458W        W18589   0.558   5.558  15.003 -0.0017 -0.2123 -0.0717
 3459W        W18590   1.581   7.582   5.173 -0.1632  0.1609  0.1018
 3460W        W18591   2.570   1.072  12.161 -0.3076  0.2605  0.0268
 3461W        W18592   0.700  15.079   3.013  0.0798  0.1542 -0.0600
 3462W        W18593  16.251  12.829   5.425  0.1677 -0.0688 -0.0786
 3463W        W18594  17.612  15.247  13.773  0.1912 -0.1080  0.1245
 3464W        W18595   6.163   9.937   3.211  0.0853  0.1266  0.0820
 3465W        W18596   3.512  13.469   3.515 -0.2068 -0.0209 -0.1107
 3466W        W18597   8.118  10.420   4.399 -0.1461 -0.1789 -0.3896
 3467W        W18598   3.437  17.217   3.658  0.0153  0.0609  0.1423
 3468W        W18599  10.332  14.507   2.608 -0.3281 -0.0983 -0.0365
 3469W        W18600   5.201  13.320  14.536 -0.4269  0.2941 -0.1985
 3470W        W18601  17.390   5.173   5.098  0.0138 -0.0128 -0.0067
 3471W        W18602   6.522  13.535  14.541 -0.1006  0.0759 -0.1130
 3472W        W18603   3.462   6.986  15.855  0.3430  0.4334  0.0393
 3473W        W18604  13.210  13.343   5.891  0.0866 -0.0453  0.2549
 3474W        W18605  16.913  18.177  13.323  0.1999  0.1587 -0.2010
 3475W        W18606   3.904  16.679   1.335 -0.0924  0.1100  0.3901
 3476W        W18607  13.630  13.371  13.274  0.1936  0.2121 -0.0926
 3477W        W18608   2.829   9.781  14.491 -0.0373 -0.5032  0.1191
 3478W        W18609  11.963   9.460  10.664  0.2570 -0.1217  0.0892
 3479W        W18610  13.228   4.151   2.849  0.1202  0.0423  0.2063
 3480W        W18611   8.627  10.825   0.106 -0.1284 -0.1584 -0.0630
 3481W        W18612  14.100  17.769  12.415  0.2784  0.1840  0.2212
 3482W        W18613   8.058  12.563  10.418 -0.2813  0.0239  0.1930
 3483W        W18614   2.534   4.958  13.288  0.1870  0.0425 -0.2064
 3484W        W18615  15.172  17.338  10.423 -0.1436  0.0680 -0.3340
 3485W        W18616   1.675  17.847   1.137  0.0776  0.1479 -0.1060
 3486W        W18617  15.624  11.314   5.111  0.1587 -0.3510  0.1667
 3487W        W18618  10.341   0.752  12.615 -0.4836  0.0783  0.0020
 3488W        W18619   5.423  15.558  15.704 -0.0201 -0.0139  0.0854
 3489W        W18620   2.749   7.801  11.548  0.1892 -0.0967 -0.1104
 3490W        W18621  16.899   7.479  14.090  0.1502 -0.0225  0.0761
 3491W        W18622  15.925  10.279  15.843 -0.1685 -0.0472  0.4156
 3492W        W18623   1.717  15.801   1.136 -0.2860  0.0467  0.3983
 3493W        W18624   2.242   1.242   2.202 -0.0469  0.0050 -0.0112
 3494W        W18625   7.006   9.992  13.153  0.0320  0.0405 -0.1317
 3495W        W18626  10.167   4.093   1.692  0.4065  0.1045 -0.1549
 3496W        W18627  10.377   1.750   3.179 -0.4277  0.1049 -0.1146
 3497W        W18628  14.900   7.355   2.055 -0.1593  0.3030  0.0808
 3498W        W18629  13.979  11.476  11.688 -0.0060 -0.4090 -0.1111
 3499W        W18630  15.108   8.545   3.226 -0.1786  0.1229  0.0148
 3500W        W18631  15.468   9.924  15.919 -0.1976  0.1240 -0.0128
 3501W        W18632  16.169   7.631   5.347  0.1326  0.2525  0.1856
 3502W        W18633  16.403   0.854   1.879 -0.0654  0.0148  0.3265
 3503W        W18634   2.002   9.490  14.835  0.1935  0.0165 -0.1196
 3504W        W18635  11.646  14.741  11.142  0.1273  0.2109 -0.2815
 3505W        W18636   2.743   9.352  14.720  0.1280 -0.1623 -0.1263
 3506W        W18637  12.180   6.062  15.530 -0.1267 -0.6781  0.1972
 3507W        W18638  15.422  15.254  14.105 -0.0340 -0.3276  0.3326
 3508W        W18639  11.174   5.004   3.712 -0.0330  0.0581  0.2027
 3509W        W18640  16.316  11.884   1.352 -0.0800 -0.0379 -0.0154
 3510W        W18641   8.180   0.079  13.834  0.2730 -0.1191 -0.1865
 3511W        W18642   2.090  16.388   1.383 -0.2276  0.1142  0.2634
 3512W        W18643  13.727   1.986   0.658  0.0690  0.0434 -0.0253
 3513W        W18644  18.073  16.640   4.656 -0.0495  0.0979 -0.1211
 3514W        W18645  12.904  14.986  13.437  0.0040  0.1616 -0.2284
 3515W        W18646  17.435  11.330   3.948 -0.2391  0.2606 -0.0028
 3516W        W18647  17.609  13.954  13.035  0.1340 -0.1072 -0.1767
 3517W        W18648   6.005  13.313   4.419  0.0012  0.0028 -0.1992
 3518W        W18649  14.635   8.348   5.663  0.0071 -0.0128 -0.0281
 3519W        W18650   2.588  18.140   2.572 -0.3383  0.5440  0.5087
 3520W        W18651  17.445   7.013  14.828 -0.1586 -0.1859  0.0842
 3521W        W18652  14.717  11.921   5.065  0.1316  0.0838  0.0554
 3522W        W18653   9.213  14.812  12.879  0.1862 -0.0815 -0.4195
 3523W        W18654   1.777   8.105   2.941 -0.1503 -0.3480  0.0990
 3524W        W18655   9.019   6.376   0.596 -0.0455  0.0640 -0.0855
 3525W        W18656  18.150   7.171  13.390  0.0222 -0.1090 -0.1094
 3526W        W18657   6.090  15.410  13.110  0.1791 -0.2493 -0.0697
 3527W        W18658   1.786   0.841  13.939 -0.1769  0.0428 -0.1037
 3528W        W18659   2.258   0.575  13.781 -0.2158  0.0642  0.1156
 3529W        W18660   2.910   4.546   0.923  0.1597 -0.1275  0.3290
 3530W        W18661   1.705   9.788   2.563  0.2316  0.2400 -0.0973
 3531W        W18662   1.993   2.804   5.494 -0.0311  0.0386  0.0008
 3532W        W18663   0.874   5.789   2.796 -0.3158 -0.1665  0.2939
 3533W        W18664  14.933  18.029   6.271 -0.1198 -0.0765  0.0746
 3534W        W18665   8.181  11.030  16.121 -0.2807  0.1191  0.0844
 3535W        W18666   7.497  11.670   3.189  0.3138  0.3174  0.2473
 3536W        W18667  17.570  11.208  12.523  0.0808  0.2096  0.0309
 3537W        W18668  10.963   3.042   5.501 -0.0991 -0.0412 -0.1882
 3538W        W18669   9.035   3.111   2.274 -0.2668 -0.0594  0.1548
 3539W        W18670   6.307   7.305   0.853  0.1449 -0.2746 -0.0169
 3540W        W18671   4.415  14.847  12.129 -0.2590 -0.0117  0.2659
 3541W        W18672   6.705   0.771   6.072 -0.4044  0.0534  0.0127
 3542W        W18673  11.935  13.836  15.532 -0.2883  0.1727  0.2820
 3543W        W18674   6.180  16.095  15.714  0.1219  0.1216 -0.3047
 3544W        W18675   7.746  14.645   1.469 -0.0766  0.3169 -0.0245
 3545W        W18676   7.154  14.128   9.796  0.0981  0.0777 -0.0830
 3546W        W18677  14.622   8.250   1.985 -0.1855  0.2980  0.0223
 3547W        W18678  14.399   4.049  12.189 -0.0179  0.0691 -0.2327
 3548W        W18679   0.726  17.621  15.521  0.0372 -0.2142  0.1834
 3549W        W18680  13.944  10.242  11.703  0.1497 -0.1118  0.1194
 3550W        W18681   0.292   9.819   1.320  0.0181 -0.2918  0.2404
 3551W        W18682   7.754   9.350  15.035 -0.0754  0.2089 -0.0090
 3552W        W18683  12.635  14.681   4.586  0.1228  0.0679  0.0411
 3553W        W18684  13.117  12.610  16.016 -0.0364 -0.0062 -0.0557
 3554W        W18685   9.414   9.575   2.434  0.1567 -0.2482  0.1517
 3555W        W18686   1.915   4.473  15.336  0.0149  0.0414 -0.1094
 3556W        W18687  17.991   1.016   5.684  0.1723 -0.2949  0.2224
 3557W        W18688  17.973  11.919  13.773  0.0550  0.0736 -0.1067
 3558W        W18689  13.047   3.165  11.297 -0.1801  0.0089  0.1361
 3559W        W18690   3.757   2.945  12.837 -0.2048 -0.2498 -0.1533
 3560W        W18691  16.892   5.007   1.419  0.1721 -0.1046 -0.1038
 3561W        W18692   1.223   7.183   5.045 -0.1786  0.0866 -0.2320
 3562W        W18693  13.775  14.801  15.985  0.2813 -0.1613  0.0042
 3563W        W18694  13.786  17.528   4.388  0.1627  0.1760 -0.1171
 3564W        W18695  11.573   1.060   3.776 -0.0707  0.0855  0.3818
 3565W        W18696  11.633   2.070  14.704  0.0458  0.1466  0.0656
 3566W        W18697   0.760   5.273  12.063 -0.1818 -0.3270  0.2422
 3567W        W18698  17.332  18.149   4.367 -0.0801 -0.0864  0.2975
 3568W        W18699   1.423   7.794  16.072  0.0770 -0.2358  0.0262
 3569W        W18700   2.767  17.518   1.261  0.1794  0.1936  0.0071
 3570W        W18701   8.351  16.419  11.123  0.0206  0.3868  0.0326
 3571W        W18702  12.132   9.577  13.013 -0.0648  0.2957  0.1364
 3572W        W18703   1.469   0.146  10.921 -0.3014  0.1471 -0.0267
 3573W        W18704   8.915   7.601  13.658 -0.1735 -0.2183 -0.3325
 3574W        W18705  16.555  16.611  10.470 -0.0612  0.2928  0.4533
 3575W        W18706   2.155  16.799  13.795 -0.1298  0.1450  0.3691
 3576W        W18707  13.483  12.648   5.025 -0.1988 -0.3581  0.1821
 3577W        W18708  16.091  13.629   3.637  0.3901  0.1201  0.1840
 3578W        W18709  11.916  14.661   5.296  0.5115  0.0200  0.2751
 3579W        W18710   4.198   2.540  15.665  0.2052  0.0314 -0.0804
 3580W        W18711   8.701   5.086   2.983  0.0658  0.1873  0.3131
 3581W        W18712   6.740   9.739   1.421  0.1852 -0.0817 -0.1640
 3582W        W18713  16.017   1.813   1.605 -0.1383  0.1305  0.0097
 3583W        W18714  16.493   4.856   2.048 -0.1422 -0.2003  0.0037
 3584W        W18715   3.975  14.221   0.890  0.0938  0.0174  0.1602
 3585W        W18716   9.234   6.319   5.032 -0.3144 -0.4190  0.1497
 3586W        W18717  17.713   2.193   3.811 -0.0985 -0.2100  0.0033
 3587W        W18718  16.319  10.021  15.884 -0.3265  0.0153 -0.0950
 3588W        W18719   3.342  15.867   2.614  0.2809  0.1914  0.1266
 3589W        W18720  10.275  10.168  12.144  0.0824  0.0070  0.1221
 3590W        W18721   3.755  10.675   1.823  0.1894  0.2560 -0.1097
 3591W        W18722  11.299  11.425  15.649 -0.0781 -0.4057  0.0749
 3592W        W18723  15.937  10.944   0.471 -0.1319 -0.1403 -0.0220
 3593W        W18724  14.482  10.248   2.378 -0.2215  0.3791  0.0638
 3594W        W18725  12.150  15.390  13.397  0.0639  0.0221  0.0900
 3595W        W18726  12.182  12.921  13.158 -0.0025  0.1180  0.4063
 3596W        W18727   8.848  13.032  11.144  0.2214 -0.1692  0.0142
 3597W        W18728  13.053  13.237  13.959 -0.0092 -0.1578  0.0089
 3598W        W18729   8.915  11.674  14.645  0.4313 -0.1499 -0.0792
 3599W        W18730   0.717  13.410  13.648  0.3252  0.2769  0.0205
 3600W        W18731   8.151   7.462   5.594 -0.1061 -0.1390 -0.0437
 3601W        W18732   9.322  16.680  14.329  0.2107 -0.0900 -0.1600
 3602W        W18733  10.253   3.795  15.610  0.0059 -0.2605 -0.0133
 3603W        W18734   1.931   5.514   5.673 -0.0323  0.0363 -0.0567
 3604W        W18735  12.023   3.218  11.658 -0.0116 -0.1445  0.1874
 3605W        W18736   9.996   7.519   5.682  0.1242  0.2496 -0.2369
 3606W        W18737   9.182   9.100  14.763 -0.0369  0.1400  0.0522
 3607W        W18738  16.566  16.493   5.322 -0.2162 -0.0785 -0.1036
 3608W        W18739   6.071   2.620   0.523  0.1752  0.1072 -0.0157
 3609W        W18740  10.039   7.410   2.413  0.3402  0.2348 -0.0917
 3610W        W18741  17.729   0.083  10.782  0.0623  0.1763  0.1507
 3611W        W18742   6.215   9.143  12.700 -0.2619 -0.1727 -0.5321
 3612W        W18743   4.737  14.805   5.140  0.0741  0.0263 -0.1259
 3613W        W18744   3.569  12.999  16.132  0.2683 -0.5558 -0.2089
 3614W        W18745   4.705  11.601  10.641 -0.2684  0.1084 -0.4151
 3615W        W18746   5.160   5.464  11.817  0.0368 -0.1797 -0.0065
 3616W        W18747  11.726   9.396   0.289 -0.0588 -0.2368 -0.1824
 3617W        W18748   7.946  12.461   4.707  0.0152 -0.0329  0.1653
 3618W        W18749  14.763  12.226   3.926  0.0535 -0.0215 -0.0523
 3619W        W18750   7.111   7.667  14.046 -0.0982 -0.1621  0.0387
 3620W        W18751  17.191   4.102  15.990 -0.1020 -0.1058 -0.0131
 3621W        W18752  13.105   0.469   5.348 -0.1667 -0.3288  0.2115
 3622W        W18753  12.782   2.481  15.087 -0.1291  0.0303 -0.1181
 3623W        W18754   6.492   3.066   2.176  0.2779 -0.1573 -0.1438
 3624W        W18755   1.322   8.827  11.717 -0.2819  0.3082 -0.1496
 3625W        W18756  15.631   8.338   0.851  0.1255 -0.1541 -0.1563
 3626W        W18757   5.403  13.986   5.238  0.2234 -0.1450 -0.3564
 3627W        W18758   9.216  11.646  15.981  0.2222  0.1583 -0.0602
 3628W        W18759   1.356   5.705   1.098 -0.1173  0.0207 -0.1922
 3629W        W18760   9.851  13.337   4.579  0.2489  0.0977 -0.1493
 3630W        W18761   6.552  17.327   2.003  0.1518 -0.1277 -0.2407
 3631W        W18762  16.951  12.948   5.041 -0.1052  0.4028 -0.1294
 3632W        W18763  10.961  12.998  11.095 -0.0549 -0.1385  0.2547
 3633W        W18764  14.749   8.554   4.731  0.4744  0.2752  0.1691
 3634W        W18765   6.929   4.142   3.769 -0.0131 -0.0849  0.0409
 3635W        W18766  14.051   6.872  11.813  0.0032 -0.0529  0.1609
 3636W        W18767  13.247   7.601  15.035 -0.2060 -0.1273  0.2398
 3637W        W18768   1.997   0.444   0.482  0.2980 -0.1589  0.0351
 3638W        W18769   4.328   6.564   3.887  0.0315 -0.3054 -0.0045
 3639W        W18770   3.325   7.435   1.687 -0.2623  0.1272  0.0302
 3640W        W18771  17.254   5.439   1.027 -0.0822 -0.0678  0.3211
 3641W        W18772   1.850   3.067   4.637 -0.0631 -0.0613 -0.1238
 3642W        W18773   4.309   4.014  14.488  0.1005  0.4247  0.2620
 3643W        W18774  16.840  11.250   5.793 -0.0370  0.3061  0.1998
 3644W        W18775   5.574  13.837   6.481 -0.2021  0.1295  0.5140
 3645W        W18776   6.053  15.022  14.968 -0.0257  0.1344  0.0769
 3646W        W18777  11.053   3.537  12.911  0.0616 -0.1727  0.0741
 3647W        W18778  14.991  17.272  10.920  0.0628  0.1448 -0.0464
 3648W        W18779  15.557   0.010  13.457 -0.1058  0.2735 -0.1195
 3649W        W18780   1.656  13.667   1.766  0.1490 -0.1284  0.1062
 3650W        W18781   3.327   6.446  12.030 -0.0145  0.2601  0.0833
 3651W        W18782   1.128  12.894   3.517  0.0447 -0.1867 -0.0568
 3652W        W18783  11.691  13.481  15.268 -0.0186  0.0199  0.0625
 3653W        W18784  11.176   0.254   1.592  0.1456 -0.1171 -0.0930
 3654W        W18785   1.127   9.605   5.088 -0.1117 -0.1342  0.0793
 3655W        W18786  11.866   6.675   5.521 -0.1332 -0.1499  0.2798
 3656W        W18787   6.202   8.732  10.820  0.1308  0.1145  0.1961
 3657W        W18788   6.040  18.293  13.614 -0.2113 -0.0509 -0.1964
 3658W        W18789   1.886  16.619  12.884  0.0838 -0.1845 -0.3244
 3659W        W18790  12.339  16.400   9.988  0.2333  0.3265 -0.0759
 3660W        W18791   0.085  14.915  15.569  0.0251  0.3842  0.1614
 3661W        W18792   5.713   5.068   1.182 -0.1523  0.2129  0.0258
 3662W        W18793  14.470   7.854   4.768 -0.0162 -0.1442 -0.1801
 3663W        W18794  10.969   1.427   0.389  0.0442  0.0547  0.2611
 3664W        W18795   1.663  12.208   2.001  0.1068  0.1356  0.1250
 3665W        W18796   6.364  17.810   5.226  0.0483 -0.0457  0.1808
 3666W        W18797  18.189   5.794  11.720  0.1491 -0.3430 -0.3246
 3667W        W18798   9.340   0.055   0.619 -0.0940  0.3669  0.3531
 3668W        W18799   1.305   8.906  10.345 -0.1832  0.0703  0.0922
 3669W        W18800  13.193  13.688  14.909 -0.1935  0.0412 -0.1673
 3670W        W18801  15.079   6.271   2.858 -0.0907  0.1232 -0.0397
 3671W        W18802  10.833  14.371  13.721 -0.0673  0.0508 -0.0959
 3672W        W18803  16.413  16.398  12.008 -0.0966  0.1669 -0.2664
 3673W        W18804  17.395  11.782  11.327 -0.2421 -0.1870  0.2258
 3674W        W18805   8.911   0.107   6.500 -0.1433  0.0116 -0.1077
 3675W        W18806   6.556   0.116   3.000  0.0425 -0.0622  0.0486
 3676W        W18807   5.808   8.194  11.892  0.1384 -0.0795  0.1291
 3677W        W18808  17.493   8.779  15.440  0.1328 -0.2657 -0.2394
 3678W        W18809   5.228   8.140  11.612  0.1523 -0.1576  0.2509
 3679W        W18810   1.415   9.970  14.500  0.1403  0.3011  0.1616
 3680W        W18811   4.575   0.383   2.046 -0.1035  0.3811  0.0052
 3681W        W18812  10.813   7.080   2.218 -0.0319 -0.1646  0.2333
 3682W        W18813   2.961   3.131   4.466  0.0078  0.2320  0.1850
 3683W        W18814  17.094   1.633  10.273 -0.1791  0.0639  0.3547
 3684W        W18815  12.656  16.372  13.925 -0.2620 -0.3316 -0.1158
 3685W        W18816   0.241  15.883   0.036 -0.2156 -0.1962 -0.1653
 3686W        W18817   0.925   7.100  12.703  0.0371 -0.0873 -0.0688
 3687W        W18818  14.438  11.029   5.062 -0.0053 -0.4817  0.3470
 3688W        W18819   3.328   8.791  12.256  0.0998 -0.0546  0.3599
 3689W        W18820  12.019  11.744  15.931 -0.2958  0.3149  0.1130
 3690W        W18821   5.724   1.490  15.822  0.1722 -0.2556  0.0786
 3691W        W18822  17.564  17.576  15.342  0.1367 -0.2337  0.1104
 3692W        W18823  16.616   6.712   3.994  0.0434  0.0260  0.1016
 3693W        W18824   2.769  14.089  12.444  0.2058 -0.2040  0.2263
 3694W        W18825   9.150   8.865   3.100 -0.1584  0.0989 -0.1637
 3695W        W18826   3.887   3.786   9.853 -0.2097  0.1926 -0.0367
 3696W        W18827  15.914  13.498  13.432  0.0089 -0.2281  0.3078
 3697W        W18828  14.151   8.784  14.272  0.1024 -0.0822  0.1141
 3698W        W18829   2.995  16.373   5.623  0.0423  0.0308  0.0929
 3699W        W18830  11.800   1.402   3.473 -0.1983 -0.2135  0.1033
 3700W        W18831  18.027   7.641  12.340 -0.4183 -0.0244  0.0987
 3701W        W18832   7.000  13.088  15.559  0.1967  0.0920  0.1908
 3702W        W18833   4.711   6.429   4.651  0.2714 -0.1822  0.2142
 3703W        W18834   9.983   7.376  14.196 -0.0926  0.1928 -0.2440
 3704W        W18835   0.526   8.027  12.523  0.2736 -0.0716  0.3052
 3705W        W18836   7.844   3.485   0.808 -0.0595 -0.0478 -0.2900
 3706W        W18837  10.692   1.784  12.920 -0.4800  0.2654  0.0014
 3707W        W18838  12.058   8.353  13.458 -0.2424  0.4107 -0.2909
 3708W        W18839   0.027  15.425   5.330  0.0173 -0.2601 -0.0616
 3709W        W18840  14.379   0.915  11.345  0.2095  0.0085  0.0138
 3710W        W18841  13.536   1.309   3.884  0.0920  0.0316  0.0207
 3711W        W18842   5.892   6.102   1.945 -0.1278  0.0250 -0.2850
 3712W        W18843  16.594   6.040  14.059 -0.0368  0.1520 -0.0679
 3713W        W18844  17.163  15.914  14.599 -0.0566 -0.0875 -0.0250
 3714W        W18845   9.313  15.267  15.156 -0.1527 -0.0551 -0.3603
 3715W        W18846   7.450   3.550   2.549 -0.0736 -0.2117 -0.0118
 3716W        W18847  12.667  15.253   5.674  0.1948  0.0439 -0.1694
 3717W        W18848   3.854  14.719  13.200 -0.1373 -0.4443 -0.4126
 3718W        W18849   1.935   9.707   4.688  0.0472 -0.1870 -0.1507
 3719W        W18850  18.366  18.194  14.809 -0.2858  0.1591 -0.0313
 3720W        W18851   2.105  16.730   4.078 -0.0816 -0.0036  0.0870
 3721W        W18852  11.245  13.024   5.077  0.2864 -0.0764 -0.0311
 3722W        W18853  17.225  16.403   1.676  0.0449  0.0018 -0.1219
 3723W        W18854   9.842   7.019   5.915 -0.0129  0.2358 -0.2705
 3724W        W18855   7.294  14.804   2.737 -0.0568  0.1571  0.1617
 3725W        W18856   2.798  10.389  12.323 -0.2802 -0.0797  0.2337
 3726W        W18857  13.027  13.683  11.068  0.0677 -0.0387 -0.3639
 3727W        W18858  13.487   4.226  13.860 -0.0016 -0.0019 -0.1114
 3728W        W18859  13.392   2.824   6.214  0.2740 -0.0746 -0.1499
 3729W        W18860  14.502   8.012  11.662  0.4436 -0.2546 -0.0139
 3730W        W18861   3.697   5.380  10.754 -0.0920  0.2335 -0.0537
 3731W        W18862  10.186   5.269   4.062 -0.0992 -0.0380  0.4875
 3732W        W18863  10.772  13.534  12.241 -0.1658  0.0394  0.0302
 3733W        W18864   4.323  15.021   4.838 -0.1552  0.0397 -0.2139
 3734W        W18865   3.742   5.733  14.683  0.0223  0.4084  0.1722
 3735W        W18866  10.485   3.691  13.030 -0.3528  0.0300  0.2056
 3736W        W18867   9.862   6.195   3.339 -0.0038 -0.0725 -0.3158
 3737W        W18868  15.058   5.322   0.941 -0.1116 -0.0049  0.1700
 3738W        W18869   5.105   1.919  13.937  0.3099 -0.2645  0.2000
 3739W        W18870   3.871   7.622  13.895 -0.2755 -0.0412  0.1198
 3740W        W18871   0.447  11.540   2.057  0.0247 -0.1480  0.0402
 3741W        W18872  11.617   3.869   2.007  0.0665 -0.0583 -0.0758
 3742W        W18873  14.689   8.953   1.016 -0.0395 -0.0973  0.2210
 3743W        W18874  17.114  14.423   4.587 -0.0680  0.0839 -0.0670
 3744W        W18875   5.666   3.817  13.514  0.2480  0.1685  0.0368
 3745W        W18876   5.444  14.395   1.595  0.0249 -0.1660 -0.0770
 3746W        W18877   0.160   4.328  12.188 -0.0170 -0.1633 -0.0984
 3747W        W18878   0.245  16.611   0.835 -0.1689 -0.0269 -0.1995
 3748W        W18879  11.688   3.925  15.531 -0.1331  0.2151  0.0332
 3749W        W18880  18.322   3.856  10.944 -0.3063 -0.1629 -0.1218
 3750W        W18881   8.309   6.938  14.777 -0.0376 -0.0205 -0.2451
 3751W        W18882  13.352  16.748  15.506 -0.0997  0.4451  0.1501
 3752W        W18883   4.554   9.277  13.627  0.3174 -0.1268 -0.0116
 3753W        W18884   5.752  12.794  10.752 -0.4134 -0.0218 -0.2815
 3754W        W18885   6.534  11.844   4.785  0.1888 -0.4621 -0.1813
 3755W        W18886  18.116   4.211   4.784  0.2471 -0.1249  0.3350
 3756W        W18887  17.713  17.008  13.829  0.2808 -0.3008 -0.1501
 3757W        W18888  15.851   3.211   0.800  0.3061 -0.1722  0.2694
 3758W        W18889  11.901   5.002  14.269  0.0955 -0.0286  0.1430
 3759W        W18890   9.945   0.649   5.522  0.1115  0.0254 -0.2607
 3760W        W18891   5.436   8.859   2.384 -0.1898  0.0957 -0.1829
 3761W        W18892  11.731   2.816   0.585  0.1854  0.2385 -0.1551
 3762W        W18893   7.383   7.142  12.082  0.0114  0.4682  0.1269
 3763W        W18894   2.951  13.499   0.986  0.5293  0.0234  0.1188
 3764W        W18895  14.500  15.292   3.976  0.1302 -0.0273  0.3342
 3765W        W18896   3.405   8.690  10.588  0.0121 -0.1837  0.0380
 3766W        W18897  14.143   1.484  11.318 -0.2640  0.0607 -0.1411
 3767W        W18898   3.338   1.725   4.380 -0.1921 -0.1238  0.3149
 3768W        W18899   0.289  15.438   2.432 -0.0786  0.2245 -0.0671
 3769W        W18900   5.728   9.694  14.327  0.3159  0.1449 -0.0121
 3770W        W18901   4.989  12.563   3.099 -0.3713 -0.3714 -0.1222
 3771W        W18902  15.355   1.123   2.426 -0.2170  0.1756 -0.1493
 3772W        W18903   4.830   2.720  15.152  0.0382 -0.1043  0.1152
 3773W        W18904   2.948  17.598  11.677 -0.2146  0.0092  0.3862
 3774W        W18905   2.585  12.908  14.286 -0.1441 -0.0863 -0.1238
 3775W        W18906   5.567   6.774   1.178  0.1704 -0.3462 -0.0282
 3776W        W18907  15.528   2.023  15.411 -0.1082 -0.1182 -0.1209
 3777W        W18908   8.312  15.672   4.360  0.0240  0.3281  0.0716
 3778W        W18909   4.556  16.758   5.095 -0.2450 -0.0418 -0.1087
 3779W        W18910  10.070  10.558  12.457 -0.2695 -0.2235  0.0597
 3780W        W18911   3.835   2.834   4.647 -0.0319 -0.0477 -0.1320
 3781W        W18912  18.117   2.277   1.638 -0.3155 -0.0783 -0.2283
 3782W        W18913   6.412   5.662  11.531  0.3784  0.0231  0.2265
 3783W        W18914  16.418   8.938   5.350 -0.0148 -0.0765 -0.1587
 3784W        W18915   1.876   6.407   0.113 -0.2843 -0.0556  0.1157
 3785W        W18916  10.251   8.968   5.345 -0.0692 -0.2112 -0.2000
 3786W        W18917   1.766   0.787   5.101 -0.0183 -0.0840  0.0057
 3787W        W18918   9.417  12.369   6.031 -0.0737  0.2363 -0.2915
 3788W        W18919  13.688  10.408  14.703 -0.1829  0.1427 -0.2454
 3789W        W18920  17.579   0.512  11.438 -0.2827  0.4123 -0.1364
 3790W        W18921   7.787  16.086   3.477  0.2685  0.2731  0.0312
 3791W        W18922   0.397  15.670   1.269 -0.0527  0.0064 -0.1536
 3792W        W18923  15.604  13.890  13.612  0.2154 -0.1046  0.1837
 3793W        W18924  15.429  12.242  13.208  0.0678 -0.3043  0.1773
 3794W        W18925   4.852   7.609  14.558 -0.1770  0.0773  0.2057
 3795W        W18926  11.038   8.486  11.426 -0.2908 -0.1732  0.1183
 3796W        W18927   3.872   8.853  12.288 -0.1053 -0.2551 -0.2326
 3797W        W18928   0.481  11.454   4.745  0.0445 -0.2020  0.0794
 3798W        W18929  11.472   5.255   5.455  0.1830  0.3134  0.1567
 3799W        W18930   3.916   8.952  14.528 -0.1464  0.0621 -0.5433
 3800W        W18931  16.554  12.590   1.621  0.2055  0.2750 -0.1345
 3801W        W18932   7.824   2.565   0.881 -0.1884 -0.0326 -0.0125
 3802W        W18933   3.199   7.829  13.368  0.0550  0.2149 -0.0198
 3803W        W18934  11.257   0.483   2.046 -0.1611 -0.0722 -0.1818
 3804W        W18935   7.755   0.599  11.686 -0.0749 -0.0727 -0.2410
 3805W        W18936   8.051  16.000  14.776  0.0244  0.2438  0.0710
 3806W        W18937   0.988   6.616  12.842  0.1985 -0.0094  0.2119
 3807W        W18938  13.054  17.045  13.011 -0.0583 -0.0046  0.0282
 3808W        W18939   8.003  18.132   0.302  0.1552 -0.1594  0.1314
 3809W        W18940   2.275   8.548  14.058  0.1578  0.0068  0.3530
 3810W        W18941   3.019   3.666  10.408 -0.0519 -0.2218 -0.1079
 3811W        W18942   0.753  12.763   1.715 -0.1619  0.2489 -0.1703
 3812W        W18943   8.054   6.969  12.543 -0.0767 -0.0151  0.1817
 3813W        W18944   8.086  10.056  15.870  0.0232  0.0135  0.2075
 3814W        W18945   8.330  13.670  11.027 -0.2976  0.0223 -0.2583
 3815W        W18946   9.363   1.091  15.183 -0.2222  0.0316 -0.1010
 3816W        W18947  10.380   8.667   3.856 -0.1877 -0.1050 -0.0885
 3817W        W18948   0.773   3.186   5.572 -0.3311  0.1317  0.5051
 3818W        W18949   6.542  11.936  10.388  0.1101 -0.0356 -0.1164
 3819W        W18950   6.913  18.090   2.735 -0.0707  0.1362  0.1715
 3820W        W18951  15.453  17.470   3.885  0.0834 -0.0675  0.1580
 3821W        W18952  12.539  13.778   0.246 -0.1610  0.4549  0.1527
 3822W        W18953  10.718   1.277   4.178  0.0871 -0.0049  0.3084
 3823W        W18954   9.555  15.855   2.604  0.1304 -0.1814  0.1334
 3824W        W18955  16.731  11.370  13.022 -0.0751 -0.0089 -0.0424
 3825W        W18956   1.670   4.609   2.040 -0.0153  0.0384  0.1490
 3826W        W18957   9.902   5.646   2.074  0.0725 -0.2690 -0.0574
 3827W        W18958  14.933  14.297  14.683  0.1443 -0.5998  0.1550
 3828W        W18959   7.081  15.502   1.366  0.0698  0.1028 -0.1059
 3829W        W18960   2.041   2.314   3.117 -0.0752 -0.1479  0.0079
 3830W        W18961  12.177   6.258   0.331  0.1458  0.0656 -0.4727
 3831W        W18962   7.489   6.025   3.215  0.4050 -0.1478  0.4348
 3832W        W18963  13.203  15.169  10.787  0.0063  0.3016  0.2971
 3833W        W18964  16.898  14.328   0.895 -0.4403 -0.1794  0.2774
 3834W        W18965   3.349   2.652   0.952 -0.0572 -0.0319 -0.0486
 3835W        W18966   6.264   5.517  13.034 -0.1991 -0.4155 -0.2993
 3836W        W18967  15.430  16.662  12.329  0.2124  0.0623 -0.1122
 3837W        W18968   3.601  12.659  15.380 -0.1596 -0.1950 -0.4176
 3838W        W18969  11.114   0.292   2.742  0.1484 -0.0973  0.1143
 3839W        W18970   1.400  16.201  12.491  0.0308 -0.3602 -0.1971
 3840W        W18971  10.632   1.273   3.163  0.0697  0.4529 -0.3860
 3841W        W18972   0.650   7.395  10.790 -0.1411  0.0413 -0.1930
 3842W        W18973  13.966  16.539  13.954 -0.0686 -0.0696 -0.0767
 3843W        W18974  15.346  10.812  11.343  0.1379  0.0034 -0.0885
 3844W        W18975  12.886  18.365   3.545  0.3840  0.2101 -0.1771
 3845W        W18976   0.689   4.903  11.173 -0.0312 -0.1463  0.0300
 3846W        W18977   7.266  12.716   4.038 -0.3723 -0.1890 -0.0618
 3847W        W18978   1.303  12.093   3.309 -0.1176 -0.0485  0.1317
 3848W        W18979  17.864   5.881  13.971  0.2401 -0.1243 -0.0591
 3849W        W18980  10.283   4.385   6.376  0.0825 -0.0138  0.0482
 3850W        W18981   7.400   0.225  11.108  0.0047  0.2385 -0.0464
 3851W        W18982   6.387  11.902   3.232 -0.1039  0.1199 -0.0705
 3852W        W18983  12.465   3.445  12.896  0.1361  0.0630 -0.0136
 3853W        W18984   9.185  10.204   0.671  0.2461  0.2745  0.1945
 3854W        W18985   2.753   1.922  11.672  0.0620  0.0126  0.0355
 3855W        W18986   3.192   9.771  13.080 -0.0195  0.2679 -0.0837
 3856W        W18987  17.003  10.925   1.976  0.0497  0.2817  0.0338
 3857W        W18988   5.370  17.038   4.770  0.2777 -0.0891  0.1391
 3858W        W18989  10.659   8.347   3.588  0.3437 -0.1154  0.0193
 3859W        W18990  13.332  10.044   2.610 -0.0853  0.3547 -0.3293
 3860W        W18991   1.820   7.819   3.492 -0.0584  0.0887  0.0610
 3861W        W18992   8.995  13.682   2.953 -0.3200  0.3841 -0.1159
 3862W        W18993   1.570  16.749  15.887  0.4333 -0.1044 -0.0725
 3863W        W18994   4.591   1.723  14.148  0.1013 -0.0846 -0.1232
 3864W        W18995  14.208  15.154   0.597 -0.1444  0.1471  0.1570
 3865W        W18996   3.478   4.561  14.945  0.0139  0.2455 -0.1673
 3866W        W18997   0.569   6.709  13.649 -0.3141  0.0704  0.0184
 3867W        W18998   6.730   4.265   4.241  0.1401  0.3192 -0.0150
 3868W        W18999   8.700   4.748  15.012  0.1470 -0.0685  0.0004
 3869W        W19000   7.710   4.090   3.353 -0.0711  0.0634  0.2537
 3870W        W19001   1.368  18.351  15.292 -0.1454  0.0345  0.0380
 3871W        W19002  16.780   8.016   0.724  0.0937  0.0041  0.1792
 3872W        W19003   2.611  10.791   3.514 -0.3545 -0.0966  0.2577
 3873W        W19004   5.745   3.308   0.694 -0.0844  0.3500 -0.0383
 3874W        W19005   3.761  12.252  15.198 -0.0795 -0.0889  0.1266
 3875W        W19006   2.997   1.015   2.735  0.0040 -0.1815 -0.1815
 3876W        W19007   8.676  12.147   2.038  0.0933  0.2413  0.1383
 3877W        W19008  17.551   0.662  13.314  0.0939 -0.0301 -0.2269
 3878W        W19009   3.405   0.593  11.622  0.1436  0.0309  0.1701
 3879W        W19010   5.955   2.586  13.291  0.2087  0.2312  0.2292
 3880W        W19011   5.504  12.946  14.898  0.5131  0.0855  0.1139
 3881W        W19012   0.675   4.326   3.571 -0.0451 -0.1392 -0.1405
 3882W        W19013   4.593  13.010   4.500 -0.3014 -0.2611 -0.1147
 3883W        W19014   4.148  10.548   0.908  0.1276 -0.0012 -0.2078
 3884W        W19015   1.256  13.050  11.408 -0.1108 -0.0796  0.3216
 3885W        W19016   2.378   8.890  16.092 -0.4336 -0.4395  0.2836
 3886W        W19017   3.563   4.692  11.287  0.3029 -0.3388 -0.0601
 3887W        W19018   5.385   6.288  14.236 -0.1422 -0.1307 -0.3680
 3888W        W19019  17.164   4.165  14.586  0.1395 -0.1035  0.0816
 3889W        W19020  13.912  16.477  12.146 -0.0963 -0.1622 -0.0200
 3890W        W19021  17.782  14.991  11.824 -0.0202  0.1745  0.1036
 3891W        W19022   8.587  14.380  10.381 -0.0582  0.1591 -0.0012
 3892W        W19023   8.067   1.530  15.216 -0.1772 -0.0076 -0.2054
 3893W        W19024   5.369   5.793   3.401  0.2293 -0.0634  0.2590
 3894W        W19025  13.736   2.309  15.754 -0.3612 -0.1532 -0.2319
 3895W        W19026  17.831   6.858  11.758 -0.0098 -0.0256 -0.0626
 3896W        W19027   5.471   2.465   4.538  0.0152  0.3254 -0.2383
 3897W        W19028   8.997  13.431   4.511 -0.0735 -0.1898  0.0576
 3898W        W19029  14.619  12.840   4.794  0.0227  0.0098  0.2309
 3899W        W19030  14.536   0.488   3.520 -0.1247  0.0499 -0.3320
 3900W        W19031   5.659  14.517   0.164  0.0435  0.1246  0.0660
 3901W        W19032   8.984   2.053  13.684 -0.1329  0.1643  0.2545
 3902W        W19033  10.267  12.718   3.102 -0.0120  0.1952 -0.0571
 3903W        W19034  16.428  11.670   5.110 -0.0966  0.1967  0.4366
 3904W        W19035   9.871   9.332  13.345  0.0937  0.1663 -0.0100
 3905W        W19036   9.782   2.418   5.362  0.2014  0.2314  0.2208
 3906W        W19037  12.674  13.243   1.202  0.2902  0.1395 -0.0551
 3907W        W19038  10.056   1.782   5.054  0.4483  0.0896 -0.0324
 3908W        W19039  14.549   0.211   4.885  0.2718 -0.0202  0.0856
 3909W        W19040   7.875   8.093   5.051  0.1858 -0.4338 -0.0394
 3910W        W19041   1.341   2.091  12.079 -0.0475  0.1324 -0.3202
 3911W        W19042   9.437  14.900   5.693  0.0958 -0.0855 -0.0740
 3912W        W19043   8.264  18.239  12.696  0.1731  0.2773  0.1218
 3913W        W19044  10.171   0.264   5.259  0.3076  0.1933  0.2877
 3914W        W19045  10.731  10.118  10.768 -0.1045 -0.2486  0.0887
 3915W        W19046   7.418  13.085  11.998  0.0767 -0.1279 -0.4625
 3916W        W19047  11.746   9.678  13.905  0.0127 -0.4611  0.1160
 3917W        W19048   6.676   6.588  14.658  0.1176  0.0392 -0.0972
 3918W        W19049  16.749   2.291   1.898 -0.2061 -0.5085 -0.0331
 3919W        W19050   9.933   6.171   4.338 -0.2493 -0.2157  0.2011
 3920W        W19051   6.607  15.444   5.759 -0.0210  0.2244  0.2281
 3921W        W19052   4.834  15.229  15.043  0.2071  0.3059  0.1063
 3922W        W19053   8.120   5.133  14.212 -0.0301 -0.0908  0.1112
 3923W        W19054  16.004   0.169   1.178 -0.1126 -0.1589 -0.2137
 3924W        W19055   5.136  17.669   4.960 -0.1210  0.0991  0.1959
 3925W        W19056   1.311  11.828  12.427  0.1579  0.3770  0.1141
 3926W        W19057  12.591   9.187  14.917 -0.0483  0.0919 -0.2545
 3927W        W19058  18.225   2.521  15.381 -0.0713 -0.0610 -0.0349
 3928W        W19059   6.689  11.709   9.663 -0.0805 -0.0413  0.3061
 3929W        W19060   7.523   2.936   3.349  0.1236 -0.1991 -0.1802
 3930W        W19061   2.781  10.528   4.097  0.1218 -0.2744  0.0810
 3931W        W19062  13.978   0.371   0.654 -0.1787  0.1376 -0.0428
 3932W        W19063   2.283   7.406   3.401  0.1941  0.1468 -0.1417
 3933W        W19064   1.210   0.342  11.817 -0.0706  0.4197  0.0227
 3934W        W19065   0.128  11.070  11.379  0.0490 -0.0071  0.0507
 3935W        W19066  16.717   6.330   2.734 -0.0633  0.0609  0.2589
 3936W        W19067  11.134   4.721  14.061  0.2809 -0.1134 -0.3022
 3937W        W19068   2.927   8.051   0.180 -0.2345  0.3071 -0.1924
 3938W        W19069   7.291  14.537   4.694  0.0823  0.0112  0.0971
 3939W        W19070   0.504  16.947  13.760  0.1319 -0.0749 -0.1063
 3940W        W19071   5.493   8.589   1.677  0.1395  0.0062 -0.1221
 3941W        W19072   3.609   7.813  13.069  0.0558  0.0999  0.2199
 3942W        W19073   2.032  14.020   1.802  0.0635 -0.2871  0.4036
 3943W        W19074   1.496   1.672  12.740  0.1227  0.0794  0.2010
 3944W        W19075  14.580  15.645  14.415 -0.0876 -0.0170 -0.0894
 3945W        W19076   6.900   0.310  13.259  0.1901 -0.2412  0.2258
 3946W        W19077   5.451   5.355  11.109 -0.2055 -0.2645 -0.2159
 3947W        W19078  17.040   3.309  14.908  0.0213 -0.1368  0.3384
 3948W        W19079   5.366   4.471  12.794  0.0235  0.1011 -0.1446
 3949W        W19080   4.104  11.918  11.138  0.1034  0.0479  0.1615
 3950W        W19081   7.076  14.105  10.340 -0.1836  0.0535 -0.1205
 3951W        W19082   6.139  17.422  11.572 -0.2258  0.3346  0.0328
 3952W        W19083  10.035   5.099   5.357 -0.1140  0.0315 -0.0681
 3953W        W19084   7.468   4.322  13.578 -0.2428 -0.0866 -0.1312
 3954W        W19085  11.729   9.674   1.664 -0.1990 -0.0393  0.1005
 3955W        W19086   8.967   2.108  15.604  0.1539  0.0409 -0.3715
 3956W        W19087   5.207   4.328   2.564  0.2839 -0.1216  0.0078
 3957W        W19088   4.229   1.063   5.524 -0.0097  0.0475  0.0469
 3958W        W19089  13.293  11.357  12.655 -0.1184  0.3543 -0.1347
 3959W        W19090  16.579  10.559  14.582 -0.3002 -0.1493 -0.3285
 3960W        W19091  11.685   9.992   0.158  0.1544  0.1936  0.2669
 3961W        W19092  18.217  14.998   0.789  0.1971  0.2963  0.4404
 3962W        W19093  11.209   5.748   3.131 -0.0613 -0.3819 -0.3940
 3963W        W19094  17.043  14.391   0.406  0.2512  0.0917  0.0675
 3964W        W19095  10.385  11.004   4.004 -0.0949  0.0311  0.0795
 3965W        W19096  10.472  10.380   0.973 -0.1006 -0.0330 -0.1373
 3966W        W19097  11.680  11.361   3.093  0.3692 -0.4671  0.2974
 3967W        W19098   5.191  18.094   5.143 -0.0368 -0.1706 -0.3747
 3968W        W19099   2.667  13.361   4.243  0.4736  0.0883  0.0517
 3969W        W19100  15.804   4.552   4.111 -0.0057 -0.3172 -0.0164
 3970W        W19101   6.492   8.721  12.849  0.1612  0.2020  0.2881
 3971W        W19102  13.355  13.906  16.080 -0.2954  0.1903 -0.1513
 3972W        W19103   9.421   1.648  14.426 -0.0865 -0.2009  0.2061
 3973W        W19104  18.192   7.382   2.186  0.2105  0.0059  0.0885
 3974W        W19105   1.783   4.010   4.475 -0.0466  0.1718  0.0070
 3975W        W19106   2.833  13.878  15.749  0.1535 -0.4351  0.1148
 3976W        W19107  15.088  14.885   0.429 -0.2912  0.0271 -0.3419
 3977W        W19108  12.185  18.143  13.117 -0.1622 -0.2092  0.3670
 3978W        W19109   2.167  10.254   4.826  0.2199 -0.1152 -0.1428
 3979W        W19110  14.245  12.392  11.835  0.4444  0.0928 -0.1994
 3980W        W19111  10.132  14.221   0.237 -0.0419  0.0383  0.1773
 3981W        W19112   7.460  11.392   6.055 -0.0016  0.0240  0.2999
 3982W        W19113   1.102   7.639   0.728 -0.1242  0.3729  0.1627
 3983W        W19114  17.011   5.639  14.241 -0.0110 -0.0163  0.0466
 3984W        W19115   8.471   1.110   4.869  0.2159  0.2891  0.6479
 3985W        W19116  15.326  16.194   3.868 -0.0035  0.2497 -0.2936
 3986W        W19117   8.701  17.964  11.503 -0.0270 -0.0284 -0.2155
 3987W        W19118  16.767  15.714  14.796 -0.0222  0.0127  0.0261
 3988W        W19119  14.349   4.199  11.634 -0.5639 -0.1627  0.1393
 3989W        W19120   9.873  13.192   0.648 -0.3873 -0.2863 -0.0437
 3990W        W19121   2.261  12.418   4.088 -0.3143  0.1104 -0.1193
 3991W        W19122  11.613  10.384  13.139  0.1529 -0.0884 -0.2724
 3992W        W19123   8.547   9.880   1.376  0.1208 -0.0032  0.0427
 3993W        W19124   2.439   9.055  10.542  0.0556 -0.0939  0.1081
 3994W        W19125  12.859   3.192  12.062  0.2464 -0.1129  0.2339
 3995W        W19126   5.224  15.415  10.162  0.2528 -0.2052 -0.1331
 3996W        W19127  14.047  10.718   5.209  0.1322 -0.1472  0.0763
 3997W        W19128  13.501   2.958  13.722 -0.0625 -0.5136 -0.0441
 3998W        W19129   2.001   9.838   1.457  0.0310  0.0201  0.1152
 3999W        W19130  15.292   9.630   0.663  0.1414 -0.1770 -0.0350
 4000W        W19131   4.579  14.966  16.025 -0.0207 -0.1217  0.0062
 4001W        W19132   9.813   1.059  13.299  0.1330  0.1227  0.0338
 4002W        W19133   9.541  17.567  14.671 -0.0243 -0.1329 -0.1595
 4003W        W19134   3.580  11.722  14.288 -0.1297  0.2534  0.1048
 4004W        W19135   6.335   6.177   4.866  0.0197 -0.0993  0.1365
 4005W        W19136  11.285   5.918  12.945  0.2486 -0.3585  0.1437
 4006W        W19137  15.729   9.996   3.820 -0.2624 -0.2133 -0.1290
 4007W        W19138  10.284   5.301  11.802 -0.1794 -0.2533  0.0557
 4008W        W19139  11.146   0.840  14.614 -0.0156 -0.0515  0.1119
 4009W        W19140  18.195   3.848  11.529  0.2898  0.3147 -0.0940
 4010W        W19141  10.587   3.767   1.777 -0.0238  0.0077 -0.1882
 4011W        W19142  18.339   9.425   0.274 -0.2727  0.3849 -0.0088
 4012W        W19143  16.981  11.581   2.516 -0.2463 -0.0083 -0.1759
 4013W        W19144   1.417   6.791  13.879  0.1033  0.4033  0.1518
 4014W        W19145   2.574  16.304   0.896 -0.1110  0.1098  0.0493
 4015W        W19146  15.168   6.029  11.505  0.1548  0.0702 -0.0525
 4016W        W19147   0.142  18.307   5.951 -0.0672  0.0398  0.0222
 4017W        W19148  12.679  12.525  14.606 -0.0131  0.1940 -0.0277
 4018W        W19149   0.743   1.756   5.349  0.2906 -0.2408  0.0245
 4019W        W19150   9.377   4.470   2.464 -0.1369  0.0850  0.1237
 4020W        W19151  17.471  14.892  11.312 -0.3669 -0.2173 -0.1165
 4021W        W19152   4.292   9.993  15.610  0.1233 -0.0178  0.1371
 4022W        W19153   7.935   0.420   3.025 -0.2198 -0.2081 -0.2707
 4023W        W19154  12.270   8.732  13.057 -0.2658 -0.1143  0.0657
 4024W        W19155   3.024  15.047   5.005  0.2263  0.1245  0.1076
 4025W        W19156  14.331   9.678   0.649 -0.0371  0.1120 -0.0336
 4026W        W19157  15.233   4.970  15.062 -0.0619  0.0504  0.1351
 4027W        W19158  17.236   6.113  12.948  0.1566  0.0854  0.1777
 4028W        W19159  15.003  11.500  12.561 -0.4064 -0.0108 -0.1526
 4029W        W19160  14.532  14.953  12.618 -0.2180 -0.1934  0.0400
 4030W        W19161   0.022   7.172   0.638 -0.0812  0.1221  0.0021
 4031W        W19162   3.018   5.804   4.015 -0.4722  0.0449  0.1798
 4032W        W19163  13.423   2.230  11.257 -0.2023  0.1146  0.1337
 4033W        W19164   5.937  15.033   1.501  0.0509 -0.1156  0.1989
 4034W        W19165  14.183  18.153  14.723 -0.2092  0.0947  0.2755
 4035W        W19166   1.098  14.353   3.508  0.0413 -0.3831 -0.0755
 4036W        W19167   4.926  16.602  12.177 -0.0566 -0.2180 -0.0941
 4037W        W19168  17.979   0.650  15.385 -0.0115 -0.3154 -0.0548
 4038W        W19169   7.797  17.769   5.021  0.0574  0.0404 -0.2330
 4039W        W19170  12.807   0.391   4.291 -0.0055  0.1070  0.1318
 4040W        W19171   4.961   0.752   0.321 -0.1544  0.0017 -0.1477
 4041W        W19172   8.088  17.378   0.691  0.1437 -0.2465 -0.0288
 4042W        W19173   8.937  10.541   1.963  0.1417 -0.2160  0.0517
 4043W        W19174  13.515   5.021  13.108 -0.1572  0.1225 -0.4001
 4044W        W19175  17.470   7.411  13.235  0.1692  0.1151 -0.0336
 4045W        W19176  14.498   6.105  12.740 -0.0734 -0.0156 -0.1821
 4046W        W19177   0.513   8.053   2.974  0.3781  0.0676  0.0936
 4047W        W19178  15.021   0.138   5.059  0.1256  0.4364 -0.2222
 4048W        W19179   6.685  13.790   3.083 -0.2890 -0.1414  0.1077
 4049W        W19180  10.291  16.365   2.378 -0.0859 -0.1320 -0.3841
 4050W        W19181   1.889  15.747   0.175 -0.0176 -0.4085  0.1534
 4051W        W19182  16.080   7.606   3.174 -0.1859  0.2089 -0.0451
 4052W        W19183   8.804  17.767   1.988 -0.4193 -0.2599 -0.0609
 4053W        W19184   8.696   8.831   1.237 -0.1893 -0.0722 -0.0261
 4054W        W19185   1.368   3.116   0.109  0.0120 -0.4294 -0.1754
 4055W        W19186  11.247   5.561  15.325  0.3862 -0.2701  0.0052
 4056W        W19187   3.373  12.466  12.985  0.1033 -0.0284  0.1307
 4057W        W19188  14.725   2.758   0.735 -0.2086 -0.1634  0.1338
 4058W        W19189  13.900   2.408  11.144 -0.2820 -0.1395  0.2887
 4059W        W19190  11.654  10.767   2.501 -0.1015  0.0208  0.1462
 4060W        W19191  16.483  17.260  14.734 -0.1411  0.1654  0.3688
 4061W        W19192   5.671   0.729   3.986 -0.1723 -0.2684  0.5291
 4062W        W19193   9.075   3.682  11.127  0.1985 -0.1917 -0.0671
 4063W        W19194  12.829  17.864   3.860 -0.0088 -0.0178 -0.2395
 4064W        W19195   1.571   2.132  12.562 -0.0354  0.1059  0.3315
 4065W        W19196  12.851  15.147  11.679 -0.0881 -0.2356 -0.1207
 4066W        W19197  13.815   6.469  12.042  0.1055 -0.2004  0.2210
 4067W        W19198   3.021   0.541   5.150 -0.0828 -0.0152 -0.4646
 4068W        W19199  12.910   3.585   3.170 -0.1802 -0.0691  0.1258
 4069W        W19200   0.054  11.753  15.667 -0.2198  0.0735  0.3640
 4070W        W19201  15.680  17.976   0.673  0.0789 -0.0418 -0.0614
 4071W        W19202  10.152   0.029  13.590 -0.1798  0.0188  0.0303
 4072W        W19203  12.066  15.721   4.820 -0.1917  0.0113 -0.3005
 4073W        W19204   8.863   1.307   3.583 -0.1708  0.0309  0.0659
 4074W        W19205   5.129   1.816   0.308  0.1363 -0.0380  0.2631
 4075W        W19206   7.923  13.540   0.304 -0.1234  0.1173 -0.1866
 4076W        W19207   9.756   4.040   0.768 -0.0149 -0.1690  0.1572
 4077W        W19208   2.184  12.836   2.372 -0.1031 -0.0198 -0.0055
 4078W        W19209   9.009   2.632  13.003 -0.0985  0.1674 -0.1150
 4079W        W19210  10.129  11.012   5.274 -0.1346 -0.0799 -0.0421
 4080W        W19211  16.472  10.490  12.046  0.3101  0.1023  0.1762
 4081W        W19212  14.040   8.343   5.404 -0.1382 -0.0456  0.0171
 4082W        W19213  14.327  13.159   2.747 -0.1344 -0.0003  0.1521
 4083W        W19214   7.644  16.526   3.752  0.1152  0.1034  0.0079
 4084W        W19215  13.058   5.677  11.941 -0.1525 -0.1518 -0.1296
 4085W        W19216   5.366   8.014  15.266 -0.1162  0.0732  0.0317
 4086W        W19217  15.009   3.874  13.439 -0.1567  0.0069  0.0912
 4087W        W19218  16.893  12.688   0.790  0.0166  0.0263 -0.2710
 4088W        W19219   0.040   3.122  14.804 -0.0131  0.2519 -0.1960
 4089W        W19220  15.056  18.224  14.768 -0.0391  0.0004 -0.0562
 4090W        W19221   8.718  12.397   0.889 -0.0507 -0.0293 -0.0711
 4091W        W19222  11.371  14.403  13.741 -0.2290 -0.2162  0.1138
 4092W        W19223   5.147   5.533   5.252  0.3561  0.2739  0.0515
 4093W        W19224   4.772   2.874   1.125  0.0623  0.2914  0.1569
 4094W        W19225  10.094  11.101  12.465 -0.0734  0.0179  0.2552
 4095W        W19226  17.266   4.613  15.927  0.3794 -0.0120  0.2545
 4096W        W19227  13.490  16.017   3.438 -0.0564 -0.2502 -0.0095
 4097W        W19228  15.758   2.206  12.172 -0.0313  0.1603  0.1087
 4098W        W19229  10.033  13.388   1.735  0.1691 -0.0484  0.0059
 4099W        W19230  16.185   0.583   2.841 -0.0171 -0.0737  0.0898
 4100W        W19231   8.566  16.441   0.242 -0.0687  0.1941 -0.3836
 4101W        W19232   6.991  13.895  15.110 -0.0819 -0.1213 -0.1038
 4102W        W19233   3.070   6.945  10.904 -0.0539 -0.1822 -0.0146
 4103W        W19234  17.067   8.359  10.078 -0.1054 -0.0900  0.0817
 4104W        W19235   4.876  17.619  14.840 -0.1003  0.2791  0.0093
 4105W        W19236  13.305   5.395   3.060  0.2041 -0.0112  0.0200
 4106W        W19237  12.625   5.969  11.408 -0.3166  0.1079 -0.1244
 4107W        W19238  14.199  17.736  11.884 -0.0342  0.1421 -0.0212
 4108W        W19239   2.507  11.452   6.046  0.0822 -0.0698  0.2231
 4109W        W19240  12.709   4.864   3.357 -0.1538  0.0474 -0.2218
 4110W        W19241   2.292  13.955  14.984 -0.2936  0.0863 -0.1227
 4111W        W19242  12.268   5.874   0.833  0.1265 -0.1829 -0.1487
 4112W        W19243   8.393   5.402  10.033  0.1912  0.1075 -0.1099
 4113W        W19244  17.152   1.204  14.649  0.1200 -0.1271 -0.2091
 4114W        W19245   0.003   0.969   0.009 -0.0913 -0.3228  0.1405
 4115W        W19246   4.027   8.747   1.723  0.0171  0.0735  0.1507
 4116W        W19247   1.166  14.257  15.232  0.4529  0.0472  0.0918
 4117W        W19248  15.046  10.519  12.247 -0.2216  0.0638 -0.1392
 4118W        W19249  17.456  18.112  15.249  0.0191  0.1147 -0.0984
 4119W        W19250  15.705   9.638   0.894  0.2329  0.2567 -0.0129
 4120W        W19251  11.366   1.856   0.465  0.3592 -0.0431 -0.1433
 4121W        W19252   1.229  11.641  11.544 -0.1961  0.1510 -0.1516
 4122W        W19253  15.477  14.002  12.832  0.1901 -0.0403 -0.1024
 4123W        W19254   6.868  14.853  16.010 -0.0542 -0.0781  0.0432
 4124W        W19255  16.417   7.593   1.552  0.1753 -0.1115 -0.2411
 4125W        W19256   5.261  13.115  14.081  0.0709  0.2519  0.1849
 4126W        W19257   4.317   2.363   0.885 -0.2074  0.2965 -0.5806
 4127W        W19258   8.892   2.399   2.518 -0.0310 -0.2423 -0.0754
 4128W        W19259  10.028   5.042   3.062  0.1560  0.0679  0.2436
 4129W        W19260   0.197  15.206   2.849 -0.1394 -0.0256  0.2797
 4130W        W19261  12.786  16.375  14.604  0.2072  0.0471 -0.0377
 4131W        W19262  17.979  17.623   4.981  0.1288  0.0967 -0.3336
 4132W        W19263   4.138   5.894  14.929  0.2149  0.1651 -0.1718
 4133W        W19264   2.701   5.774  15.530  0.0981  0.1045 -0.1780
 4134W        W19265   7.690   4.244   4.837  0.0837  0.0426  0.2249
 4135W        W19266  16.405   6.685   3.054 -0.0714  0.0304 -0.0023
 4136W        W19267  14.273  17.233  14.549 -0.2138 -0.0878 -0.3724
 4137W        W19268   5.011   6.245   0.591  0.0686  0.0959 -0.3101
 4138W        W19269  11.003   3.831   6.086 -0.3123  0.1397 -0.1437
 4139W        W19270   0.913   4.177  13.616  0.1604  0.0003  0.1376
 4140W        W19271   1.201   1.689  11.271  0.1638 -0.0253  0.0389
 4141W        W19272  14.966  16.080  13.082 -0.1652  0.2304  0.1026
 4142W        W19273  15.792   9.076   5.221  0.0552  0.0419  0.0140
 4143W        W19274   7.423  15.947  15.300 -0.2083 -0.2221 -0.2432
 4144W        W19275  16.696   5.012   3.042 -0.3660  0.0733 -0.0580
 4145W        W19276   7.502  15.844  11.368  0.1982  0.2072 -0.0246
 4146W        W19277  17.808  10.852  13.308  0.5752 -0.0766 -0.0191
 4147W        W19278   8.930   5.115  15.334 -0.1196 -0.0648 -0.3430
 4148W        W19279   0.481  12.223  13.303 -0.0354  0.0952 -0.0648
 4149W        W19280   2.142   1.573  12.738 -0.7117  0.2938  0.3147
 4150W        W19281   3.201  12.924  15.117 -0.0293  0.0024  0.0646
 4151W        W19282  17.033  18.155   3.270  0.1604 -0.0977 -0.0363
 4152W        W19283   5.295  17.674   5.549  0.4333 -0.0821  0.0577
 4153W        W19284   9.054   7.977  13.965  0.1563  0.1497  0.4802
 4154W        W19285   6.716   0.630   3.035  0.3297 -0.3090  0.2469
 4155W        W19286  13.686  12.235  11.505 -0.0481  0.2141  0.2784
 4156W        W19287  12.664  12.040  11.659 -0.2399 -0.2228 -0.3263
 4157W        W19288  10.717   3.456   4.644 -0.0053  0.2080 -0.0741
 4158W        W19289   6.085   5.458  14.487  0.1533 -0.0860  0.0530
 4159W        W19290   0.963  17.343   0.192  0.0534  0.0236 -0.2615
 4160W        W19291   9.071   9.007  12.795 -0.2267  0.0891  0.4306
 4161W        W19292   0.810   7.439  11.294  0.4275  0.1705  0.2370
 4162W        W19293   1.034   7.398  11.814 -0.2249 -0.1232 -0.2238
 4163W        W19294  12.202  17.922  13.694  0.2580  0.0019 -0.0459
 4164W        W19295  15.219   9.127   1.044 -0.0214 -0.3562  0.0522
 4165W        W19296   3.274  12.514  14.814  0.3091  0.1697  0.0178
 4166W        W19297  13.951   4.541  16.070  0.0462 -0.0147  0.4635
 4167W        W19298  13.714  17.157   4.718  0.1337 -0.1254 -0.1779
 4168W        W19299   1.147  14.809   4.673  0.0355  0.0771 -0.1075
 4169W        W19300   0.593  17.113   3.185  0.0028 -0.0208 -0.0247
 4170W        W19301  13.006   0.055  16.132 -0.2738 -0.2087  0.3213
 4171W        W19302   7.480   9.677   2.301 -0.0335  0.1461 -0.0234
 4172W        W19303  12.902  10.140  14.588 -0.1727 -0.1802 -0.2783
 4173W        W19304  12.625  14.253   0.292 -0.0359 -0.2117 -0.0472
 4174W        W19305  16.824  17.705   1.087 -0.0140 -0.1000 -0.0084
 4175W        W19306  18.209   9.807   2.336 -0.0043  0.0343  0.1494
 4176W        W19307  10.080   0.632   4.197 -0.0949  0.1552  0.1142
 4177W        W19308   0.329  13.932   3.493 -0.0726  0.3060  0.1646
 4178W        W19309  17.534  16.669   3.006 -0.3350 -0.1892 -0.1376
 4179W        W19310   6.948   0.250  10.764  0.0671  0.0143  0.0617
 4180W        W19311   9.382   1.037  12.343  0.0774  0.2201  0.2453
 4181W        W19312   4.027  15.557  14.124  0.0856  0.4111  0.5892
 4182W        W19313   2.214  12.067  15.355 -0.0734  0.2526 -0.2261
 4183W        W19314   2.931   0.364   0.113 -0.1448 -0.1557 -0.0725
 4184W        W19315   7.222   2.522  14.144 -0.0890  0.0726  0.2575
 4185W        W19316  10.064   6.601  12.692  0.3615 -0.2567  0.1650
 4186W        W19317  17.867   9.339  12.032 -0.3438 -0.1919  0.2732
 4187W        W19318  17.073  14.507  11.487  0.0501  0.1378 -0.1652
 4188W        W19319  15.341  15.185   4.001 -0.0642 -0.3889  0.2432
 4189W        W19320   7.076  12.841  12.369 -0.0418 -0.2598 -0.0117
 4190W        W19321  10.423  16.785  13.088 -0.1578  0.2365  0.1189
 4191W        W19322   4.395  14.686  13.015  0.0922 -0.0975  0.1589
 4192W        W19323  17.863  17.446  14.371  0.0472  0.4124 -0.1412
 4193W        W19324  14.514  14.973  15.107 -0.0350  0.1393  0.0227
 4194W        W19325  15.894  13.763  11.784 -0.2253 -0.1493  0.0020
 4195W        W19326  16.862  16.348   1.329  0.0148 -0.0050 -0.0899
 4196W        W19327   4.210  15.610   2.424 -0.2063 -0.1152 -0.1302
 4197W        W19328  12.019  15.663  14.960  0.2570 -0.0471 -0.3097
 4198W        W19329   2.469   2.723  11.824 -0.1243 -0.0624  0.0496
 4199W        W19330  16.462   2.436  15.841  0.2064  0.2148  0.0464
 4200W        W19331   2.413   4.112  13.998  0.2538  0.0640 -0.1889
 4201W        W19332   0.962  14.799  11.980  0.2441  0.1718  0.1122
 4202W        W19333  16.930   3.322   2.946 -0.1833 -0.1017  0.2412
 4203W        W19334  15.366  15.758  14.101 -0.1454  0.2467 -0.3849
 4204W        W19335   5.015  10.050   4.663 -0.1316 -0.1092 -0.3334
 4205W        W19336  18.022   3.286   1.744  0.0455 -0.2121  0.4305
 4206W        W19337   6.400   4.009   4.530  0.1483  0.1065  0.1695
 4207W        W19338  15.894   7.373   2.767 -0.0403  0.0719  0.0884
 4208W        W19339   0.175  11.392   1.486 -0.2255  0.3110 -0.0331
 4209W        W19340  13.173   7.459  12.854 -0.5065 -0.1158  0.0152
 4210W        W19341   1.962  12.561   2.867 -0.0643  0.0909  0.1094
 4211W        W19342  10.807   0.857  11.603  0.3290 -0.1073 -0.0273
 4212W        W19343   4.183   4.962  14.823  0.0867  0.1031 -0.0008
 4213W        W19344  16.542   0.138   1.139  0.0464 -0.2590 -0.0556
 4214W        W19345  12.028  16.333   1.822  0.0109  0.2094 -0.0784
 4215W        W19346  14.819  14.548   6.204  0.0602  0.3287 -0.1492
 4216W        W19347  17.465   5.684  15.235 -0.1491 -0.1749  0.0257
 4217W        W19348   0.573   8.022  14.234  0.0798 -0.1172 -0.1755
 4218W        W19349   8.303  11.367   2.634 -0.2002  0.2642 -0.0258
 4219W        W19350  15.659  13.724  15.935 -0.1397 -0.2191 -0.2169
 4220W        W19351   4.375  10.005   3.264  0.1290  0.0282 -0.0095
 4221W        W19352  10.073  17.961  15.586  0.1009  0.0343 -0.3544
 4222W        W19353   7.818   0.928  12.051 -0.0158 -0.4698  0.2801
 4223W        W19354   3.057   9.188  12.467 -0.1023  0.3299  0.1461
 4224W        W19355  11.742   8.113  14.873  0.3219  0.1311  0.1061
 4225W        W19356  13.465  15.091   2.425 -0.3761  0.1706 -0.0444
 4226W        W19357  13.416  10.456   0.966 -0.2699 -0.0046 -0.1817
 4227W        W19358  12.280  15.359   6.037  0.1099 -0.0877 -0.0053
 4228W        W19359  14.497   8.092   0.980 -0.1373 -0.0486 -0.0363
 4229W        W19360   2.885  18.021  15.626 -0.0491  0.4280  0.3957
 4230W        W19361  11.474   1.988  11.790 -0.1061 -0.1903  0.1215
 4231W        W19362   3.503   5.304  14.668  0.1451  0.0921  0.0005
 4232W        W19363  11.316   5.502  12.116 -0.2359  0.0480  0.0363
 4233W        W19364   3.030  10.428   2.587 -0.0879 -0.0557  0.3796
 4234W        W19365  13.978   5.748  11.297  0.0373 -0.1612  0.0733
 4235W        W19366   8.821  15.063  15.152 -0.1150 -0.2681 -0.0376
 4236W        W19367   0.680   7.643   2.720  0.2803 -0.0159  0.1652
 4237W        W19368  13.590   3.826  10.815  0.0576  0.1208 -0.0096
 4238W        W19369  13.145   3.603  12.114  0.1033  0.2445  0.0831
 4239W        W19370   2.684  16.749   2.162 -0.1475  0.1742 -0.0051
 4240W        W19371  15.720   6.236  13.282  0.1974 -0.1648  0.0554
 4241W        W19372   9.843  14.921  11.990 -0.0571 -0.1573  0.3541
 4242W        W19373   5.507   3.591   4.423  0.0835  0.3445  0.0059
 4243W        W19374   3.962   5.984   0.709  0.0721  0.4776  0.0083
 4244W        W19375   4.411   0.807  11.433 -0.2756 -0.0396 -0.0067
 4245W        W19376   8.937   6.513  15.113  0.3879 -0.0083  0.0708
 4246W        W19377   3.519  17.911  11.013  0.2244 -0.1294 -0.0858
 4247W        W19378   4.183  11.195  15.014 -0.1611 -0.1843 -0.1312
 4248W        W19379   1.083  11.182  14.145 -0.0618  0.0500  0.0276
 4249W        W19380  10.148   3.796   2.401 -0.1222  0.2891 -0.0917
 4250W        W19381  12.001  15.939   5.381 -0.0258  0.3223  0.2633
 4251W        W19382   5.961   6.380   2.812  0.1998  0.0448  0.1411
 4252W        W19383   9.061   4.055  15.600  0.2082  0.1280  0.2679
 4253W        W19384   0.989   2.410   0.090 -0.0761 -0.1405  0.0162
 4254W        W19385  17.011   3.553   1.173  0.1861 -0.0532  0.1969
 4255W        W19386   4.173   7.295  12.930  0.0370 -0.1614 -0.1051
 4256W        W19387  18.290  17.071   3.916 -0.2420  0.1776 -0.0117
 4257W        W19388  11.750  15.150  11.449 -0.0030  0.0079 -0.0118
 4258W        W19389   4.798   2.559   0.175 -0.2892 -0.0226 -0.0294
 4259W        W19390   6.907  14.818  12.149  0.1537  0.0927  0.2031
 4260W        W19391   7.882  13.279  14.673 -0.3529  0.0511  0.0059
 4261W        W19392   2.279   9.286  14.433 -0.0780  0.0715 -0.1429
 4262W        W19393  14.892   3.182  11.875 -0.2502  0.3441 -0.2726
 4263W        W19394   6.966  15.816   4.642 -0.3523  0.1108 -0.3171
 4264W        W19395   9.385   2.684  13.411  0.0904 -0.0219 -0.6314
 4265W        W19396  18.302  17.105   4.402 -0.2171  0.0312 -0.3195
 4266W        W19397   0.466  18.039   2.631 -0.2657 -0.0490  0.5425
 4267W        W19398  16.567   8.597   2.912 -0.0336  0.2202 -0.1231
 4268W        W19399  10.228  12.533   5.375  0.1963  0.1281  0.3225
 4269W        W19400  13.816   0.123   1.976  0.1088  0.0028 -0.0568
 4270W        W19401   9.349  10.135   2.205  0.1199  0.6767 -0.2924
 4271W        W19402  11.929   0.091  12.699  0.0350  0.0641 -0.5203
 4272W        W19403   5.343   1.378  12.743  0.2446  0.1676  0.0860
 4273W        W19404   7.451  12.258   2.213 -0.1441  0.1186  0.1527
 4274W        W19405  10.353  17.359   1.669  0.2896  0.0482  0.2297
 4275W        W19406  17.744  12.552  12.103 -0.1493  0.1694 -0.0038
 4276W        W19407  18.214   6.015   2.651 -0.1045  0.0948 -0.1038
 4277W        W19408  11.142  10.636   2.541  0.1460  0.1311  0.2194
 4278W        W19409   9.017   3.963  14.639  0.0777  0.1468 -0.0585
 4279W        W19410  12.402   3.134  12.486 -0.1908 -0.2137 -0.1688
 4280W        W19411  10.182   9.435  12.179  0.3101 -0.0592  0.0545
 4281W        W19412   6.866  14.366  14.340  0.1418 -0.1779 -0.1005
 4282W        W19413  10.380  17.078   4.441 -0.0241  0.1581  0.2122
 4283W        W19414   6.101  15.582   5.479 -0.3286 -0.1328  0.1219
 4284W        W19415   0.738   3.251  11.629 -0.0835 -0.0735 -0.1254
 4285W        W19416   4.331  16.776   5.589  0.3297 -0.0985 -0.2457
 4286W        W19417   2.775  12.880   1.713  0.1500 -0.0578  0.1232
 4287W        W19418  11.627  17.876   4.752  0.1257  0.0355 -0.1358
 4288W        W19419   7.417  17.395  15.719 -0.1438 -0.2817  0.1616
 4289W        W19420  12.504   1.519   2.926  0.4733 -0.3570  0.0465
 4290W        W19421   5.377   1.400  13.381  0.2664  0.2225  0.0659
 4291W        W19422   1.975  11.525   3.670  0.0610  0.0344  0.2644
 4292W        W19423  16.003  11.420  13.544 -0.1522  0.0755 -0.0421
 4293W        W19424  10.209   8.875   2.506  0.1092 -0.2223  0.1569
 4294W        W19425   7.552   0.277  15.875  0.0942  0.1407  0.1735
 4295W        W19426   5.446  11.421   2.814  0.0008  0.1981  0.1364
 4296W        W19427  15.013  11.189   3.291 -0.1519 -0.3877  0.4736
 4297W        W19428   2.914  13.394  10.055 -0.1422 -0.1553 -0.1583
 4298W        W19429   0.646   4.326  11.986  0.1698 -0.4871 -0.3960
 4299W        W19430  12.988   9.884  14.999 -0.0369  0.3090 -0.3985
 4300W        W19431  12.232  12.376  14.852  0.0825  0.0572  0.2469
 4301W        W19432  15.761  12.192  10.734  0.2643  0.0573 -0.0876
 4302W        W19433   8.886   3.495   0.621  0.0062  0.0539 -0.0795
 4303W        W19434   1.233  15.026  13.369 -0.2186 -0.0591  0.3826
 4304W        W19435   4.123   6.486   1.982  0.0974  0.1971 -0.1280
 4305W        W19436  12.019  15.833  13.214 -0.0554  0.1315 -0.1976
 4306W        W19437  12.212   5.644  10.749  0.2399 -0.1011 -0.0355
 4307W        W19438   4.969  12.051   3.464 -0.0022 -0.0747 -0.0813
 4308W        W19439  10.960  17.318   2.678  0.0343  0.2010  0.1679
 4309W        W19440  11.762  10.877  14.937 -0.1437 -0.0137  0.2704
 4310W        W19441   0.122  14.358  14.771 -0.2048 -0.2496  0.2583
 4311W        W19442  18.170  14.256  12.749 -0.0027  0.2049  0.0007
 4312W        W19443  10.865   0.975  13.268  0.2227 -0.0384 -0.6021
 4313W        W19444   5.678   9.861   3.281  0.2677 -0.0889 -0.2636
 4314W        W19445   8.114   2.502  12.832 -0.3181  0.0583  0.4740
 4315W        W19446  10.008  12.677  15.424 -0.2288 -0.3648 -0.3111
 4316W        W19447   5.992   1.158  16.129  0.0661  0.0512 -0.3144
 4317W        W19448   4.220   1.904   3.034 -0.0470  0.0981  0.1100
 4318W        W19449   3.457   6.198   3.101 -0.2929 -0.1907 -0.3752
 4319W        W19450   9.511  16.569  11.642  0.0798  0.0690 -0.0580
 4320W        W19451  14.959  18.178   5.461 -0.1803  0.1128  0.0014
 4321W        W19452   8.200   1.299  13.610 -0.3666 -0.1687 -0.0647
 4322W        W19453   0.130   3.576  15.646 -0.2405  0.0575 -0.1414
 4323W        W19454  10.785  15.925  13.652 -0.1331  0.0068 -0.2215
 4324W        W19455  17.658   9.255  14.523  0.1013  0.2342 -0.1457
 4325W        W19456   7.272   6.964   4.406  0.1551 -0.1051  0.3178
 4326W        W19457  18.326   6.152  12.092  0.0182 -0.1785 -0.2208
 4327W        W19458  16.279   2.656  13.777  0.4592  0.0514 -0.0393
 4328W        W19459   3.285   6.269  14.005 -0.0796  0.0645  0.2734
 4329W        W19460  12.252   9.264   4.736 -0.1885 -0.0648 -0.1213
 4330W        W19461  10.405   6.491  15.807 -0.0894  0.4410  0.0396
 4331W        W19462   8.014   1.075  13.207 -0.1743  0.2930  0.0843
 4332W        W19463   9.200  12.066   0.099  0.0758  0.2990 -0.0481
 4333W        W19464   1.757   1.278   2.458 -0.4255  0.2660 -0.1607
 4334W        W19465  18.266  10.677  15.390  0.1112  0.1586  0.1327
 4335W        W19466   4.140   4.846   0.229  0.0890  0.2571 -0.0621
 4336W        W19467  14.505  14.637  10.776 -0.0603  0.4021  0.0256
 4337W        W19468  12.962   7.565   3.288 -0.0120  0.2078  0.0755
 4338W        W19469  12.669   6.250  14.926 -0.0170  0.2118  0.2126
 4339W        W19470   0.798  10.279  14.171  0.3982  0.1832 -0.1936
 4340W        W19471   3.364  12.152   0.060  0.0328  0.1187 -0.0300
 4341W        W19472   6.559  12.998  14.395 -0.1069 -0.2369  0.0748
 4342W        W19473   3.265  17.172  11.729  0.0373 -0.0340  0.0754
 4343W        W19474   7.044   7.632   4.005  0.0781 -0.1206  0.2518
 4344W        W19475   8.948   2.077   2.924 -0.0123  0.0334 -0.1821
 4345W        W19476  12.535   1.887   4.894  0.1443  0.0848  0.1000
 4346W        W19477   8.635   8.999   5.387  0.1192 -0.1123  0.0771
 4347W        W19478  17.044  17.249   3.564 -0.0908  0.0667  0.1348
 4348W        W19479  11.042   8.024   4.324 -0.0565 -0.0727  0.2700
 4349W        W19480   1.244   7.854  15.410 -0.2819 -0.1757  0.0229
 4350W        W19481  15.355  13.382   3.148 -0.0859 -0.0698  0.3224
 4351W        W19482   8.845  12.274   1.410  0.1416 -0.1286  0.0259
 4352W        W19483   3.423   4.686   2.600  0.1197 -0.0744 -0.0836
 4353W        W19484  14.248   1.296   3.813 -0.3092 -0.0280  0.0836
 4354W        W19485   8.533  12.483  10.704  0.0469  0.4083 -0.1996
 4355W        W19486  12.335   0.867   0.179  0.0113 -0.2199 -0.1433
 4356W        W19487  17.524   3.051  14.745  0.1159  0.1547  0.0961
 4357W        W19488  10.004  14.933   3.941 -0.0667 -0.2828  0.3198
 4358W        W19489   4.504   7.880   2.371  0.2145 -0.1224  0.0693
 4359W        W19490  17.814   8.445   3.439 -0.1845 -0.0487  0.2292
 4360W        W19491   3.037  10.909  12.371 -0.0569 -0.1978 -0.0314
 4361W        W19492   8.121   1.778   4.260 -0.0026 -0.0273 -0.2997
 4362W        W19493   4.103   1.060  11.071 -0.1348 -0.2206  0.1747
 4363W        W19494  11.164  14.124  15.559 -0.1332 -0.1194  0.1431
 4364W        W19495   9.562  13.547   3.656  0.0825  0.0123  0.2538
 4365W        W19496  13.167   6.300   3.266 -0.0795  0.1334 -0.1940
 4366W        W19497   3.028   8.039   2.474 -0.1767 -0.3176  0.1277
 4367W        W19498  11.209  17.766   2.576 -0.2267  0.1125 -0.0389
 4368W        W19499   9.062  15.355   1.072 -0.1114  0.0471  0.1522
 4369W        W19500  14.358  12.282   0.969 -0.2418  0.0315  0.0334
 4370W        W19501  16.240   6.772   4.368 -0.2038  0.2228  0.0894
 4371W        W19502   0.033  18.080   0.991 -0.1746 -0.2121 -0.1231
 4372W        W19503   5.168   8.136   5.463  0.0684 -0.1143 -0.1747
 4373W        W19504   8.802   5.998   0.494  0.0595 -0.1010 -0.0967
 4374W        W19505  17.547  10.795  12.269  0.1272 -0.3025 -0.1508
 4375W        W19506   9.290   2.838   0.105  0.1761  0.2435  0.1374
 4376W        W19507  16.941   0.168   4.744  0.1190 -0.1296 -0.0275
 4377W        W19508   6.912   2.662   0.267  0.0353 -0.4045  0.0982
 4378W        W19509  16.550   8.071   2.840  0.1319  0.2012 -0.0284
 4379W        W19510   9.442  13.139  12.731  0.1482  0.2066 -0.0422
 4380W        W19511  13.031  12.534   5.345 -0.2517 -0.3705  0.2050
 4381W        W19512  18.111   6.525   1.057 -0.1823 -0.0245  0.0431
 4382W        W19513   6.821  11.708  16.043 -0.1735  0.0765  0.0693
 4383W        W19514   5.507  15.220  12.432 -0.2500 -0.0987 -0.2419
 4384W        W19515   1.962  12.064  14.114 -0.2493 -0.0834  0.1234
 4385W        W19516   0.305  14.865   2.478 -0.1794 -0.0466  0.1008
 4386W        W19517  11.233   7.628   3.639 -0.0196  0.1782 -0.1082
 4387W        W19518  11.929  16.621   2.354 -0.1406  0.0727 -0.4288
 4388W        W19519   3.705  17.337  15.828 -0.0262  0.1494 -0.0193
 4389W        W19520  15.989  10.446   3.908 -0.0314  0.0281 -0.0123
 4390W        W19521  15.211   3.869   2.618 -0.0807 -0.1351 -0.3308
 4391W        W19522  13.084  12.248   2.966  0.6384  0.1273 -0.0387
 4392W        W19523  12.974   3.331  13.122  0.1847  0.3112 -0.0887
 4393W        W19524   3.476   4.190  11.495 -0.0624  0.3764 -0.3287
 4394W        W19525  11.791   6.338   3.386  0.2294  0.2790 -0.3493
 4395W        W19526  10.808  10.975  13.113  0.1290  0.3035  0.4195
 4396W        W19527  16.968   8.413   1.207 -0.0665  0.0209  0.1365
 4397W        W19528   2.084  10.778  10.706 -0.2843 -0.0051  0.0858
 4398W        W19529   2.080  12.486   4.545  0.2150 -0.0610 -0.0152
 4399W        W19530  10.451   1.431  13.247 -0.2281  0.1364 -0.1313
 4400W        W19531   7.246   9.578  11.906  0.0500  0.1650 -0.3097
 4401W        W19532  18.116  10.459  13.191  0.1613  0.0191  0.3022
 4402W        W19533   0.677   7.323  14.698 -0.0638 -0.1607 -0.2704
 4403W        W19534   8.389  16.695  13.718  0.0839  0.2191 -0.0807
 4404W        W19535   7.720   7.552  15.184  0.2194 -0.0168  0.0964
 4405W        W19536  14.096   5.136   1.202 -0.2384 -0.3315  0.0099
 4406W        W19537  14.840   0.092   2.643  0.0895  0.0087  0.1757
 4407W        W19538  12.493   4.798   0.466  0.1368 -0.2626  0.1359
 4408W        W19539  10.451  10.728   2.654  0.1524 -0.0399 -0.3443
 4409W        W19540   6.574  14.456   5.383 -0.1214 -0.1974  0.0293
 4410W        W19541   3.633   0.928  11.925 -0.1036 -0.0534  0.2793
 4411W        W19542  11.785  12.771   4.338  0.1649  0.1073 -0.2675
 4412W        W19543   6.067  11.100   0.710 -0.3962 -0.0642 -0.3502
 4413W        W19544  14.852   2.545  10.779 -0.0595 -0.1662  0.1273
 4414W        W19545   3.131   4.075  16.104  0.1178 -0.0089  0.1318
 4415W        W19546  15.498  13.174  13.342 -0.3426  0.4674 -0.0188
 4416W        W19547   0.434  17.192   3.774  0.3469  0.0157 -0.0181
 4417W        W19548   2.730   0.996   1.480 -0.2398 -0.0356  0.2832
 4418W        W19549   0.816  12.566  10.197  0.2682 -0.0484  0.1468
 4419W        W19550   2.551   2.004   4.767 -0.0401 -0.0921 -0.0606
 4420W        W19551   3.874  10.356   2.196 -0.0642 -0.2481  0.0995
 4421W        W19552  10.671   5.508   5.357 -0.0056 -0.1781  0.3356
 4422W        W19553  12.043   1.303  11.804  0.3095  0.0962 -0.2343
 4423W        W19554  13.094   6.038  10.918 -0.0198 -0.0125  0.1740
 4424W        W19555   6.621   1.912  15.797  0.1326  0.0900  0.0583
 4425W        W19556   7.911   3.380  15.449 -0.0982  0.1506 -0.0252
 4426W        W19557   2.340   6.113   4.439 -0.1857  0.3000  0.0202
 4427W        W19558   1.809  11.294  11.859  0.2605  0.1465 -0.1254
 4428W        W19559   1.366   9.839   4.655 -0.2296 -0.1233 -0.0188
 4429W        W19560   7.357  17.479  13.281  0.3305 -0.0630 -0.1049
 4430W        W19561  10.769   0.284   1.865  0.1914  0.1651 -0.4041
 4431W        W19562  11.564   5.603   3.452  0.0179  0.1069  0.0884
 4432W        W19563  17.261   0.503   5.001  0.3880  0.2735 -0.0862
 4433W        W19564   5.842   2.657  16.132 -0.1601 -0.1292  0.2248
 4434W        W19565  16.507   4.466  15.052 -0.2294  0.1850 -0.0948
 4435W        W19566  15.300  11.026   1.913  0.1653 -0.2192  0.1238
 4436W        W19567  12.420  15.500  15.231  0.1059 -0.0932  0.0118
 4437W        W19568   2.664   2.362   0.597  0.2699 -0.0733  0.1626
 4438W        W19569   3.350  14.659  15.945  0.1229  0.1631  0.0126
 4439W        W19570  13.733   6.272   2.228 -0.0185 -0.2705 -0.1620
 4440W        W19571   0.514  11.253  14.368 -0.0697 -0.0794 -0.0937
 4441W        W19572   0.492  15.471   4.458  0.0462 -0.2076 -0.1917
 4442W        W19573  11.194  13.108  14.684  0.0690  0.2092  0.2494
 4443W        W19574   4.129   9.067   2.710  0.4538  0.0635  0.1917
 4444W        W19575   6.052   6.685  12.509 -0.0158 -0.1462 -0.2597
 4445W        W19576  10.056   7.101   3.568 -0.4211  0.0891  0.1381
 4446W        W19577   3.933  13.158   2.346 -0.2658 -0.0567  0.1977
 4447W        W19578  11.842  16.849  14.652 -0.1461 -0.0084  0.0671
 4448W        W19579   8.522   9.721   2.372  0.1509 -0.0589  0.2008
 4449W        W19580  13.832   0.899  14.248 -0.0747 -0.1669  0.0086
 4450W        W19581   6.537  15.230   2.556 -0.0903 -0.0165  0.3582
 4451W        W19582   5.206  12.441   1.281  0.2576  0.2305 -0.0642
 4452W        W19583   4.664  12.386   1.331 -0.0460  0.1834 -0.0090
 4453W        W19584   8.012   6.033  12.297  0.1359  0.0833  0.1229
 4454W        W19585  11.966   1.684  11.038  0.5232  0.0361 -0.3137
 4455W        W19586   2.497  15.978  12.994  0.1533 -0.1312  0.3647
 4456W        W19587  16.830   3.487   4.148 -0.1075  0.1016  0.1356
 4457W        W19588  14.287   7.613  13.532 -0.1263 -0.0601 -0.2150
 4458W        W19589  17.903  13.449   5.019  0.3683 -0.2742  0.0037
 4459W        W19590   6.332  14.385   1.875 -0.0628  0.1896  0.0145
 4460W        W19591   5.659   0.856   4.497 -0.1435 -0.1788  0.1186
 4461W        W19592   5.005   3.772   1.435 -0.0624  0.0874 -0.0148
 4462W        W19593   6.595   7.268   1.258  0.2868 -0.2262  0.0055
 4463W        W19594  17.977   8.588  15.301  0.1542  0.0167  0.2046
 4464W        W19595  11.662  13.015  14.748  0.5611  0.0021 -0.0280
 4465W        W19596   0.385  16.912   5.794  0.2227  0.3382 -0.0988
 4466W        W19597  17.535  12.502  15.138 -0.0876 -0.2090  0.0345
 4467W        W19598   3.709   1.943  15.129  0.2794 -0.1101  0.0270
 4468W        W19599  18.105   2.343  14.021  0.1395  0.3713 -0.0879
 4469W        W19600  13.493  13.083  14.131  0.2279  0.0643 -0.2105
 4470W        W19601  16.035   1.763   4.897 -0.3350 -0.0871  0.1961
 4471W        W19602  14.506   5.232  12.165 -0.1403  0.1717 -0.1154
 4472W        W19603   6.679   0.797   0.622  0.1978 -0.0161 -0.0134
 4473W        W19604   8.163  12.162  14.107  0.0232  0.2219  0.0402
 4474W        W19605  14.939  17.138  11.737 -0.3395  0.1516 -0.1290
 4475W        W19606   0.620  12.390   0.902 -0.0350 -0.1422  0.1833
 4476W        W19607   3.322   5.435   3.888  0.0456  0.1874  0.1502
 4477W        W19608   5.992  17.990  16.091  0.1992  0.0808  0.0862
 4478W        W19609   8.033  12.663  13.977 -0.1483  0.0169  0.1309
 4479W        W19610   9.652  10.532  12.850  0.1726  0.1025 -0.2164
 4480W        W19611   6.888   2.056  14.406 -0.1403 -0.1577 -0.0581
 4481W        W19612  10.331  14.719   3.124  0.3189 -0.0808 -0.1125
 4482W        W19613  16.619  16.887  11.759 -0.0956 -0.1690 -0.4157
 4483W        W19614   4.903  12.917  14.774  0.3651 -0.1323  0.2182
 4484W        W19615  11.296  11.934   2.003 -0.1687  0.3630  0.0214
 4485W        W19616   6.750   3.623  16.141 -0.1433  0.3074  0.1126
 4486W        W19617  12.693  17.639   6.125  0.1435  0.2073 -0.1684
 4487W        W19618   3.720  16.801   3.924  0.1051 -0.0238  0.1474
 4488W        W19619  12.513   3.986   2.387 -0.1197  0.0492 -0.0524
 4489W        W19620   9.241  14.082  10.538 -0.0411  0.2332  0.1451
 4490W        W19621   6.711  16.033  11.432 -0.0953  0.2067  0.2505
 4491W        W19622   1.931  17.103   5.507  0.0671  0.1457  0.0928
 4492W        W19623  17.087  15.275  13.416 -0.1754  0.0692  0.1617
 4493W        W19624  15.226  18.153   0.136 -0.1131  0.2923 -0.4867
 4494W        W19625   2.551   5.474  15.105 -0.2380 -0.3258 -0.1761
 4495W        W19626  16.735  17.438  15.744  0.0232 -0.3410 -0.1651
 4496W        W19627  15.723   4.528   4.683 -0.1377 -0.1773  0.1220
 4497W        W19628  15.762   9.965  14.444 -0.2635  0.0991  0.0291
 4498W        W19629   4.633   2.594   3.603 -0.1236  0.1136  0.0973
 4499W        W19630  17.827   3.760  14.572 -0.1472  0.1473  0.0536
 4500W        W19631   3.539   5.945  12.738  0.2672 -0.2359  0.2497
 4501W        W19632   9.072   8.094   3.768 -0.0847 -0.0104  0.0561
 4502W        W19633  17.102  13.948   4.465 -0.0222 -0.2888  0.1230
 4503W        W19634   7.068   7.242  14.968 -0.0105  0.0945  0.2383
 4504W        W19635   2.315   5.853  12.964  0.1477  0.0230 -0.0479
 4505W        W19636  16.984   8.016   3.646  0.1058  0.1448 -0.3485
 4506W        W19637   9.153  11.068  12.005 -0.2863 -0.0077 -0.0080
 4507W        W19638  12.941  14.315  10.842  0.5153  0.3645 -0.1765
 4508W        W19639   3.322   1.763  15.289  0.0839 -0.1217  0.0624
 4509W        W19640  11.161  10.616   0.099  0.1637  0.1084  0.0391
 4510W        W19641  12.765   1.933  11.663  0.2273  0.0151  0.0205
 4511W        W19642  17.292   4.800  13.808  0.1896  0.0547 -0.0967
 4512W        W19643  18.044  12.800   3.930 -0.0603 -0.1533 -0.0431
 4513W        W19644   9.443   5.750   1.849  0.1245 -0.1145  0.0625
 4514W        W19645   6.917   1.315   0.140 -0.0448  0.2614 -0.2520
 4515W        W19646  12.253  12.596   2.387 -0.0320 -0.0779 -0.3042
 4516W        W19647   9.415  12.278  12.468  0.4807  0.0615  0.0644
 4517W        W19648  17.747   8.847   2.464  0.2346 -0.1355 -0.3602
 4518W        W19649  18.043  17.715  15.400  0.1108 -0.1894 -0.1656
 4519W        W19650   2.622  18.331  14.867 -0.2820  0.0928 -0.1200
 4520W        W19651  11.377   5.482  11.633  0.2363 -0.0747 -0.0832
 4521W        W19652  17.158   6.187   3.430 -0.2256  0.0766  0.0547
 4522W        W19653  11.924  17.977  12.650 -0.3153  0.3334  0.1355
 4523W        W19654  14.801  17.014  14.001  0.4378 -0.0385 -0.3534
 4524W        W19655  16.244  11.503   1.028  0.1217  0.1018  0.0031
 4525W        W19656  15.632   7.491   9.862  0.0277  0.2055  0.0406
 4526W        W19657  13.357   6.129  15.469  0.1183  0.0415 -0.1075
 4527W        W19658   8.292  14.444  13.760 -0.3783 -0.0691 -0.0928
 4528W        W19659   3.231  16.226  15.224  0.5524  0.1379  0.0033
 4529W        W19660  12.129  12.409   1.341  0.4507  0.4967 -0.1225
 4530W        W19661   7.601   4.732  15.447  0.3708 -0.0140 -0.0795
 4531W        W19662   0.323   0.633   0.253  0.0811 -0.1696 -0.1269
 4532W        W19663   3.403   8.508   5.283 -0.0022 -0.2373  0.1191
 4533W        W19664   9.031  14.708  12.369 -0.3282 -0.3385 -0.1198
 4534W        W19665  13.502   8.480  15.382 -0.0273  0.0403 -0.2126
 4535W        W19666   0.706  16.422  10.369  0.2706  0.1501  0.3573
 4536W        W19667   7.107   1.744   4.046 -0.0680 -0.0770  0.0846
 4537W        W19668  15.716   0.528   6.556 -0.0925  0.0961  0.0034
 4538W        W19669  15.597   5.015   3.917  0.1803  0.0701  0.4409
 4539W        W19670  13.110   7.323  15.963 -0.2407 -0.0162 -0.0827
 4540W        W19671  15.098   5.249  11.827  0.1114  0.2097 -0.2603
 4541W        W19672  13.504   8.235   5.249 -0.0703  0.0897 -0.0304
 4542W        W19673   7.303  14.324   3.540 -0.0347 -0.5295  0.0118
 4543W        W19674   0.936   6.023   4.233 -0.0101 -0.1174 -0.0876
 4544W        W19675   1.351   2.789   2.531 -0.2414  0.2214  0.0195
 4545W        W19676  11.234   2.480   1.407 -0.0093 -0.0353 -0.0312
 4546W        W19677  17.164  16.951  14.408 -0.2751 -0.1497  0.0721
 4547W        W19678   3.117   0.013  13.984 -0.0228  0.1700  0.1360
 4548W        W19679   6.995  14.368   1.459  0.1506  0.0165  0.3546
 4549W        W19680   9.416   8.616  12.932  0.2204  0.0556 -0.1491
 4550W        W19681   5.134   5.646   2.162  0.0648 -0.2285 -0.1149
 4551W        W19682   8.805   7.558  14.750 -0.2115  0.0139 -0.2317
 4552W        W19683   0.417   4.430  13.097  0.2353  0.0699  0.0925
 4553W        W19684  16.066  15.769   5.120  0.0133  0.0208  0.0556
 4554W        W19685   6.876   9.248  10.724  0.2132 -0.0789  0.3082
 4555W        W19686  10.056  12.959  15.917  0.1298 -0.0956  0.0757
 4556W        W19687   8.780  10.166  13.851  0.1715  0.0224  0.5018
 4557W        W19688   4.685   0.690  13.445  0.1291  0.3993  0.0745
 4558W        W19689  14.139   1.413   1.956 -0.0792 -0.0736  0.1570
 4559W        W19690   3.382   9.680  11.910  0.3692  0.2436  0.0774
 4560W        W19691  16.241  15.375  15.173  0.1765 -0.2407 -0.0923
 4561W        W19692  10.941  18.170   1.458  0.2948 -0.2154  0.3138
 4562W        W19693  18.179   2.950   2.441 -0.1218 -0.2210  0.3233
 4563W        W19694   6.425   9.686  15.565  0.0117  0.0439 -0.2637
 4564W        W19695  11.575   1.512  11.874 -0.0721 -0.0455 -0.1605
 4565W        W19696  15.963   8.560  10.912 -0.0166  0.1705  0.0509
 4566W        W19697  11.491   2.644   0.091 -0.0593 -0.1533 -0.2902
 4567W        W19698   3.949   1.600  12.180 -0.2777 -0.0345 -0.1002
 4568W        W19699  17.840  11.046   3.273  0.4912  0.1102  0.1593
 4569W        W19700   3.862   1.001   5.156  0.0345 -0.0703  0.2192
 4570W        W19701  13.986   9.826  13.711 -0.0166  0.0961  0.0737
 4571W        W19702   0.893   9.406  11.136  0.1865 -0.4669  0.0624
 4572W        W19703   9.888   4.967  11.402  0.1104  0.1424 -0.0773
 4573W        W19704   8.294  17.534  13.594  0.1765 -0.1274  0.0761
 4574W        W19705  11.109  14.665   5.132  0.0702  0.1777  0.3183
 4575W        W19706  15.388   6.189   1.105 -0.0850  0.1210  0.2142
 4576W        W19707  14.598   3.940   3.589 -0.0819  0.1841 -0.1468
 4577W        W19708  14.658   4.455  11.126  0.0403 -0.1149  0.3944
 4578W        W19709   0.923  18.348  14.885  0.1608  0.1626 -0.1932
 4579W        W19710   1.787   6.079  11.579  0.0112 -0.1894  0.3684
 4580W        W19711   9.690   5.689  15.570 -0.2282 -0.1041 -0.0131
 4581W        W19712  12.907   5.628  16.019  0.1749  0.1097  0.3367
 4582W        W19713  16.542   5.795  11.878  0.1477  0.0256  0.1354
 4583W        W19714  18.082   9.513   5.663  0.0279  0.0407  0.0306
 4584W        W19715   4.412  15.364   4.504  0.0463 -0.2890  0.4670
 4585W        W19716   1.949   9.358   2.601 -0.1489 -0.1792 -0.1924
 4586W        W19717  18.082   2.495  12.631  0.2682 -0.3935 -0.1616
 4587W        W19718  14.106   1.941  12.999 -0.2201  0.0786 -0.0156
 4588W        W19719   9.209   1.946   1.663 -0.3687  0.3343  0.1701
 4589W        W19720  17.143  10.081  14.019 -0.1080 -0.0933 -0.1641
 4590W        W19721   0.349   4.026   1.829  0.0285  0.2008 -0.0229
 4591W        W19722  13.255  11.712  13.698 -0.0340 -0.2620  0.2984
 4592W        W19723  15.030  17.777  13.712 -0.2423 -0.0040  0.0686
 4593W        W19724   1.180   6.388  15.648  0.0407 -0.0842  0.1701
 4594W        W19725  16.418   8.499  10.709  0.0756 -0.0588 -0.1807
 4595W        W19726   2.560   0.478  13.229 -0.2472  0.2191  0.1725
 4596W        W19727  16.384   2.111   1.535 -0.0438 -0.2570  0.1961
 4597W        W19728   9.972  11.782  12.733  0.0300  0.0621 -0.0903
 4598W        W19729   5.893  18.155   4.306  0.0871  0.0388  0.1470
 4599W        W19730   1.828   5.044  15.608  0.3396  0.0356  0.0884
 4600W        W19731   6.597   4.319  12.706  0.1503  0.0218 -0.2378
 4601W        W19732  15.499   1.222  14.800  0.1295 -0.2673  0.3870
 4602W        W19733  12.622   3.825   1.409  0.3390  0.1172 -0.2137
 4603W        W19734  13.702  17.956   0.045  0.2334  0.0066  0.2826
 4604W        W19735   2.663  13.741  15.300 -0.1062 -0.1158  0.0520
 4605W        W19736   5.099  17.964   2.352  0.2960  0.0997 -0.0727
 4606W        W19737   8.270  14.448  15.059 -0.1557 -0.0241 -0.2148
 4607W        W19738  14.385  15.789  15.025 -0.2436  0.0410  0.1345
 4608W        W19739   3.180  14.549  12.591  0.0233  0.1766 -0.0237
 4609W        W19740   8.244   8.822   0.091 -0.1861  0.1999 -0.1607
 4610W        W19741  17.676   1.828   4.679 -0.0824  0.1724  0.1217
 4611W        W19742  15.190   1.173   3.634  0.0104 -0.1396 -0.2316
 4612W        W19743   6.950  18.129   1.664  0.0643 -0.0005  0.0371
 4613W        W19744   3.948   0.095   0.476  0.0941  0.1116  0.1878
 4614W        W19745   3.649  13.290   1.625  0.0045 -0.2230  0.0563
 4615W        W19746  11.824  15.756   4.381  0.2050  0.1151 -0.2158
 4616W        W19747  10.178  17.894   3.337 -0.1427  0.0884  0.0881
 4617W        W19748   5.075  10.427   5.166  0.3120 -0.2805  0.2149
 4618W        W19749  17.865  13.840  12.586 -0.0524 -0.3484 -0.0106
 4619W        W19750   9.024   2.488   0.374  0.1364 -0.0088  0.1518
 4620W        W19751   8.010   4.395  15.492  0.0681 -0.1172 -0.3269
 4621W        W19752   5.302  14.116  10.886 -0.4146  0.3031 -0.1740
 4622W        W19753  14.308  13.081   2.214  0.4018  0.2191  0.2311
 4623W        W19754   0.341  15.425  14.769 -0.0406 -0.0049  0.0285
 4624W        W19755   9.651   7.778   1.178  0.0517 -0.2816 -0.0935
 4625W        W19756  16.512  10.747  12.838 -0.0111  0.1613  0.0468
 4626W        W19757  18.072   5.198   4.280 -0.3392  0.0340  0.1319
 4627W        W19758   5.658   3.604   0.222  0.1051  0.0297  0.3213
 4628W        W19759  17.592   7.499  14.859 -0.0185 -0.1848 -0.4117
 4629W        W19760   1.066  15.288  11.691  0.2328  0.1516  0.2773
 4630W        W19761  13.148  16.088  14.140  0.0150  0.0387  0.1073
 4631W        W19762   6.337  18.218   4.689 -0.1276 -0.1576  0.3635
 4632W        W19763   8.641  17.051   2.717 -0.1683  0.1050 -0.1308
 4633W        W19764  18.066   1.894  13.659  0.0342 -0.1364  0.1276
 4634W        W19765  12.833   1.589  10.318 -0.2481 -0.3798  0.0259
 4635W        W19766  14.697   6.886   5.102 -0.1804 -0.1651 -0.0518
 4636W        W19767  10.317   3.521   0.468  0.0752 -0.0508  0.0242
 4637W        W19768  10.527   1.217   0.107 -0.0211  0.0180 -0.0697
 4638W        W19769  16.882  12.977  11.470  0.0917 -0.2850  0.1899
 4639W        W19770   3.262   7.755  11.391  0.0199 -0.4535 -0.1137
 4640W        W19771  10.858  12.722  14.862 -0.0955 -0.0554  0.0592
 4641W        W19772  10.036   7.102  10.655 -0.4426  0.3942 -0.2975
 4642W        W19773   8.891   5.486   5.187  0.2866  0.0456  0.1296
 4643W        W19774  17.059  14.834   3.263 -0.1819 -0.1474 -0.3641
 4644W        W19775   5.288   8.151   1.617  0.0393 -0.1943  0.2077
 4645W        W19776  16.801   3.791  11.037 -0.1446 -0.2170 -0.2200
 4646W        W19777  17.631   4.981  14.829 -0.0108 -0.1412 -0.1389
 4647W        W19778  15.620  12.165  11.617 -0.3514  0.2667  0.2317
 4648W        W19779   9.728   2.431   1.393  0.0290 -0.2733  0.0773
 4649W        W19780   5.910   7.078  13.959 -0.0590  0.0799  0.0467
 4650W        W19781   9.388  12.401  14.062 -0.1153  0.0335  0.0086
 4651W        W19782   4.067   8.100  15.155  0.0001 -0.2225 -0.1008
 4652W        W19783  17.554   2.242   4.368 -0.0700  0.1969  0.0119
 4653W        W19784  14.660   3.039  12.988 -0.1160 -0.3675 -0.1474
 4654W        W19785   2.732   0.832   1.927  0.2341  0.0068 -0.4527
 4655W        W19786  13.269  12.969   5.517 -0.3465  0.0547  0.0264
 4656W        W19787   0.671   4.306  12.518  0.2633 -0.1923  0.0425
 4657W        W19788   6.137   1.583  12.103  0.4542 -0.3404 -0.0946
 4658W        W19789  15.023  13.757  14.524  0.0466  0.1358 -0.1763
 4659W        W19790   5.317  15.188  14.785 -0.0052 -0.1205 -0.0359
 4660W        W19791  13.893  11.390  12.629 -0.1454  0.0722  0.1521
 4661W        W19792   5.080  10.390  11.655  0.3585 -0.1756  0.4308
 4662W        W19793  18.334   6.730   1.497 -0.1609  0.1436  0.3902
 4663W        W19794   1.038   9.898  10.756  0.0466 -0.1389 -0.2339
 4664W        W19795   5.361   5.384  12.301 -0.1672 -0.0343  0.1941
 4665W        W19796   4.527   5.713   3.564  0.0320  0.0105  0.0681
 4666W        W19797   9.236  10.315   0.192 -0.1785 -0.2788 -0.1711
 4667W        W19798   9.484  13.885  11.286  0.0579  0.3095  0.0892
 4668W        W19799  17.961  17.144  10.744  0.1261  0.2043 -0.0299
 4669W        W19800  17.751  15.726  13.827  0.1969  0.3662 -0.1439
 4670W        W19801   1.356   4.378  11.221 -0.1101  0.1637 -0.0432
 4671W        W19802  16.071   3.458   6.033  0.0152 -0.0111  0.1161
 4672W        W19803  13.363  17.461  13.121 -0.2334 -0.2798  0.1033
 4673W        W19804   8.247   2.048   5.748 -0.0738  0.1582 -0.0839
 4674W        W19805   9.253   3.879  16.037 -0.4721  0.1465 -0.0958
 4675W        W19806   4.030   9.979   2.878  0.1026 -0.3690 -0.3476
 4676W        W19807   6.437  15.621   4.820 -0.1044 -0.1214 -0.0922
 4677W        W19808   0.337  10.187  10.939  0.4742  0.3077 -0.1099
 4678W        W19809   7.399  13.490   1.773 -0.2375 -0.2005 -0.0580
 4679W        W19810  12.315   0.793   2.606 -0.0539 -0.0052  0.0273
 4680W        W19811  17.536   9.579  12.396 -0.0864 -0.2188 -0.0982
 4681W        W19812   1.511   9.798   5.420 -0.1723  0.0398 -0.0732
 4682W        W19813  14.769   7.127  15.072  0.3209  0.1865  0.2785
 4683W        W19814  11.633  15.415  15.109 -0.3331 -0.0399  0.5456
 4684W        W19815   0.823   3.702   5.610 -0.0496 -0.0257 -0.0584
 4685W        W19816  12.731   5.978  15.309  0.2727 -0.2844 -0.2276
 4686W        W19817   2.504   9.501   4.027  0.2084 -0.1270 -0.1090
 4687W        W19818  11.003   2.323   3.521 -0.0780 -0.1515 -0.0930
 4688W        W19819   2.648  18.039   1.215 -0.2657  0.3018 -0.1197
 4689W        W19820   0.637   6.350   4.449 -0.2167  0.1294 -0.1285
 4690W        W19821   5.779   3.546   1.664 -0.2527  0.3446  0.2145
 4691W        W19822   3.844   1.335   0.850 -0.0561 -0.1387  0.1262
 4692W        W19823   3.391   6.060  14.485 -0.0704  0.0699 -0.1338
 4693W        W19824   6.641  15.619   1.893  0.1190  0.2177  0.0821
 4694W        W19825  16.166   9.967  12.025 -0.0879 -0.2676  0.1604
 4695W        W19826   4.074  11.925  14.545  0.0963 -0.1871  0.0697
 4696W        W19827   2.979  16.938   3.615 -0.1912  0.0083 -0.2482
 4697W        W19828   1.683  15.071   1.924 -0.6690 -0.2207 -0.1602
 4698W        W19829  11.967  17.724   1.055  0.2429 -0.0498  0.0715
 4699W        W19830   9.026   1.572  13.060 -0.1352 -0.0904 -0.0576
 4700W        W19831  13.982  15.325   3.893 -0.1001  0.0812 -0.1352
 4701W        W19832   4.347  15.226  13.939 -0.0763 -0.2904  0.1251
 4702W        W19833   3.163   4.175  11.864  0.0116 -0.3890 -0.0040
 4703W        W19834   9.710   3.392  12.383 -0.0786 -0.0949 -0.0187
 4704W        W19835   3.857   4.717  12.123 -0.0309  0.2735  0.2863
 4705W        W19836   1.836   9.770  13.237 -0.1022 -0.0248  0.2009
 4706W        W19837   9.208   5.437   2.216 -0.0572 -0.1907  0.1926
 4707W        W19838  15.413   5.691   1.274  0.2142  0.0332  0.0278
 4708W        W19839   8.268  18.310   0.736  0.0944  0.1621 -0.0823
 4709W        W19840   3.763   5.647  14.155  0.0715 -0.1982  0.0078
 4710W        W19841  15.959  16.654   2.371  0.0653  0.5051  0.0801
 4711W        W19842  12.512   9.984  13.714 -0.0621  0.0789 -0.0301
 4712W        W19843  16.140   7.219  14.597  0.0954 -0.0241  0.0368
 4713W        W19844   5.766  10.573   2.070 -0.0931 -0.0998  0.1581
 4714W        W19845  16.206   2.487   5.827 -0.1331  0.0707  0.1478
 4715W        W19846  17.443  17.336  14.137  0.0047  0.3463  0.0189
 4716W        W19847  14.785  16.877  13.531  0.0622  0.3400 -0.1447
 4717W        W19848  15.071   5.062   3.009 -0.0877 -0.1073 -0.1548
 4718W        W19849   6.909  15.769  13.899  0.0847  0.1179  0.0292
 4719W        W19850  13.651  13.193   2.121  0.0159 -0.3559  0.1695
 4720W        W19851   1.733  17.351   5.119 -0.2137  0.1103  0.0635
 4721W        W19852   7.277  14.524   6.045  0.0669  0.0333 -0.1702
 4722W        W19853  15.358  13.210   5.142  0.0622  0.0183  0.2100
 4723W        W19854   9.360   4.631  14.871 -0.1496  0.1151  0.0096
 4724W        W19855   6.134  13.843   4.240 -0.1915  0.0840  0.1674
 4725W        W19856  17.236   7.197  14.430 -0.3251  0.0224  0.1943
 4726W        W19857   0.612   6.891   2.242  0.3183  0.2614  0.2658
 4727W        W19858  11.224   9.928  14.647 -0.4396 -0.1747  0.2570
 4728W        W19859  13.461   4.081  11.523 -0.0432  0.2789  0.0079
 4729W        W19860   0.394   0.173   1.878 -0.1984 -0.3151  0.3150
 4730W        W19861  16.612   7.512   0.653  0.3188  0.3527  0.1410
 4731W        W19862  10.059   0.233   2.536 -0.0490  0.4731 -0.3436
 4732W        W19863  11.662   7.414  13.967 -0.2757  0.1036  0.0156
 4733W        W19864  15.411   0.490  15.486 -0.1056 -0.0552  0.0776
 4734W        W19865   2.486   3.966  12.103  0.3828  0.0419 -0.3061
 4735W        W19866   6.795   2.580  15.058  0.1708  0.1123 -0.2308
 4736W        W19867  12.506   0.943  12.306 -0.0839 -0.0304  0.2417
 4737W        W19868   4.875  13.262  12.470 -0.2600 -0.3925 -0.3706
 4738W        W19869   9.930   9.067   3.113 -0.1125 -0.0165 -0.1074
 4739W        W19870  15.269  13.533   0.387 -0.2570 -0.0633  0.1370
 4740W        W19871   1.479   4.181  15.476 -0.1725  0.1559  0.2780
 4741W        W19872  15.635   2.076   1.411 -0.4512 -0.0004 -0.0024
 4742W        W19873  15.877   9.781   6.038  0.0198  0.2350 -0.1246
 4743W        W19874  14.409  17.984  15.704 -0.1435 -0.1396 -0.0286
 4744W        W19875  13.016  11.637   1.702  0.3267  0.0676 -0.0191
 4745W        W19876   8.748  13.662   3.842 -0.1128 -0.0199 -0.0731
 4746W        W19877   1.552   1.982  14.810 -0.0084 -0.0147 -0.3733
 4747W        W19878  15.958  17.506  13.318  0.0867  0.0486  0.2402
 4748W        W19879  14.546   2.665  14.632 -0.0535  0.0033  0.3139
 4749W        W19880   1.439  17.912   2.455 -0.2308  0.0006 -0.0296
 4750W        W19881   7.924   4.638  14.499 -0.1082  0.2878  0.1318
 4751W        W19882   4.988  12.396  14.598 -0.1384 -0.2608  0.0323
 4752W        W19883  14.209   6.289   0.179  0.2164 -0.3056  0.0947
 4753W        W19884  18.198   2.916   5.391 -0.5132  0.3089 -0.2803
 4754W        W19885   6.297   6.710  14.953  0.0612  0.2680  0.3096
 4755W        W19886  11.405  15.511  14.685 -0.0376 -0.0984  0.0077
 4756W        W19887   3.322  12.340   4.847  0.0637 -0.1283 -0.0092
 4757W        W19888   8.245   9.650   0.488 -0.3937 -0.0608 -0.0163
 4758W        W19889   0.794  11.521  13.958  0.1475  0.1380  0.0199
 4759W        W19890  16.778   6.798  15.899  0.2366 -0.2814 -0.1938
 4760W        W19891   2.810  14.890  15.959  0.1320 -0.1351 -0.0967
 4761W        W19892   1.802   7.092  14.025 -0.1458  0.3166  0.2395
 4762W        W19893   4.065  17.242  14.667  0.0466  0.1897 -0.2339
 4763W        W19894  14.049   7.287  10.967 -0.0078 -0.0732  0.2113
 4764W        W19895   7.774  13.388   3.515 -0.0851 -0.3279  0.0201
 4765W        W19896   0.596   4.232  14.926  0.0871 -0.3836  0.1072
 4766W        W19897   8.972   0.543  12.345  0.1571  0.2843 -0.0893
 4767W        W19898   7.930  13.835   4.435  0.0937 -0.1859 -0.1691
 4768W        W19899   4.800   8.773  12.565 -0.1802  0.0890 -0.0594
 4769W        W19900   8.027   6.651   5.069 -0.2792  0.0412  0.2177
 4770W        W19901   0.462  12.986   4.099 -0.0450  0.0988  0.1631
 4771W        W19902   2.054  11.476  14.149 -0.0131 -0.2260  0.0246
 4772W        W19903  15.367  12.305   4.977  0.2328  0.1630 -0.0384
 4773W        W19904  15.794   7.334  11.633  0.1701 -0.0300  0.1940
 4774W        W19905   4.745   2.775   5.002 -0.2926  0.0601  0.1021
 4775W        W19906  11.328  11.079   1.638  0.2701 -0.0191 -0.1123
 4776W        W19907   2.229   5.307  11.572  0.1513  0.0294 -0.0331
 4777W        W19908   0.344  14.140   1.825 -0.1831 -0.0701 -0.1414
 4778W        W19909   8.286   4.782   5.859 -0.0165 -0.0337 -0.0659
 4779W        W19910   6.011   6.190  12.275  0.1000  0.2963 -0.1833
 4780W        W19911  15.955   9.503   0.074 -0.0315  0.2726 -0.4126
 4781W        W19912  14.772  14.167   1.149  0.1988  0.1087  0.2726
 4782W        W19913  16.295   8.028  16.119 -0.0004 -0.0704  0.0433
 4783W        W19914   6.725   9.271   1.160 -0.3524 -0.0447 -0.1307
 4784W        W19915   0.136  12.946   1.027 -0.1089  0.0198 -0.0328
 4785W        W19916  13.654  15.118  15.189  0.4098  0.3727 -0.1337
 4786W        W19917   6.979   3.660  11.143 -0.0279 -0.1407  0.0558
 4787W        W19918  13.958   3.794  11.771  0.0881 -0.0249 -0.1886
 4788W        W19919  17.150   5.178  11.186 -0.1451 -0.1790 -0.0496
 4789W        W19920  14.371  17.497  15.474  0.3075  0.0586  0.0294
 4790W        W19921   9.487   9.387   1.198  0.2643 -0.0768 -0.0015
 4791W        W19922   3.172   1.957   1.358  0.0380  0.0349  0.2580
 4792W        W19923   7.205  10.697  13.978 -0.0237 -0.0583  0.2400
 4793W        W19924  14.142   1.071   4.677  0.0290  0.0876 -0.0168
 4794W        W19925   9.444  11.880  12.913  0.2996 -0.2226  0.2584
 4795W        W19926   0.559  15.603  12.511  0.3551  0.1919  0.1045
 4796W        W19927   6.192   4.649  14.849  0.1143  0.0312 -0.1395
 4797W        W19928  10.239   4.221   5.084  0.5785 -0.1485  0.2613
 4798W        W19929   2.092   5.326   2.508 -0.0005 -0.0579 -0.1300
 4799W        W19930  17.119   3.404  11.396 -0.1622  0.3739 -0.1298
 4800W        W19931  12.126   3.153   3.389 -0.0596 -0.0722 -0.1634
 4801W        W19932   2.380   8.843  11.060 -0.0482  0.1636 -0.0712
 4802W        W19933   6.242   0.073   4.180 -0.0408 -0.1309 -0.1352
 4803W        W19934  16.675  14.143  15.109  0.2396 -0.2273  0.0622
 4804W        W19935   9.206   6.029   0.194 -0.3160 -0.3503  0.0635
 4805W        W19936  14.592   1.166  14.531 -0.0149  0.1056 -0.1051
 4806W        W19937  16.434  16.135   4.958  0.0592  0.0249 -0.1065
 4807W        W19938   7.187  13.726   0.895  0.2061  0.0542  0.1913
 4808W        W19939  15.058   2.980  16.136 -0.0743 -0.1490  0.0317
 4809W        W19940   5.354  13.024  10.311 -0.1578 -0.2406 -0.2080
 4810W        W19941  15.250  14.676   2.632 -0.1392 -0.0149  0.3776
 4811W        W19942   6.160   8.884   0.378  0.0808 -0.0432 -0.0016
 4812W        W19943  12.626   8.200   6.263  0.2606 -0.1206  0.0797
 4813W        W19944  10.625  18.356   2.651  0.0993 -0.0272 -0.0319
 4814W        W19945   5.593   5.782  13.530  0.1624 -0.1380 -0.0582
 4815W        W19946  10.851   3.756   2.167 -0.1279 -0.0124  0.2025
 4816W        W19947   9.543  17.146  14.200 -0.1190 -0.0051  0.2761
 4817W        W19948   3.858   2.454  15.268  0.3185 -0.3218 -0.0830
 4818W        W19949  18.172   2.082   4.848 -0.0955 -0.1879  0.3405
 4819W        W19950   1.865   0.558  13.338 -0.2401  0.2211  0.0484
 4820W        W19951  18.075  12.284   0.227  0.3928 -0.1420  0.1660
 4821W        W19952   0.321   7.956  15.339  0.1173 -0.3997  0.0575
 4822W        W19953   5.235   3.075   0.925  0.3604 -0.0489  0.1282
 4823W        W19954   4.969   2.616  13.357  0.0772  0.1029  0.0882
 4824W        W19955   3.467  15.722   0.312  0.0558 -0.1342 -0.0981
 4825W        W19956   4.250  10.863   3.311  0.1142  0.1416 -0.5199
 4826W        W19957  17.136  12.720   4.024 -0.2013 -0.1487 -0.1080
 4827W        W19958   2.326  16.017  10.938 -0.0820 -0.0859  0.3354
 4828W        W19959  11.073  16.395  11.731  0.1400 -0.1759 -0.1022
 4829W        W19960  13.494   8.152   3.584  0.0141 -0.0214  0.0336
 4830W        W19961  15.037   9.850  13.755 -0.0718 -0.2401  0.1793
 4831W        W19962   6.780  11.986  14.034  0.1600 -0.5620 -0.0717
 4832W        W19963  16.218  12.762  12.771  0.2234  0.2320 -0.1207
 4833W        W19964   5.197   4.586   1.540 -0.0421 -0.2424 -0.1117
 4834W        W19965  10.710   2.884   4.705  0.3604  0.2048 -0.0534
 4835W        W19966   0.230   7.628   2.929  0.0183  0.0462 -0.3398
 4836W        W19967   6.984   8.997  13.939  0.0413 -0.1312 -0.1353
 4837W        W19968  12.530  10.789  15.595 -0.1495  0.0905  0.0852
 4838W        W19969  15.735   0.909   2.672  0.0029 -0.3916 -0.4732
 4839W        W19970   6.885   7.045   4.111 -0.1351 -0.1895  0.1983
 4840W        W19971  13.977  10.675  15.497 -0.1330  0.0684 -0.1614
 4841W        W19972  13.213  13.143  13.519  0.1025  0.0748  0.3030
 4842W        W19973  17.106   8.814   0.834  0.1182 -0.1040  0.1772
 4843W        W19974   0.512   2.891   2.050  0.1065 -0.1740 -0.1881
 4844W        W19975  11.424   5.092  14.002 -0.0357  0.0667  0.2263
 4845W        W19976   7.399   3.791   4.577 -0.2518 -0.0590 -0.0569
 4846W        W19977   1.975  15.461   3.910 -0.3252  0.1144  0.1080
 4847W        W19978  17.336   4.316  13.021  0.0764 -0.1694  0.4140
 4848W        W19979  15.383  14.832   4.847  0.1005  0.1098 -0.1967
 4849W        W19980   7.591   6.852  15.847 -0.1314  0.0573  0.2765
 4850W        W19981  14.456  12.599  14.295  0.0113  0.0683  0.0423
 4851W        W19982   7.828   0.774   4.948 -0.4528  0.1314  0.0963
 4852W        W19983   5.587   1.551  15.342 -0.2897 -0.0044 -0.0448
 4853W        W19984  14.842  12.499   3.038  0.0808 -0.0579  0.0326
 4854W        W19985   8.560   3.349   0.225 -0.0180 -0.1041 -0.1107
 4855W        W19986  14.371  16.319  11.470  0.5045 -0.2031  0.0290
 4856W        W19987  14.149  13.597   3.035 -0.1229 -0.1378  0.1203
 4857W        W19988  16.504  16.887  15.057 -0.0095  0.0138  0.0965
 4858W        W19989  13.556   0.714   0.753  0.0924 -0.0115  0.0822
 4859W        W19990  11.291  11.944   0.958 -0.0878 -0.2347  0.0187
 4860W        W19991  18.286   4.515   2.936  0.2603 -0.1093 -0.1052
 4861W        W19992   3.482  16.435  13.837 -0.0750 -0.2330 -0.1099
 4862W        W19993  16.669  17.275   0.882 -0.0748 -0.2488  0.3630
 4863W        W19994  15.556   6.065  15.925 -0.1855  0.0150  0.0623
 4864W        W19995   3.691  11.648   0.302 -0.0664  0.0916 -0.0404
 4865W        W19996  14.994  16.291   3.126 -0.1047 -0.1702 -0.0016
 4866W        W19997  14.246  11.455   4.839  0.0300  0.0474 -0.0258
 4867W        W19998   1.099   4.501  15.587  0.0516 -0.3951  0.0685
 4868W        W19999  11.486   4.336   3.208  0.3025  0.2865  0.0543
 4869W        W20000  11.019   8.170  14.713  0.1290  0.0515 -0.0160
 4870W        W20001   1.355   6.545  14.365  0.2849 -0.2863 -0.1351
 4871W        W20002   8.255  11.659  12.034 -0.0712 -0.5349  0.0941
 4872W        W20003  14.014   7.513   3.004 -0.0782 -0.2296  0.1479
 4873W        W20004   7.430  15.528  13.915 -0.2411  0.1377  0.0804
 4874W        W20005  15.924  15.359   9.690 -0.0621 -0.0265 -0.1748
 4875W        W20006  13.413  13.652  12.671  0.0303  0.0237 -0.1576
 4876W        W20007   4.860   1.698   2.561  0.0778  0.0065  0.2106
 4877W        W20008   3.896   5.490  11.937 -0.0758 -0.0512 -0.0374
 4878W        W20009   5.628   6.156   3.171 -0.1394 -0.2084 -0.0618
 4879W        W20010   1.296  12.796  13.898  0.0997  0.1369  0.0879
 4880W        W20011  12.974  10.435   1.234  0.2537 -0.0010  0.1119
 4881W        W20012   4.980  15.185   4.162 -0.3540  0.1057  0.0916
 4882W        W20013  18.021  10.468  15.965 -0.2301  0.0444  0.0685
 4883W        W20014   5.478  15.053  16.143 -0.1167  0.2486 -0.3301
 4884W        W20015   4.182   5.801  15.875  0.1682  0.0135  0.1866
 4885W        W20016  11.068   5.573   3.690  0.1085 -0.0609  0.1987
 4886W        W20017  15.076   9.335   0.279 -0.0197  0.3182 -0.1899
 4887W        W20018   1.614   1.450   0.080 -0.4095 -0.0343  0.1815
 4888W        W20019   3.760  14.525   4.873  0.1826 -0.0437  0.0531
 4889W        W20020  10.616   7.844   5.558  0.1351 -0.4045  0.2770
 4890W        W20021  14.920   6.879  12.692 -0.2406  0.0389 -0.0140
 4891W        W20022   9.341  15.877   0.209 -0.0568 -0.0395 -0.1092
 4892W        W20023   2.746   3.750  13.884  0.3160 -0.2488  0.3144
 4893W        W20024   0.670   3.092   4.775  0.1235  0.0214  0.1528
 4894W        W20025   6.098  15.137  15.612 -0.0702 -0.2439 -0.2032
 4895W        W20026   6.181   6.033   3.893  0.2311  0.1971 -0.0558
 4896W        W20027   7.632  10.172  13.059 -0.2660  0.3568  0.0395
 4897W        W20028   9.961  17.307  15.077  0.0353 -0.3202  0.1495
 4898W        W20029  15.178   0.426   5.466 -0.0700  0.1228 -0.1680
 4899W        W20030   4.047   5.348  14.460 -0.3007  0.1279 -0.1540
 4900W        W20031  15.365  12.503   4.464  0.1336  0.0333  0.3711
 4901W        W20032  15.074  11.730  10.993 -0.1250  0.0258  0.0593
 4902W        W20033   1.838  10.617   5.083 -0.1544 -0.1551 -0.1053
 4903W        W20034  10.330   0.978  13.134  0.2467  0.3313  0.2151
 4904W        W20035   0.077   4.840   4.271  0.2466 -0.1149  0.0565
 4905W        W20036   3.778   3.499   5.505  0.0091 -0.2385 -0.0144
 4906W        W20037  16.890   0.094  11.921  0.2383 -0.2766 -0.0039
 4907W        W20038  18.186   0.194   5.184 -0.0196 -0.0607 -0.4054
 4908W        W20039   9.750  14.434   2.584  0.1571 -0.0278  0.4705
 4909W        W20040  14.235  10.250  15.495  0.0599  0.1979 -0.0123
 4910W        W20041  16.852   3.226  10.156  0.0137 -0.2374  0.0436
 4911W        W20042   3.887  11.248  11.760 -0.1804 -0.0315 -0.1953
 4912W        W20043  10.829  17.843   0.058  0.0242  0.1244 -0.2239
 4913W        W20044   0.978   0.898  14.204 -0.1810 -0.2831  0.1556
 4914W        W20045  12.499   8.396  13.663 -0.1086 -0.1642  0.0472
 4915W        W20046  16.126  15.273   5.238 -0.2218 -0.1881  0.0720
 4916W        W20047   8.792  16.749   5.398  0.2054  0.0541 -0.0672
 4917W        W20048  15.691   0.574  15.958 -0.2770  0.0559  0.0257
 4918W        W20049   1.020  14.184  15.745 -0.0410 -0.0073 -0.1950
 4919W        W20050  17.733   4.922  15.817  0.0071  0.1381  0.0441
 4920W        W20051   2.118  17.597   0.304  0.3798  0.0591  0.1382
 4921W        W20052   6.186  17.108   4.229  0.1498  0.0250 -0.0244
 4922W        W20053   6.787  14.649   1.015 -0.1150 -0.2135 -0.0265
 4923W        W20054  17.191  11.468   1.204  0.1218  0.0634  0.2513
 4924W        W20055  11.301   6.527  13.930 -0.2440 -0.1317  0.1128
 4925W        W20056   4.646   6.664  12.606  0.1748  0.0963 -0.2117
 4926W        W20057  10.000   6.505  13.623  0.2502  0.0893  0.0130
 4927W        W20058  11.939  18.220  15.029  0.0869  0.2138  0.0261
 4928W        W20059  10.957  10.037   1.798 -0.0918 -0.0420  0.2744
 4929W        W20060  14.841  13.789   3.944  0.1679 -0.0568 -0.2234
 4930W        W20061   0.564  14.536   0.415 -0.0119  0.2632 -0.1070
 4931W        W20062   2.751   4.682   4.440  0.0023 -0.1088  0.0470
 4932W        W20063   2.538   0.340   3.374  0.1571  0.0520 -0.1015
 4933W        W20064   3.354   7.143  14.474 -0.2147 -0.1962  0.3030
 4934W        W20065  14.021  12.192   4.462 -0.2710 -0.1068 -0.1631
 4935W        W20066   6.361  15.034  11.359  0.1298  0.1813 -0.1569
 4936W        W20067   4.722  11.953  12.757  0.2606  0.0761  0.2682
 4937W        W20068  14.855   8.397  14.778  0.1057  0.3805 -0.0721
 4938W        W20069   5.411   4.114  12.042 -0.0151  0.2287 -0.1598
 4939W        W20070   7.897  12.375  12.622  0.0221  0.0178  0.0024
 4940W        W20071   4.652  12.571  14.081 -0.0198  0.0929  0.0189
 4941W        W20072   3.133   6.276   3.770 -0.0023 -0.2577  0.0416
 4942W        W20073   1.519  14.386  15.668  0.2308  0.1435 -0.0714
 4943W        W20074  17.472  13.696   0.959  0.1123  0.0126  0.1271
 4944W        W20075   1.653   0.759  11.868  0.0232  0.1486 -0.0599
 4945W        W20076  13.279  14.119  13.256  0.2453  0.2536  0.5512
 4946W        W20077  11.787  13.228  15.672 -0.0024 -0.0212 -0.2413
 4947W        W20078  10.485   3.151   3.151  0.1588  0.0501 -0.0874
 4948W        W20079   6.185   0.722  13.662 -0.0032  0.0884  0.1092
 4949W        W20080  14.714  10.187  12.092 -0.1195 -0.0390 -0.0048
 4950W        W20081  11.674  11.765  14.305 -0.0585 -0.3476 -0.1758
 4951W        W20082   0.715   1.882   2.452 -0.0116 -0.0891 -0.0185
 4952W        W20083  15.436  14.081  14.732 -0.0753  0.4938  0.2131
 4953W        W20084   9.122  12.921  15.761  0.2939 -0.2751  0.4750
 4954W        W20085   0.928  18.256   4.126  0.2396 -0.1277 -0.2488
 4955W        W20086   6.489   3.837   0.479 -0.0746  0.0659 -0.0325
 4956W        W20087  16.287  16.779  14.553  0.1968 -0.0750 -0.2875
 4957W        W20088   0.996   4.482  13.135  0.1794 -0.0919  0.3024
 4958W        W20089   9.859   3.522   0.733  0.0793  0.1652 -0.0932
 4959W        W20090  17.799  17.742   0.613 -0.0519 -0.0275  0.2641
 4960W        W20091   2.925   1.505   4.620  0.0774 -0.2177 -0.2045
 4961W        W20092  11.236   7.356   2.084 -0.1503  0.1027 -0.2941
 4962W        W20093   8.855  10.136   3.736  0.0624  0.0218 -0.0932
 4963W        W20094   6.343  11.710  12.724 -0.0198  0.1428 -0.4418
 4964W        W20095  13.481  14.620   3.401 -0.4291  0.2266 -0.1005
 4965W        W20096  14.663   3.967   4.871 -0.1346  0.1284  0.0216
 4966W        W20097   9.768   7.333   4.311 -0.0040 -0.0030  0.1539
 4967W        W20098   8.902  10.210  11.570 -0.0078  0.0377 -0.0345
 4968W        W20099   2.547  12.633  16.005  0.1781  0.1889 -0.0120
 4969W        W20100  11.197   4.011   4.161  0.0410 -0.2391 -0.0706
 4970W        W20101  14.610  13.872  13.845  0.4421  0.0382  0.4156
 4971W        W20102  14.687  17.736   3.215 -0.0526 -0.0774 -0.3400
 4972W        W20103   7.581   0.333  14.195  0.0952 -0.1153  0.0361
 4973W        W20104   0.344  13.470  10.342 -0.1832  0.0856  0.0445
 4974W        W20105   9.482   7.392  13.338  0.0138  0.1884  0.0612
 4975W        W20106   8.272   8.076  14.051  0.0460  0.1762 -0.0241
 4976W        W20107  10.228   6.880   1.014  0.0843 -0.1714 -0.3250
 4977W        W20108   6.243  11.804   0.284  0.1786  0.2564 -0.0325
 4978W        W20109   5.040   2.333  12.861  0.0008 -0.2679 -0.0520
 4979W        W20110   0.654   1.864  14.308 -0.1055 -0.2868  0.2108
 4980W        W20111  14.076  11.360   2.629  0.0490 -0.0047 -0.0451
 4981W        W20112   3.250  16.270  13.316 -0.0241 -0.2908 -0.1217
 4982W        W20113   7.305   8.921  14.378  0.0045  0.4922  0.0301
 4983W        W20114  10.284  15.783   3.773 -0.1118 -0.0936  0.1334
 4984W        W20115   2.942  14.727  13.097  0.0275 -0.2129 -0.5597
 4985W        W20116  18.367  18.181   1.786  0.1390  0.2525  0.0426
 4986W        W20117   7.383  18.282  12.906  0.1130  0.2629 -0.4661
 4987W        W20118  15.603   8.333   1.758  0.0851 -0.0571 -0.1884
 4988W        W20119  10.752   5.792  12.943 -0.2559  0.1384  0.0616
 4989W        W20120   2.971  16.600  14.820 -0.0920  0.2137 -0.1903
 4990W        W20121   0.289  14.737   3.857 -0.2142 -0.0636  0.0743
 4991W        W20122   2.248   8.536   4.905 -0.1446 -0.2911 -0.0207
 4992W        W20123   6.998  11.730   1.465  0.1683 -0.0504  0.2795
 4993W        W20124  14.068  12.591   0.646  0.0935  0.1093 -0.1547
 4994W        W20125   8.127   2.341  15.568 -0.0067  0.1293  0.0160
 4995W        W20126  11.474  17.305  15.822  0.2714  0.0748  0.0141
 4996W        W20127  16.803   8.577   3.701  0.0625 -0.0213 -0.2537
 4997W        W20128  14.043  18.217   3.625 -0.3602  0.0429 -0.1880
 4998W        W20129   1.859  13.360  15.591  0.1940 -0.1060 -0.2191
 4999W        W20130  18.104   6.280   4.259  0.1324  0.0380 -0.0090
 5000W        W20131  12.016   4.874   2.688 -0.2537 -0.1430  0.2594
 5001W        W20132  17.210  16.243   4.887 -0.1168 -0.1290 -0.2895
 5002W        W20133  15.843   8.685  11.639 -0.2418 -0.1503  0.0612
 5003W        W20134  11.120  13.391   4.330  0.0268 -0.2120  0.1409
 5004W        W20135   7.453   7.116   2.807 -0.2916 -0.1016  0.1084
 5005W        W20136   2.859  15.838   1.852  0.1828  0.0893  0.1364
 5006W        W20137  18.365   6.696  13.377 -0.2831 -0.2477 -0.0786
 5007W        W20138  17.623  15.511   1.410 -0.0536 -0.0628 -0.5280
 5008W        W20139  17.116  15.603   4.508  0.0970  0.0689 -0.2008
 5009W        W20140  15.718   5.033   4.956 -0.3804  0.2847 -0.0032
 5010W        W20141   7.804  17.040  14.358  0.0813 -0.0709 -0.1102
 5011W        W20142  13.508   9.609   0.708  0.1852 -0.1060 -0.0539
 5012W        W20143  12.660   5.385   4.231 -0.0690 -0.1565  0.1538
 5013W        W20144  13.392   9.804  15.838  0.0004 -0.0542 -0.0979
 5014W        W20145  10.281   5.385   1.836  0.0310 -0.1607 -0.2420
 5015W        W20146  11.963   3.160   3.838 -0.1732 -0.1274  0.0980
 5016W        W20147   9.318   3.891  13.081 -0.0559 -0.3062  0.1560
 5017W        W20148   4.740   4.841   0.509 -0.0780 -0.2124 -0.1826
 5018W        W20149  10.702  14.088  15.703  0.1752 -0.1229  0.2003
 5019W        W20150   7.794   3.650  14.315 -0.2936 -0.0530 -0.1677
 5020W        W20151   6.478  13.249  14.950 -0.0531 -0.0865 -0.0186
 5021W        W20152   2.165  12.624  12.841  0.1106 -0.0967  0.3624
 5022W        W20153  15.741   4.489  11.850 -0.0680  0.0272  0.4163
 5023W        W20154  15.982   4.215   4.422 -0.0859 -0.0216  0.1860
 5024W        W20155  13.742  10.965   6.137 -0.1171  0.2363 -0.1232
 5025W        W20156   5.625  14.019  16.066 -0.3860  0.0122  0.0877
 5026W        W20157  13.035   5.675  14.081  0.1759  0.0345  0.1825
 5027W        W20158  14.225   3.793   4.629  0.2161  0.2428 -0.0453
 5028W        W20159   5.650  12.513   1.133 -0.2101  0.0814 -0.4004
 5029W        W20160   9.647   0.577  11.629 -0.1117  0.3282  0.2827
 5030W        W20161   9.433  17.616  11.941 -0.3071 -0.0534  0.0481
 5031W        W20162   4.982   2.697   4.573  0.0307 -0.3381 -0.0412
 5032W        W20163   5.190   8.814  15.349  0.3177  0.2346 -0.0387
 5033W        W20164   7.376  17.275  14.278  0.0463  0.3506  0.1764
 5034W        W20165   6.734   2.107   2.453 -0.0564  0.0209 -0.0523
 5035W        W20166   8.148  17.068  13.922  0.0322  0.2279  0.1961
 5036W        W20167  16.087  13.411   4.114  0.1480  0.1685  0.1803
 5037W        W20168  12.980  17.125  15.424  0.0849  0.3668 -0.0821
 5038W        W20169   6.214   4.697  15.362  0.1901  0.3242  0.1631
 5039W        W20170  14.012  17.984  13.377  0.0142 -0.4002 -0.2272
 5040W        W20171   0.012   0.139   0.775  0.3435 -0.2087  0.1882
 5041W        W20172  13.690  18.099   1.674  0.1346  0.0977 -0.1390
 5042W        W20173   3.477  14.496  14.678  0.4477 -0.0851 -0.1874
 5043W        W20174   4.040   7.378   4.059 -0.0894 -0.0589 -0.1754
 5044W        W20175  17.687   1.978  15.587 -0.2549 -0.3025  0.2055
 5045W        W20176   9.664  11.262  12.103  0.0723 -0.2890  0.1589
 5046W        W20177  15.867  13.287   3.336 -0.1932  0.0081  0.1006
 5047W        W20178  14.306  13.879   0.337 -0.1516  0.1899 -0.0578
 5048W        W20179  17.294  17.257   2.390  0.0556 -0.0100  0.1108
 5049W        W20180   8.654  14.053   0.399 -0.4249  0.1755  0.3569
 5050W        W20181   6.586  15.784  12.490  0.0238  0.2259  0.0425
 5051W        W20182   3.283   2.425   1.505 -0.0089  0.0272 -0.3765
 5052W        W20183   6.027  13.951   3.703 -0.2920 -0.0149  0.0154
 5053W        W20184   4.286  10.028   4.743  0.3645  0.0430 -0.1365
 5054W        W20185  12.413  12.165   0.963 -0.3650 -0.2422  0.0212
 5055W        W20186  14.652  17.098  11.247  0.1425 -0.5044  0.2787
 5056W        W20187  13.653   7.562   0.859  0.0596  0.2235 -0.2197
 5057W        W20188   6.497   0.855  14.919 -0.1103  0.0643 -0.1613
 5058W        W20189   5.350   0.464   4.326  0.1350  0.1808 -0.0794
 5059W        W20190   0.399   3.808   0.686 -0.0561  0.1569  0.2124
 5060W        W20191  12.792  14.002   3.855  0.2344  0.2790  0.2156
 5061W        W20192   4.823   8.842   4.447  0.2449 -0.0854 -0.0239
 5062W        W20193   1.771  16.154  14.387 -0.2751 -0.0085  0.1161
 5063W        W20194  12.573  17.709   5.229  0.0708  0.1433  0.4246
 5064W        W20195  15.392  12.334   3.923  0.0973 -0.3636  0.2842
 5065W        W20196   0.594   6.968  16.090 -0.1303 -0.3299  0.0615
 5066W        W20197   0.046   0.058   2.295  0.2048 -0.2268  0.0701
 5067W        W20198  13.560  13.993  12.315  0.0436  0.2188 -0.0272
 5068W        W20199   8.208   4.471   0.733 -0.1740 -0.0350 -0.0425
 5069W        W20200   0.590   5.508  13.236 -0.0334  0.0012 -0.0520
 5070W        W20201   6.687   6.448   1.329 -0.0676  0.4318  0.0740
 5071W        W20202   2.951   3.273  11.268  0.0277 -0.0176 -0.0613
 5072W        W20203  15.002  12.007  12.970 -0.2909  0.0335 -0.0325
 5073W        W20204  17.724  10.484  14.587 -0.2226  0.2448 -0.0299
 5074W        W20205  10.157   5.354   1.122 -0.0294 -0.2563  0.0574
 5075W        W20206   5.475  12.289   3.273  0.2167 -0.0814  0.1478
 5076W        W20207  17.575   1.811   2.870 -0.2191 -0.4232 -0.1934
 5077W        W20208  13.380  14.398   1.783  0.3449  0.0630  0.0564
 5078W        W20209  11.413   7.677   0.672  0.1448 -0.1270 -0.1593
 5079W        W20210   5.091  10.448   1.573  0.1773 -0.1374  0.1638
 5080W        W20211   3.353   1.291   5.690 -0.0200  0.0684  0.3409
 5081W        W20212   4.600  16.203  12.481  0.0589 -0.3397  0.1632
 5082W        W20213   1.359  13.606  11.139  0.1024  0.1365 -0.0218
 5083W        W20214  15.728  15.390   1.541  0.0940 -0.0318 -0.0277
 5084W        W20215   8.462  12.540   1.291 -0.3180 -0.3032  0.3565
 5085W        W20216  11.062  10.933  13.941 -0.1989 -0.0914 -0.0614
 5086W        W20217   9.863  12.531  14.175  0.0252 -0.1606 -0.2076
 5087W        W20218   1.415  13.786  15.046 -0.1064  0.1176  0.1754
 5088W        W20219   4.029  18.281   2.450 -0.0244  0.1519  0.0011
 5089W        W20220  15.790  10.386   2.511  0.0441 -0.3214  0.3242
 5090W        W20221  14.631   0.531   4.222  0.0945  0.0914 -0.2635
 5091W        W20222   3.970   8.073   4.791 -0.0907  0.0942 -0.0024
 5092W        W20223  13.062  14.364   2.273 -0.0313  0.1156 -0.3177
 5093W        W20224   5.760  15.519  14.898  0.0751  0.1601  0.0902
 5094W        W20225  17.340   6.856   1.124 -0.1362  0.0991 -0.0975
 5095W        W20226   4.649  10.482   2.008  0.0465 -0.2946  0.1998
 5096W        W20227   3.466   2.885   5.034  0.1709  0.3273 -0.1058
 5097W        W20228   1.230   5.467   3.468 -0.1984 -0.2269  0.4654
 5098W        W20229   4.255  14.614  15.141  0.1418 -0.0611  0.4059
 5099W        W20230   2.459  14.710   0.206 -0.4777  0.3031  0.0257
 5100W        W20231  15.363   2.471  13.385 -0.0611  0.2458 -0.1034
 5101W        W20232  15.463  15.849   4.979  0.0014  0.1681 -0.0107
 5102W        W20233   4.746   3.697  13.194 -0.0588 -0.0426 -0.0979
 5103W        W20234   8.463   5.407  13.963  0.0558  0.1476  0.0511
 5104W        W20235   9.288   2.543   5.163  0.1012 -0.2904 -0.1321
 5105W        W20236   6.897   7.731  12.727  0.1587 -0.2497  0.1135
 5106W        W20237  11.156   7.408  14.003 -0.1061 -0.3352 -0.1133
 5107W        W20238  14.888  11.788   6.059 -0.2884  0.0139 -0.1308
 5108W        W20239   2.099  17.131  15.234 -0.1888 -0.2974  0.0749
 5109W        W20240   3.890  13.680  11.795  0.3961 -0.1505  0.2043
 5110W        W20241  14.474  11.350  12.412 -0.3681  0.0811 -0.0551
 5111W        W20242   0.305   7.313   1.048 -0.2061 -0.0494  0.0162
 5112W        W20243  12.054   3.640   2.129  0.1979 -0.1267 -0.1930
 5113W        W20244   8.422   3.884  13.046  0.2463  0.0661 -0.1509
 5114W        W20245  15.207  14.160   5.385  0.1599  0.0242  0.2912
 5115W        W20246   5.216   9.178   5.778 -0.0438  0.0869  0.2084
 5116W        W20247   3.532  11.881  15.542  0.0458  0.1541  0.3163
 5117W        W20248  13.580   3.000   2.374 -0.1456 -0.1109  0.1309
 5118W        W20249  15.225   5.451  10.984  0.1536 -0.2883 -0.0364
 5119W        W20250   2.277   1.505  15.796 -0.0126 -0.0148 -0.1562
 5120W        W20251  13.384  14.457  16.134 -0.2192 -0.1083 -0.2560
 5121W        W20252   5.589  14.931  13.513 -0.0781  0.0052  0.1854
 5122W        W20253   7.475  16.606   4.787  0.0664 -0.0038 -0.2190
 5123W        W20254   1.863  12.470  11.119 -0.5478  0.3099 -0.1649
 5124W        W20255   0.348  10.106  14.413  0.2130  0.1513 -0.2478
 5125W        W20256  11.792  13.041  12.303  0.5293 -0.0818  0.0183
 5126W        W20257  16.487   0.427   6.058 -0.2623 -0.0025  0.2827
 5127W        W20258  17.665  10.981  11.181  0.2617  0.1348 -0.2101
 5128W        W20259  13.967  15.464   2.644  0.4047 -0.0969 -0.0697
 5129W        W20260   6.984  17.732   3.240 -0.3601 -0.3260  0.2241
 5130W        W20261  17.838   8.988  12.957  0.0493  0.1931  0.0215
 5131W        W20262  16.804   3.110  11.740  0.3690  0.2425  0.2005
 5132W        W20263  10.847   4.790  12.548  0.3911  0.0281  0.0860
 5133W        W20264  13.431  15.683   1.673 -0.3271  0.4948 -0.0225
 5134W        W20265   8.513  11.828   5.388  0.3055  0.3641 -0.3649
 5135W        W20266  16.440  17.340   4.882 -0.2243 -0.1591 -0.2592
 5136W        W20267  17.358   6.927  10.558  0.0154 -0.3804  0.0314
 5137W        W20268  14.758   7.710   0.786 -0.2137  0.0329 -0.1845
 5138W        W20269  15.938  16.234  15.170 -0.1984  0.0982  0.0393
 5139W        W20270   1.319   5.708   4.368  0.3153 -0.2203  0.1605
 5140W        W20271   9.370  12.541   4.215 -0.0703  0.2158 -0.0575
 5141W        W20272   7.583  16.941   1.647 -0.0822 -0.0907  0.1254
 5142W        W20273   7.160   9.831  16.094 -0.1607  0.0882 -0.1968
 5143W        W20274   1.040   4.208   2.349  0.3666 -0.0901 -0.1205
 5144W        W20275  14.733  11.508   3.497 -0.2602 -0.0779  0.2202
 5145W        W20276  17.146  15.820   3.933 -0.0183  0.0990  0.0367
 5146W        W20277   5.963  13.511  15.304 -0.1644 -0.4933 -0.4470
 5147W        W20278  17.032  11.370   0.673  0.1076  0.0544 -0.2506
 5148W        W20279   1.262   5.529   5.009  0.1253 -0.0705  0.0285
 5149W        W20280  11.693  16.545   0.071 -0.0937 -0.2809  0.2194
 5150W        W20281  13.874  12.441   4.042 -0.0304  0.1824  0.1366
 5151W        W20282   9.780   9.514  12.877  0.2345  0.1365 -0.0476
 5152W        W20283   5.258  16.136  12.027  0.0066 -0.0190  0.2601
 5153W        W20284   5.506  13.977  11.911  0.3550  0.1431 -0.0298
 5154W        W20285   6.818   9.733  14.436  0.3208  0.1029 -0.1427
 5155W        W20286  16.635   3.725   2.740  0.1571 -0.1273  0.0050
 5156W        W20287   3.917  10.046   1.591  0.2767 -0.1277  0.2443
 5157W        W20288  13.565   5.196  14.422 -0.4675  0.2048 -0.1690
 5158W        W20289   1.357  17.045   4.781  0.0168  0.0308  0.2624
 5159W        W20290  17.708   0.452   1.356 -0.0721 -0.2612 -0.2950
 5160W        W20291   7.986  10.204   3.912 -0.0098 -0.1810 -0.2502
 5161W        W20292   4.500   8.750   4.032  0.0339 -0.0224 -0.0144
 5162W        W20293   4.250   6.940   4.347  0.0630 -0.1233  0.1495
 5163W        W20294  11.217  12.892   4.481 -0.1873 -0.2901 -0.0335
 5164W        W20295   6.849   3.199   4.946  0.7023  0.0583  0.1948
 5165W        W20296   7.943  16.874  12.169  0.0729  0.1138 -0.0114
 5166W        W20297   8.990   1.921   3.382 -0.1221 -0.1769  0.3321
 5167W        W20298   8.994   1.933   0.536  0.1664  0.1763 -0.2386
 5168W        W20299  13.514  11.560  14.539  0.4080 -0.3134 -0.0014
 5169W        W20300   2.672  18.253   2.074 -0.1319  0.1716  0.0200
 5170W        W20301  11.271  12.274  12.374  0.1082 -0.0719  0.2600
 5171W        W20302   0.344   6.691   3.456 -0.1424 -0.3052 -0.1249
 5172W        W20303  12.892  17.429  12.094 -0.2162 -0.0674  0.0829
 5173W        W20304   2.976  16.375  12.000  0.0930 -0.3086 -0.1467
 5174W        W20305  18.255  11.747  11.239  0.0679  0.3242  0.2235
 5175W        W20306  15.630  18.034  13.074 -0.1909  0.0812  0.0832
 5176W        W20307  12.200   6.372  15.990  0.1188  0.1240  0.3088
 5177W        W20308  14.962  16.592   1.329 -0.3477 -0.2103 -0.2075
 5178W        W20309   4.640   8.011  13.181 -0.0808  0.1742  0.2243
 5179W        W20310   0.609   6.973   4.398 -0.1001 -0.1818  0.1013
 5180W        W20311  13.703  11.484  13.653 -0.0714  0.0173  0.2302
 5181W        W20312   5.762  17.614  13.339  0.0977 -0.0377  0.0664
 5182W        W20313  17.189  11.311  11.229 -0.1854 -0.2433  0.0657
 5183W        W20314   9.615   5.775  16.114 -0.1617 -0.0375 -0.1175
 5184W        W20315  13.558   7.144  12.912  0.0985 -0.1179  0.2215
 5185W        W20316  11.196   4.573  15.293  0.4671 -0.0172  0.1456
 5186W        W20317   8.430   4.494  15.901  0.4067 -0.2922  0.2288
 5187W        W20318  11.838  13.587  16.101  0.1099 -0.0118  0.0198
 5188W        W20319   4.607   6.696  11.642 -0.1129 -0.2110 -0.2554
 5189W        W20320  11.128  17.070  12.500  0.2165  0.2816  0.0763
 5190W        W20321   0.782   1.619  13.488  0.0968  0.1144  0.2090
 5191W        W20322   2.235   6.841  14.115 -0.1338 -0.2275 -0.0738
 5192W        W20323  11.852   8.764  10.864 -0.0841  0.1470  0.1117
 5193W        W20324   4.856   4.336  15.088  0.3960  0.0435  0.2645
 5194W        W20325   9.160  13.239   1.466  0.4363  0.0473  0.3365
 5195W        W20326  11.098   1.255  11.940  0.1065  0.0797  0.0012
 5196W        W20327   4.378  13.271   4.095  0.2410  0.0040  0.1898
 5197W        W20328   6.593   7.841  14.016  0.0418  0.1351  0.2283
 5198W        W20329   2.715   3.126  15.985 -0.0996  0.3378 -0.0405
 5199W        W20330   9.547   9.818   0.942  0.1106  0.0696 -0.2108
 5200W        W20331   1.446  15.661  11.561 -0.4994 -0.2097  0.1721
 5201W        W20332  12.865   9.011   5.714 -0.2658  0.2473  0.0931
 5202W        W20333  14.349   5.062   2.300 -0.1852 -0.3252 -0.1018
 5203W        W20334  11.081   6.925   0.256  0.0717 -0.1685 -0.1622
 5204W        W20335   9.181   4.492   1.152 -0.1174 -0.0085  0.0292
 5205W        W20336   0.829   8.063  12.898 -0.0200  0.0586 -0.3452
 5206W        W20337  14.051   9.109   5.632 -0.2095  0.0797  0.2800
 5207W        W20338  14.941  17.264  12.229 -0.0439 -0.2882  0.2575
 5208W        W20339  14.875  13.130   0.241  0.3223 -0.4210  0.2887
 5209W        W20340   0.474  10.153   4.394 -0.0266  0.3322 -0.0466
 5210W        W20341   5.707  12.465   5.028 -0.2783  0.0834  0.2133
 5211W        W20342   4.176  14.616  10.086  0.0195 -0.3095 -0.3003
 5212W        W20343   7.045  10.481  11.239 -0.2317 -0.2210 -0.0641
 5213W        W20344  11.050  15.398   3.423 -0.0931  0.0255  0.0645
 5214W        W20345   9.460   3.798   1.668 -0.0612  0.2317  0.0463
 5215W        W20346   3.200   5.647  12.964  0.0611  0.1544 -0.0522
 5216W        W20347   6.428  11.027   9.858  0.0380  0.0703  0.1357
 5217W        W20348   7.015   9.834   3.954 -0.1477 -0.2838 -0.2512
 5218W        W20349   3.871  13.328   3.875 -0.0404 -0.0957  0.1526
 5219W        W20350   9.933  16.319  13.374 -0.0999 -0.1745 -0.0662
 5220W        W20351  10.959  12.831  11.998  0.3019 -0.1398 -0.1045
 5221W        W20352   4.758  13.277  15.578 -0.2023  0.2546 -0.0913
 5222W        W20353   8.282   1.868   5.279 -0.0438  0.3735  0.2438
 5223W        W20354   1.638   8.755   0.242 -0.0936  0.2407 -0.0487
 5224W        W20355   8.634  17.460   4.065 -0.3010  0.1931 -0.0621
 5225W        W20356   0.777  14.678   5.618 -0.2484 -0.0530  0.0689
 5226W        W20357  16.937  17.233   0.460 -0.2225  0.0494  0.2146
 5227W        W20358  10.522  10.075   4.143  0.0193  0.2048  0.1991
 5228W        W20359  16.552   0.826  11.782  0.1413  0.3015 -0.2386
 5229W        W20360   6.434  10.532  15.168  0.1910 -0.0626  0.2550
 5230W        W20361   4.175   5.415  15.018 -0.0015 -0.2562 -0.0189
 5231W        W20362  13.017   8.851  15.787  0.4523  0.3011  0.4734
 5232W        W20363   7.578   2.190   0.516 -0.0530 -0.2377  0.0914
 5233W        W20364  11.574  10.632  13.645  0.1370 -0.0060  0.0249
 5234W        W20365   8.757   5.052  13.767 -0.1593 -0.1379 -0.2172
 5235W        W20366   4.201   6.918  14.222 -0.1687  0.3851  0.1117
 5236W        W20367  17.570   6.815   4.044 -0.0122  0.1030  0.3592
 5237W        W20368   7.778  14.027   0.232  0.0307  0.2878  0.1789
 5238W        W20369  11.479   5.680  16.048 -0.0611  0.1860  0.2661
 5239W        W20370   8.222  13.996  15.316  0.1825 -0.4019 -0.2456
 5240W        W20371   8.383   0.320  12.911 -0.0237  0.0855  0.2175
 5241W        W20372   7.921  11.403   3.396  0.1489  0.2390 -0.1345
 5242W        W20373   6.230  11.687   1.297  0.0084 -0.2266  0.0115
 5243W        W20374   4.711   7.621   1.975 -0.1613  0.0556  0.1834
 5244W        W20375   2.021  16.439   1.887 -0.0126 -0.2204  0.1241
 5245W        W20376  14.926   9.431   2.830 -0.0896  0.1254 -0.1853
 5246W        W20377  13.260   8.748   0.104  0.1716 -0.2159 -0.1327
 5247W        W20378  17.988  10.946   0.463 -0.0693  0.0995  0.0520
 5248W        W20379   1.920   8.387  14.365  0.3782  0.0205  0.2034
 5249W        W20380   8.821   5.068  15.813  0.2088  0.3083 -0.0768
 5250W        W20381  10.938  11.557  15.215  0.1005  0.1933 -0.2615
 5251W        W20382  15.844   4.045  14.455 -0.1119 -0.1709  0.1335
 5252W        W20383   6.749  12.278  16.089  0.1999 -0.2247  0.2587
 5253W        W20384   5.364  12.077   5.085 -0.2158 -0.3851  0.2591
 5254W        W20385  10.730   2.995   2.789  0.0283 -0.2387  0.2103
 5255W        W20386  16.760  12.832   3.704  0.0371 -0.0211  0.1365
 5256W        W20387   1.286   9.474   3.368 -0.0525  0.1809  0.1485
 5257W        W20388  13.020  14.531  13.506  0.1002  0.1861  0.2328
 5258W        W20389  15.765  10.869   0.002 -0.1815 -0.0684  0.2944
 5259W        W20390  16.663  17.044   4.552 -0.0950 -0.1209 -0.0107
 5260W        W20391  10.517   9.114   0.457 -0.3427 -0.4408  0.0638
 5261W        W20392  15.981   4.172  10.611 -0.0335 -0.0553  0.1097
 5262W        W20393   1.554  12.543  12.717  0.0694  0.3288 -0.2833
 5263W        W20394  14.945   7.321  14.601  0.1182  0.2886 -0.0852
 5264W        W20395  11.441  17.686   0.955  0.1176  0.1347 -0.1446
 5265W        W20396  12.549  10.123   1.220 -0.1609 -0.0285  0.0716
 5266W        W20397  16.837  14.192   4.071 -0.0754  0.3208  0.1659
 5267W        W20398   9.227  14.830  14.819 -0.0805  0.0879  0.1693
 5268W        W20399   3.590   9.891   1.264  0.0780 -0.2922 -0.0591
 5269W        W20400   9.817   3.800  15.300 -0.3513 -0.1253  0.4470
 5270W        W20401  15.763  17.988  12.564 -0.0047  0.2263  0.3262
 5271W        W20402  12.746   0.800   5.041 -0.0420  0.3509 -0.3664
 5272W        W20403   5.854  11.444   3.253  0.0086 -0.0215  0.3175
 5273W        W20404  11.468   4.730   2.216  0.1867 -0.2102  0.2600
 5274W        W20405  16.869  10.268  12.618  0.1197  0.1638  0.1192
 5275W        W20406  18.153   8.095  13.719  0.4998  0.1948 -0.2392
 5276W        W20407   3.821   9.483  14.578  0.5909  0.4496 -0.0248
 5277W        W20408   2.330  10.145  13.893 -0.1256 -0.2478 -0.1388
 5278W        W20409   2.057   9.371   1.206  0.0408  0.1187 -0.0070
 5279W        W20410  13.398  15.648   4.254 -0.0023  0.1079  0.0955
 5280W        W20411   2.191  18.320   2.012  0.1720  0.2933 -0.2243
 5281W        W20412   4.250  16.484   1.767  0.1269  0.2859 -0.0809
 5282W        W20413   4.891  17.590  11.136 -0.2306 -0.1475 -0.2749
 5283W        W20414  10.967   3.789  13.828 -0.0819 -0.2099  0.1698
 5284W        W20415   2.052   0.942   0.579 -0.1637 -0.2263  0.0748
 5285W        W20416  11.924   7.543  10.233  0.2605 -0.1791  0.0034
 5286W        W20417   3.090   7.258   1.209 -0.3746  0.1509 -0.0844
 5287W        W20418  12.708   2.491  13.987 -0.4459 -0.3615 -0.3249
 5288W        W20419  12.846   6.487  13.860 -0.2278 -0.1160 -0.2591
 5289W        W20420   4.354   6.855  15.652  0.4077 -0.0678  0.1052
 5290W        W20421   2.021  14.519   4.188 -0.0245  0.1077  0.0623
 5291W        W20422  16.052  10.786  15.181  0.1145  0.1880 -0.0522
 5292W        W20423   9.861  10.879  11.530 -0.1515  0.5206  0.0158
 5293W        W20424   5.835   8.692  13.511 -0.1375 -0.4641 -0.2092
 5294W        W20425   6.278  15.530   2.275  0.0927  0.2484 -0.0092
 5295W        W20426   4.673  18.270  11.132 -0.3680 -0.0137 -0.0500
 5296W        W20427  12.544  16.424  12.726 -0.0885  0.0237 -0.0098
 5297W        W20428   3.873   7.610   3.048 -0.0189 -0.2192 -0.0320
 5298W        W20429   9.650   6.345   0.035 -0.1083 -0.1969  0.0043
 5299W        W20430   9.644  10.515  11.363 -0.1106  0.1737 -0.0756
 5300W        W20431   7.858  14.388   4.375 -0.3167  0.1699  0.1753
 5301W        W20432  10.651  11.309  12.725  0.0946  0.1611 -0.1318
 5302W        W20433   5.205   9.567   4.707  0.1120  0.0812 -0.0598
 5303W        W20434  12.119   8.829  15.880  0.0326 -0.2093  0.1324
 5304W        W20435  12.091  13.093  16.085 -0.0294  0.0121  0.1396
 5305W        W20436   9.986  16.073   2.894  0.1332  0.3467 -0.0340
 5306W        W20437   4.205   3.523   0.028  0.3758 -0.1248  0.1491
 5307W        W20438  12.927   9.774  15.462 -0.0028 -0.1973 -0.1826
 5308W        W20439   9.888  15.706  14.276 -0.2415  0.0645  0.2207
 5309W        W20440  15.883   0.668  15.505 -0.0659 -0.1073 -0.1952
 5310W        W20441  11.916  15.178  10.432  0.1508  0.1846  0.2485
 5311W        W20442  14.404   8.731   2.235  0.0233  0.0441  0.2574
 5312W        W20443  11.528  13.159  10.425 -0.0325 -0.2112 -0.0641
 5313W        W20444  16.384   0.905  14.116 -0.0533  0.1928 -0.1353
 5314W        W20445   9.378  15.784  14.362 -0.0559  0.0109 -0.2204
 5315W        W20446  10.523   5.270  14.339 -0.2337  0.2364 -0.1835
 5316W        W20447   3.476   6.138   0.081  0.0603 -0.2985 -0.0280
 5317W        W20448   9.263  12.438  15.959 -0.0704  0.1136  0.1558
 5318W        W20449  13.683   5.086   3.658 -0.1608  0.1770 -0.1176
 5319W        W20450   3.058   2.414  14.955 -0.1742 -0.1525  0.3854
 5320W        W20451  18.236  11.712   1.043 -0.1847  0.2679  0.0316
 5321W        W20452   3.397   8.920  12.766  0.0022 -0.0471 -0.0646
 5322W        W20453  11.973  11.007   2.944 -0.0680 -0.0287  0.0649
 5323W        W20454   6.840  14.201   1.890  0.1793  0.1079 -0.1668
 5324W        W20455  12.245  13.453  13.032 -0.0206  0.1890  0.1334
 5325W        W20456   4.030  13.865   5.370  0.1954  0.1339 -0.3126
 5326W        W20457   5.457   2.218  11.596 -0.0023 -0.2784 -0.0446
 5327W        W20458  17.974  17.856   1.831 -0.5012  0.0481  0.0023
 5328W        W20459  11.019   2.138  11.572 -0.0045  0.1255 -0.0922
 5329W        W20460  13.343  16.052   5.052 -0.1335  0.2172  0.0131
 5330W        W20461   6.971   8.157   4.005 -0.0525 -0.0369 -0.3429
 5331W        W20462  14.825   3.313   3.443  0.0063  0.1971  0.1633
 5332W        W20463   5.825   6.625   0.405  0.2652 -0.3322  0.1529
 5333W        W20464  13.106   7.142   0.297 -0.0389  0.1069  0.1787
 5334W        W20465   1.985   6.747  12.598 -0.1717  0.0535 -0.1060
 5335W        W20466   7.192  17.293   4.112  0.3226  0.0239  0.2796
 5336W        W20467   1.994  17.830   5.062  0.0745  0.0664 -0.0668
 5337W        W20468  15.638   0.772  11.733 -0.0913  0.0926 -0.0008
 5338W        W20469   5.012   1.333   0.289 -0.1427  0.0854 -0.2056
 5339W        W20470  11.313  12.178   2.738 -0.0750 -0.2304  0.1897
 5340W        W20471  14.644   5.394   4.820  0.0584 -0.2049 -0.2141
 5341W        W20472  13.361   6.782   1.046  0.0713  0.1136  0.0829
 5342W        W20473   5.231  13.644   3.961 -0.2746 -0.0832 -0.0509
 5343W        W20474  12.317  16.256  10.508  0.1307 -0.0534  0.1297
 5344W        W20475   0.549   5.530  14.448  0.0181 -0.0453  0.0317
 5345W        W20476  14.410  13.299   1.050  0.2795 -0.0637  0.1108
 5346W        W20477   3.900   9.035   4.736 -0.4256  0.0764 -0.1753
 5347W        W20478  15.158   8.633   0.916  0.0989  0.2997  0.3311
 5348W        W20479  14.209  17.144   4.429  0.0315  0.0178  0.2198
 5349W        W20480   0.682  15.404   2.021  0.2387 -0.0491  0.0817
 5350W        W20481   1.062  13.977   5.030  0.0228  0.0892  0.1090
 5351W        W20482   3.072   2.738   5.367 -0.1559 -0.0558  0.1912
 5352W        W20483  11.985   9.430  11.215  0.1365 -0.0584 -0.2592
 5353W        W20484  16.806  11.391   2.093  0.0534  0.2719  0.3585
 5354W        W20485  15.934  16.231   1.074 -0.0750  0.1386  0.0614
 5355W        W20486  10.014  11.776  11.460  0.0555 -0.2506  0.1747
 5356W        W20487   9.390   1.653   0.331  0.0428  0.1124 -0.2495
 5357W        W20488   4.587  17.091  14.859 -0.1713  0.0591  0.2435
 5358W        W20489   6.828  16.830   4.158 -0.2547  0.0358  0.0578
 5359W        W20490  16.198  15.837   4.095 -0.2180  0.0031 -0.2451
 5360W        W20491   8.703   3.691  15.977  0.0319 -0.0026 -0.1469
 5361W        W20492  17.654  13.004   2.992  0.2352 -0.1610 -0.1939
 5362W        W20493  16.819  15.638   0.070  0.1061 -0.0086  0.2523
 5363W        W20494  15.232  17.660  16.095  0.1013 -0.0529  0.0621
 5364W        W20495   7.529   7.294   0.032  0.2633 -0.1060 -0.2111
 5365W        W20496  13.252   2.508  13.834  0.1282 -0.1631 -0.0314
 5366W        W20497  17.155  13.451  13.087  0.0260  0.1085 -0.0072
 5367W        W20498   1.181   1.506  13.167 -0.0403 -0.0175  0.0972
 5368W        W20499   8.144  14.171   1.625  0.2887 -0.0947 -0.2170
 5369W        W20500   6.874  10.460   2.159  0.0456  0.0917 -0.1279
 5370W        W20501   8.015   1.894   0.378  0.1303  0.1253 -0.0863
 5371W        W20502  12.105   1.464   2.026 -0.0023 -0.3741 -0.3350
 5372W        W20503  13.429   9.120   0.473 -0.2745  0.0718 -0.0104
 5373W        W20504   2.222  11.679   5.189 -0.0811  0.2427 -0.0260
 5374W        W20505   4.899  14.142  12.582  0.0758  0.3202 -0.1109
 5375W        W20506   0.452   5.771  13.598  0.0425  0.0953 -0.2718
 5376W        W20507  16.816  10.417  15.495 -0.2008  0.2034  0.3843
 5377W        W20508   6.003   6.225  15.054 -0.2832  0.1537  0.3873
 5378W        W20509  15.494   1.441   0.318 -0.1394  0.2140 -0.0258
 5379W        W20510   7.712  13.786   3.005  0.0636  0.0248 -0.1153
 5380W        W20511   6.387   2.517  11.171  0.5563  0.0868 -0.1137
 5381W        W20512   7.972   8.681   0.482 -0.1569  0.1425  0.0866
 5382W        W20513  16.043   8.175  12.433 -0.1123  0.1858 -0.1501
 5383W        W20514  17.761   3.752   5.330  0.1782 -0.2174  0.1657
 5384W        W20515  14.888  14.626  14.058  0.1277  0.1638  0.0562
 5385W        W20516  11.475  13.728   4.425  0.4496  0.0485  0.0076
 5386W        W20517   4.372  11.796  13.129 -0.0841  0.1850 -0.1080
 5387W        W20518  15.729   5.189  13.209 -0.2724  0.1801  0.0223
 5388W        W20519   3.086  17.807   1.476 -0.5617 -0.1347 -0.0981
 5389W        W20520   9.371  13.239   4.816 -0.0849 -0.2845  0.1854
 5390W        W20521  11.569  17.463   3.337 -0.1901 -0.1160  0.2189
 5391W        W20522   1.885   7.871  12.818 -0.0765 -0.0370 -0.2231
 5392W        W20523  15.320   2.596  16.126  0.0737  0.1818  0.2029
 5393W        W20524   2.167  13.363  13.779  0.1896 -0.0537 -0.0047
 5394W        W20525  14.578  10.331   1.083  0.3863 -0.1825 -0.1315
 5395W        W20526   4.857   4.997  10.320  0.0249 -0.1452 -0.0635
 5396W        W20527  13.706   3.462  13.160 -0.0860  0.0104  0.0140
 5397W        W20528  10.046   4.156  13.816  0.2361  0.3145  0.0511
 5398W        W20529  15.886  10.454   0.587  0.0593 -0.1666 -0.2033
 5399W        W20530   3.200   1.483  13.925  0.2084 -0.0184  0.3649
 5400W        W20531   6.168  11.644   3.609  0.0701 -0.2363 -0.1101
 5401W        W20532  13.216   1.828  13.646  0.3006  0.1357 -0.0510
 5402W        W20533   9.072  11.967   4.890 -0.1748 -0.1014  0.1285
 5403W        W20534   4.315  14.023  15.697  0.0723 -0.1871  0.2213
 5404W        W20535  10.322   9.489   0.130  0.1088 -0.0375 -0.2070
 5405W        W20536   0.070   7.931  12.269  0.1149  0.1105  0.3284
 5406W        W20537   3.849   1.294  12.574  0.1911 -0.0026 -0.1177
 5407W        W20538   4.594   4.666  12.189 -0.1742 -0.2782  0.0532
 5408W        W20539   3.849  14.866   1.442  0.0590  0.0278  0.2881
 5409W        W20540   9.877   8.969  10.095 -0.0557 -0.1919  0.4205
 5410W        W20541  15.527   5.728  11.966 -0.0309 -0.0190 -0.1694
 5411W        W20542  15.628   6.702  10.507  0.3406 -0.1566  0.0405
 5412W        W20543  12.104   7.828   1.142  0.1222  0.0611 -0.0858
 5413W        W20544   3.414  14.883  15.094 -0.3438 -0.0364  0.4880
 5414W        W20545   4.617  18.063   3.801  0.3547  0.2342 -0.2296
 5415W        W20546  10.964  18.062   0.953 -0.1474 -0.0589 -0.2401
 5416W        W20547   0.499   2.621  11.210  0.0393 -0.0973 -0.0231
 5417W        W20548  17.895   8.761  12.555  0.0954 -0.0335 -0.1010
 5418W        W20549   2.089  15.132  14.744  0.1716  0.0205  0.0150
 5419W        W20550  16.600  13.601   2.074 -0.1550 -0.3305 -0.0842
 5420W        W20551  14.767  10.202   3.465 -0.1144 -0.0818 -0.2365
 5421W        W20552   4.370   1.558  15.629  0.1900  0.1781  0.0585
 5422W        W20553  14.803  17.439  15.812  0.1033  0.1872 -0.2332
 5423W        W20554   8.833   6.863  14.780 -0.2464 -0.1977 -0.1845
 5424W        W20555  13.700   8.038   4.640  0.0002  0.0161  0.1546
 5425W        W20556   2.861   7.677   1.531 -0.1663 -0.1694  0.1014
 5426W        W20557  10.041  16.464   3.694 -0.3465  0.0159 -0.1339
 5427W        W20558   2.186  17.723  15.635 -0.4785 -0.0454  0.1032
 5428W        W20559  12.242   3.406   2.588  0.1773 -0.3081 -0.1080
 5429W        W20560  17.225  12.246   4.004 -0.2696 -0.2438 -0.2792
 5430W        W20561  11.019  17.701   3.070 -0.2361 -0.2919  0.0851
 5431W        W20562  16.830   4.847  12.455 -0.1301  0.0276  0.2658
 5432W        W20563   1.665   3.440  12.921 -0.1754 -0.2483  0.2185
 5433W        W20564  16.067   3.493   5.077  0.0230  0.0581  0.0248
 5434W        W20565  10.438   4.429   4.259 -0.2585  0.3453 -0.0104
 5435W        W20566  16.590  13.527  12.709 -0.2866  0.3421  0.2436
 5436W        W20567   3.070  13.723   4.224  0.2908  0.1182 -0.1895
 5437W        W20568   9.981   5.174  12.221 -0.2249  0.3462  0.1127
 5438W        W20569   6.944  10.010   0.433 -0.0663  0.2425 -0.4395
 5439W        W20570   8.544   5.837  14.552  0.0720 -0.2504  0.3021
 5440W        W20571  15.468   8.027  12.194  0.1749 -0.0848  0.1176
 5441W        W20572   3.395  18.332  14.419 -0.0646  0.2996  0.1983
 5442W        W20573   0.863  13.583   1.241  0.0210 -0.1017 -0.2312
 5443W        W20574   7.886   3.092   1.306  0.0913 -0.2983  0.0770
 5444W        W20575  16.905   4.879   0.844  0.0620  0.0162 -0.3707
 5445W        W20576   7.070  13.012   0.186 -0.0900  0.1424  0.0487
 5446W        W20577   1.065   9.603  15.250 -0.2185 -0.2606 -0.1832
 5447W        W20578   8.063  13.010   3.504  0.0966  0.1442  0.5358
 5448W        W20579  12.140  10.297   0.898  0.0100  0.2973 -0.0751
 5449W        W20580  11.573  10.986  14.009 -0.1205  0.1958 -0.2532
 5450W        W20581  16.584   8.692  11.620 -0.0074 -0.3340 -0.4182
 5451W        W20582   9.557  17.060   4.263  0.2374  0.2891  0.6588
 5452W        W20583   1.131   8.029   2.918 -0.0806  0.1154 -0.2541
 5453W        W20584  11.974   0.942  14.535 -0.2144  0.1725 -0.1229
 5454W        W20585   0.031  16.569   4.191 -0.0534 -0.1103  0.1821
 5455W        W20586   1.415  15.557   0.706 -0.0397 -0.0560  0.3353
 5456W        W20587  11.345   3.443   1.401 -0.1294  0.1565  0.0004
 5457W        W20588   9.562  13.570   2.766 -0.2520  0.1087  0.0788
 5458W        W20589  13.423   4.787  14.894  0.1336 -0.1403 -0.3322
 5459W        W20590  10.323   0.048  14.663 -0.1872  0.1913  0.2995
 5460W        W20591  10.641   2.541  10.913 -0.1447 -0.1471 -0.5482
 5461W        W20592  12.245   6.048  11.099  0.0784  0.1104 -0.0691
 5462W        W20593  18.288  12.514  15.900  0.0625  0.0983 -0.1418
 5463W        W20594   2.327   9.819  15.761 -0.1969 -0.3613 -0.0070
 5464W        W20595   1.839  12.808   4.246  0.2223 -0.0242 -0.0906
 5465W        W20596  17.600   8.651   5.762  0.1373 -0.3217 -0.0214
 5466W        W20597  10.916   4.428   4.347  0.0916  0.1681  0.1412
 5467W        W20598  10.108   5.503  13.496 -0.2376  0.0361  0.1803
 5468W        W20599   2.297   9.036  14.926  0.0479 -0.3439 -0.2866
 5469W        W20600  14.678   1.467   3.581 -0.2168 -0.1752  0.0413
 5470W        W20601  14.134  17.247   2.763 -0.1182  0.1888  0.0938
 5471W        W20602   6.673  12.211   3.562 -0.2440  0.2064 -0.0266
 5472W        W20603   5.672   4.328   1.934  0.0579 -0.0437  0.0138
 5473W        W20604  10.863  16.867   4.308  0.0498 -0.2642 -0.0617
 5474W        W20605   6.710   1.898  13.911  0.2079  0.1077  0.1923
 5475W        W20606  16.460  10.711   0.542 -0.5295 -0.2004  0.0685
 5476W        W20607  15.185  12.314   1.871 -0.0491 -0.0133 -0.2700
 5477W        W20608   7.241  14.232  15.359 -0.0997  0.3588  0.0280
 5478W        W20609   4.628   2.872  14.405  0.0315 -0.3846 -0.1262
 5479W        W20610   7.597  10.551   3.658  0.1447 -0.1568 -0.2278
 5480W        W20611  17.726   4.390   3.758  0.3080 -0.4076 -0.1710
 5481W        W20612   6.907   5.445   1.996  0.2840 -0.1645  0.0370
 5482W        W20613   5.412  18.048  10.581 -0.0900  0.1141 -0.1229
 5483W        W20614   8.442   1.686   4.825 -0.0629 -0.1045 -0.0951
 5484W        W20615   3.036   6.045   1.689  0.0795 -0.1433  0.0137
 5485W        W20616   2.733   2.143   2.066 -0.5310  0.2478  0.3437
 5486W        W20617  11.633   1.249   4.266 -0.2545  0.1373 -0.0321
 5487W        W20618  15.423  11.287   3.047  0.4202  0.1732 -0.0954
 5488W        W20619  12.205   5.215   2.280  0.1627 -0.0277 -0.2545
 5489W        W20620  12.919   8.233  11.172 -0.0947  0.0300 -0.2788
 5490W        W20621   1.078  17.684  13.506  0.1512  0.0823  0.2953
 5491W        W20622   0.760   7.164  14.251 -0.1055  0.1957  0.0475
 5492W        W20623  16.038  15.711   0.889  0.3469 -0.2512 -0.0979
 5493W        W20624  13.356  15.531   3.274 -0.1076 -0.1618 -0.0675
 5494W        W20625   3.791   0.299  11.685  0.0869  0.0982  0.1184
 5495W        W20626  17.388   3.031   2.937  0.1562  0.0900 -0.0605
 5496W        W20627   1.908  14.170  14.743  0.2002  0.0573 -0.1498
 5497W        W20628   4.717   2.524   0.683 -0.1290  0.1876 -0.1005
 5498W        W20629   5.079   6.208  14.572 -0.1698 -0.2286 -0.2889
 5499W        W20630   9.188   1.651   3.039 -0.1967  0.1397 -0.0692
 5500W        W20631  10.185   0.281   1.038 -0.0142 -0.2251  0.0265
 5501W        W20632  11.901   0.700   3.802 -0.2936 -0.3118  0.3895
 5502W        W20633  16.807  15.981   3.143  0.1989  0.0515  0.1881
 5503W        W20634   7.670   5.691  15.205 -0.0588  0.0357 -0.0608
 5504W        W20635  17.217  17.800  13.065 -0.1194  0.2055  0.0557
 5505W        W20636   8.294   4.584  12.474 -0.1601  0.1241  0.0141
 5506W        W20637   8.289   1.807   3.215  0.0672  0.1349  0.0162
 5507W        W20638   3.955   4.630  13.511 -0.0039 -0.1965 -0.0622
 5508W        W20639  16.865  11.023  14.531 -0.0512 -0.0901 -0.0826
 5509W        W20640  16.167  15.854   1.753 -0.0245 -0.1150  0.0091
 5510W        W20641   5.419   2.634   2.387 -0.1849  0.0628 -0.0867
 5511W        W20642  17.394   9.598  14.249  0.1823 -0.0642  0.0243
 5512W        W20643   3.701   0.421  11.164 -0.1381  0.0157 -0.0141
 5513W        W20644  15.905   2.535   6.244  0.0282  0.1432  0.0089
 5514W        W20645   2.483  12.458  12.078 -0.1041 -0.2200  0.0880
 5515W        W20646   1.426   2.461  14.800 -0.1813  0.0918  0.0684
 5516W        W20647  11.386  10.508  14.112  0.0344  0.0267  0.0368
 5517W        W20648   7.644   0.967   3.560  0.2067  0.0446 -0.0060
 5518W        W20649  14.274   7.412   3.392  0.2069 -0.0521  0.1834
 5519W        W20650  11.367  12.412   0.599 -0.1483 -0.1139 -0.0716
 5520W        W20651  15.615   3.239  12.025  0.1768  0.0226 -0.2078
 5521W        W20652   8.503   8.636  15.032 -0.0154 -0.0918 -0.1972
 5522W        W20653   0.157   7.678   1.851 -0.3035 -0.1962 -0.4465
 5523W        W20654   8.311   8.687  13.069 -0.0001  0.2472  0.0039
 5524W        W20655  17.261   3.815   4.535 -0.0005  0.1790  0.2812
 5525W        W20656  16.341   9.468  10.863 -0.1000 -0.1229  0.1591
 5526W        W20657   0.571   0.616  12.619 -0.0204  0.1788 -0.1862
 5527W        W20658  13.452   3.733   0.416  0.0703  0.0147 -0.1093
 5528W        W20659   4.557   1.894  11.570 -0.2397  0.0895 -0.3473
 5529W        W20660   1.050   2.285   1.535 -0.0948  0.0882 -0.0349
 5530W        W20661   0.058  17.935  13.341 -0.0441  0.2588  0.1041
 5531W        W20662   5.431  11.212   3.393 -0.0945 -0.2488 -0.0517
 5532W        W20663   7.216  11.965  12.408 -0.1523  0.0201 -0.0513
 5533W        W20664  13.001   8.072   3.693 -0.0374  0.1297 -0.3257
 5534W        W20665  10.115   8.543   5.152  0.0795  0.0725  0.0603
 5535W        W20666   9.572   1.309  10.155  0.1435  0.0467 -0.1773
 5536W        W20667  12.249   7.540   0.054  0.1397  0.0409 -0.0097
 5537W        W20668  13.698  17.872  14.607  0.3008  0.1622  0.1515
 5538W        W20669  17.728  15.370   3.137 -0.0344 -0.0362  0.0022
 5539W        W20670  10.914   8.440   1.300  0.0588 -0.0936  0.1926
 5540W        W20671   8.080   9.889  10.156  0.1604 -0.0892  0.4052
 5541W        W20672  15.805   5.795   4.401  0.3964  0.1976 -0.0637
 5542W        W20673  16.752   5.447   2.332 -0.3270 -0.1596  0.0946
 5543W        W20674  13.772   7.030   0.864  0.0954 -0.3071  0.1203
 5544W        W20675   2.436  10.704  15.072 -0.0308 -0.0501 -0.2637
 5545W        W20676   0.898   3.575   1.474  0.2422 -0.2779  0.4015
 5546W        W20677  14.516  11.487  15.802  0.0789 -0.0701 -0.0069
 5547W        W20678   0.667   8.502  11.468  0.0903  0.4322  0.2910
 5548W        W20679  10.562  10.102  13.908 -0.2599 -0.0107  0.0811
 5549W        W20680   6.466  13.977   0.238  0.4533 -0.0942  0.1193
 5550W        W20681   8.665   2.812  15.097  0.0317 -0.3688 -0.0829
 5551W        W20682  16.616  11.816  15.919 -0.2550 -0.0432  0.0817
 5552W        W20683   2.561  16.140   4.168  0.0728  0.2259 -0.0173
 5553W        W20684  13.517   6.545   6.393 -0.0239 -0.0969 -0.1911
 5554W        W20685   5.870  10.663   3.797 -0.0799 -0.0729  0.2297
 5555W        W20686  14.606   2.293   0.569 -0.4329  0.1656 -0.0730
 5556W        W20687  16.859   2.796  12.217  0.1664  0.1500  0.0499
 5557W        W20688  15.585   2.521   3.741  0.0775  0.0640  0.0926
 5558W        W20689  15.786   9.456  13.292 -0.0104 -0.0342 -0.2326
 5559W        W20690  13.732   2.522   2.482  0.0477  0.2827  0.1112
 5560W        W20691   1.449   9.578  15.749  0.3110 -0.1203 -0.1771
 5561W        W20692   7.012   3.724   0.976 -0.2024  0.0141 -0.2326
 5562W        W20693  13.977  11.611  15.832 -0.0491 -0.0064  0.0615
 5563W        W20694   6.717  10.668   4.056  0.2922  0.1659  0.2582
 5564W        W20695   4.576  15.713  13.795  0.1345 -0.0781  0.1112
 5565W        W20696  16.172   2.112  13.538  0.2051  0.0346  0.3486
 5566W        W20697   0.766  12.462   3.462 -0.3729  0.0772  0.0488
 5567W        W20698   2.058   7.118  10.870 -0.0018 -0.2979  0.2937
 5568W        W20699   5.924   2.274   4.783 -0.2323  0.1336 -0.4093
 5569W        W20700  16.948  15.779   4.977  0.1688 -0.1719  0.1434
 5570W        W20701  16.078   7.175  15.304  0.0122  0.1215 -0.2597
 5571W        W20702   2.917  13.981  12.912  0.0591 -0.2618 -0.2441
 5572W        W20703  10.232  14.028  15.366  0.2748  0.0993  0.2114
 5573W        W20704  16.672   9.844  13.992  0.3253  0.0015 -0.2515
 5574W        W20705  10.947  13.226  11.491  0.1211  0.2244  0.1281
 5575W        W20706  15.808  16.392  11.887 -0.2304  0.2689 -0.2002
 5576W        W20707   2.449   7.033   0.690  0.1045 -0.0301  0.1995
 5577W        W20708   6.281  10.430   3.234  0.4014  0.1314  0.3626
 5578W        W20709  15.686  10.600   3.466 -0.2043 -0.0279 -0.1818
 5579W        W20710   4.581   4.971   4.725  0.0840  0.3626  0.1468
 5580W        W20711   5.237   1.140   1.384 -0.1889  0.3901 -0.0471
 5581W        W20712  14.395  12.993   0.607 -0.0663 -0.0355  0.1353
 5582W        W20713   9.333  13.592   1.128 -0.0506  0.3329  0.0462
 5583W        W20714  15.752  11.043   4.684 -0.1919  0.0144  0.2573
 5584W        W20715   9.045  17.391   3.195 -0.1989 -0.1672 -0.0072
 5585W        W20716   1.449   9.328  11.732  0.1912  0.2043 -0.0621
 5586W        W20717  16.537   7.440   3.333  0.0780 -0.1371 -0.1131
 5587W        W20718  15.999   2.369   1.698  0.2169 -0.3829 -0.0383
 5588W        W20719  18.207  11.180  15.280 -0.0289  0.0207  0.1458
 5589W        W20720   0.641   9.650   5.208  0.0736 -0.0283  0.0300
 5590W        W20721   9.603   4.086  13.479 -0.0363  0.2549 -0.0678
 5591W        W20722  13.768  15.434   1.328  0.0505 -0.1310  0.3200
 5592W        W20723   6.455   0.659   3.515 -0.0723 -0.0103  0.0410
 5593W        W20724  18.008  11.649  14.895  0.1054 -0.2237 -0.5522
 5594W        W20725  16.245  12.159  16.014 -0.0537  0.0941  0.1794
 5595W        W20726   1.643  13.885  11.788  0.0254 -0.0061  0.1804
 5596W        W20727   3.693   3.542   4.376  0.0245  0.0375  0.0280
 5597W        W20728   5.489   7.798  11.338  0.1685 -0.1480 -0.0531
 5598W        W20729  16.427   8.722  15.597 -0.2279 -0.2258  0.1791
 5599W        W20730  12.479   4.740  16.088 -0.1491  0.1418  0.0326
 5600W        W20731  16.302   8.629   4.053 -0.1484  0.0716 -0.1533
 5601W        W20732   8.736   4.164  10.019 -0.0712  0.0061  0.0914
 5602W        W20733   4.190  15.214  14.392 -0.1164 -0.3933 -0.1579
 5603W        W20734   1.657  15.556  14.057 -0.0272 -0.0947  0.0312
 5604W        W20735   0.169  16.010  13.114  0.2834  0.2095  0.2777
 5605W        W20736   5.099   1.993   1.701  0.1310 -0.1507  0.2744
 5606W        W20737   5.201   8.426  12.649  0.2338  0.1609 -0.0856
 5607W        W20738   9.544  16.006   3.139 -0.3325 -0.4476  0.1197
 5608W        W20739   0.937   5.820  13.600 -0.0658  0.0425 -0.1351
 5609W        W20740  16.184  13.352   5.293 -0.1999 -0.3256  0.2642
 5610W        W20741   3.645   0.482  14.281  0.0648  0.1529  0.0097
 5611W        W20742  12.975  18.088  10.753  0.0632 -0.0638  0.1028
 5612W        W20743   1.349   5.352  15.942 -0.0289  0.1442  0.1217
 5613W        W20744  17.757   8.959  15.000  0.0115  0.2735  0.2651
 5614W        W20745   8.347   5.775   3.131  0.4617  0.4555  0.0351
 5615W        W20746  12.423  14.129  14.784  0.2863  0.2726 -0.0755
 5616W        W20747  13.482   1.861   3.105 -0.0940  0.1118  0.2237
 5617W        W20748   6.196  11.421  15.534  0.0886  0.0427 -0.2283
 5618W        W20749   8.074   4.904   1.943  0.2293  0.1672  0.0847
 5619W        W20750   0.895   3.244  14.552  0.1494 -0.1390 -0.2092
 5620W        W20751  11.579   0.864   0.975  0.2863 -0.1089  0.0768
 5621W        W20752   5.904  16.768   0.845  0.0368  0.5316  0.0617
 5622W        W20753   5.517   9.559  14.884 -0.0515 -0.1660 -0.0402
 5623W        W20754  15.323  16.503  11.037 -0.0164  0.0399  0.3368
 5624W        W20755   1.282  16.192   4.356  0.0447 -0.2105 -0.2472
 5625W        W20756  10.004  10.387   5.524 -0.4230  0.1005  0.1706
 5626W        W20757  14.480  11.032  14.906 -0.0459  0.0886 -0.1599
 5627W        W20758  12.742  18.164  13.713  0.1084  0.0812 -0.0112
 5628W        W20759   6.721  15.531   0.951  0.2357  0.1084  0.1679
 5629W        W20760  10.783  16.771  12.329  0.0598  0.1025  0.2344
 5630W        W20761  16.744   8.472   4.743 -0.1649 -0.0066  0.1863
 5631W        W20762   8.472   4.709   4.859 -0.2252  0.0212  0.0757
 5632W        W20763   0.618  14.327  13.278 -0.3474  0.0015 -0.0544
 5633W        W20764  12.274   8.598  11.123 -0.1724 -0.1042 -0.2299
 5634W        W20765   4.534  15.788  11.657 -0.2387  0.0356  0.1359
 5635W        W20766   3.753   5.042   3.689 -0.0853 -0.3657 -0.0886
 5636W        W20767  12.682   5.869  10.673  0.1519  0.1391  0.0647
 5637W        W20768  11.772  16.765  10.664 -0.3145  0.0750 -0.4034
 5638W        W20769  14.379  16.277  14.309  0.0786  0.0493  0.1280
 5639W        W20770   5.762   7.852   4.327  0.0433 -0.0106 -0.0336
 5640W        W20771  11.788  13.662  12.568 -0.3807 -0.2331  0.2901
 5641W        W20772  10.167   0.636   2.283  0.0087  0.0055 -0.2939
 5642W        W20773   6.723  12.882  11.015  0.0592 -0.1515  0.3599
 5643W        W20774   1.612  16.110  13.493 -0.1578 -0.1378 -0.3120
 5644W        W20775  14.902  12.817  14.972 -0.2616 -0.1555  0.3304
 5645W        W20776   6.978   5.133  11.188 -0.2661  0.3926 -0.0013
 5646W        W20777  15.274   5.899   3.138 -0.1746 -0.0851 -0.1952
 5647W        W20778   9.624  14.753   1.329  0.2597 -0.2143 -0.2778
 5648W        W20779  13.274  12.908  11.938 -0.0000 -0.0626  0.3046
 5649W        W20780   9.921   8.864  15.379 -0.1369 -0.0098  0.1572
 5650W        W20781  13.181   4.959   6.371  0.0585  0.0210 -0.0977
 5651W        W20782   2.672   3.916  10.648 -0.0816  0.2571  0.2995
 5652W        W20783  13.547  11.346   5.442 -0.1843 -0.1989  0.0321
 5653W        W20784  10.137   8.230  15.837 -0.0451 -0.3546 -0.1747
 5654W        W20785   4.607   5.579  16.055  0.1020  0.2262  0.1723
 5655W        W20786  17.033   1.044   2.608  0.1362 -0.1498  0.1550
 5656W        W20787  12.514   6.979  15.172 -0.2479  0.0800 -0.0158
 5657W        W20788  11.767  11.065   0.749 -0.0160 -0.2640  0.3804
 5658W        W20789   7.566  14.493   0.279  0.0655 -0.2326  0.0135
 5659W        W20790  17.682  10.182   5.201  0.0127 -0.2811  0.0725
 5660W        W20791   9.473   9.121  13.090 -0.3223 -0.0140  0.3601
 5661W        W20792  10.227   2.942   2.737  0.1717 -0.1171  0.0099
 5662W        W20793   3.883   5.202   4.186  0.0784 -0.4098 -0.1897
 5663W        W20794   5.105  15.201  11.604  0.0214  0.1251 -0.1684
 5664W        W20795  14.505   5.529   6.089  0.1277  0.3643  0.1722
 5665W        W20796  14.017   5.224   4.920 -0.0282  0.3013 -0.1282
 5666W        W20797   5.255  11.934  13.482  0.2416  0.3740  0.1241
 5667W        W20798  13.073   9.119  14.429  0.0443 -0.2987 -0.1760
 5668W        W20799  11.125  18.158   2.874  0.3019  0.0723 -0.0601
 5669W        W20800  10.258  16.986   3.580 -0.0793 -0.1481 -0.1317
 5670W        W20801   2.727  17.432  15.957 -0.1015 -0.1021  0.2021
 5671W        W20802   8.342   5.426  13.024  0.3054 -0.5132 -0.0245
 5672W        W20803   2.769   9.559  12.145  0.2389 -0.0678  0.1306
 5673W        W20804   3.874   9.645   3.329 -0.4424 -0.1336  0.1739
 5674W        W20805  11.797   2.214   0.603 -0.1325 -0.0823 -0.1396
 5675W        W20806   1.479   2.121   4.767  0.0736  0.0737 -0.0885
 5676W        W20807  16.144   1.513  15.924 -0.2133  0.6229  0.0758
 5677W        W20808   4.154   1.371  13.423 -0.2858  0.0017 -0.0055
 5678W        W20809  14.036  14.284  13.688  0.1295 -0.1205 -0.0117
 5679W        W20810  17.669   8.809   3.749  0.1389  0.0950  0.0885
 5680W        W20811  15.954  15.909   0.100  0.1897 -0.2096  0.0490
 5681W        W20812   4.301   9.989   0.728  0.1512  0.1350 -0.0730
 5682W        W20813  17.646   3.311  12.234 -0.1022 -0.0838 -0.0524
 5683W        W20814  12.283  10.570   3.783  0.3292  0.0386  0.2440
 5684W        W20815  17.184   0.235  15.159 -0.0944 -0.0025  0.2171
 5685W        W20816  18.061  11.435  12.481  0.1809  0.0401 -0.1114
 5686W        W20817  10.576  17.084  15.024  0.3379 -0.2426 -0.2780
 5687W        W20818   4.389  10.300   2.528  0.0498  0.2393 -0.2545
 5688W        W20819   3.405  14.023   1.181  0.0044  0.0252 -0.1342
 5689W        W20820   7.471   4.288   1.516 -0.3356  0.2562  0.2156
 5690W        W20821   4.105   5.709   3.283 -0.1404 -0.0779  0.4597
 5691W        W20822  12.064  17.282  11.343  0.1402  0.2982 -0.3937
 5692W        W20823   9.442  12.155   4.609  0.1945  0.3014  0.0565
 5693W        W20824  17.018  18.291  15.507  0.2498 -0.0068  0.3250
 5694W        W20825  13.799  14.165   4.227 -0.4087 -0.3016  0.2218
 5695W        W20826  16.473  13.046   4.973 -0.0003 -0.1285  0.1322
 5696W        W20827  13.238   1.147   1.148 -0.1431  0.0486  0.1752
 5697W        W20828  10.758   9.285  11.458  0.1411  0.1563 -0.2833
 5698W        W20829  10.495  17.521  13.578  0.2720 -0.1685 -0.2337
 5699W        W20830   5.555   7.984  12.806  0.2362 -0.1535  0.1648
 5700W        W20831   1.714   1.255   0.494  0.2360  0.0818 -0.1608
 5701W        W20832  12.448  11.883   1.327  0.1743  0.2313 -0.0045
 5702W        W20833   1.119   8.538   0.200  0.0056  0.2107 -0.0004
 5703W        W20834  17.686   2.241  12.128 -0.0918  0.0075 -0.0050
 5704W        W20835  10.723   1.132  15.110 -0.4375 -0.0677 -0.1428
 5705W        W20836   1.498   8.764   4.605  0.1268 -0.1037 -0.0957
 5706W        W20837   3.852  17.212  12.805  0.2912  0.0024  0.0956
 5707W        W20838   2.834  16.689  11.210 -0.4512 -0.2364  0.1195
 5708W        W20839  11.393   6.000   0.206 -0.2288  0.2548 -0.2544
 5709W        W20840   3.912   1.712  11.621 -0.2607 -0.1074 -0.1148
 5710W        W20841   4.410  14.150  12.396 -0.0105  0.1038 -0.0554
 5711W        W20842   4.663  15.642   4.170  0.2200  0.0739 -0.1126
 5712W        W20843   4.363   2.471  15.141  0.2117 -0.2078 -0.0287
 5713W        W20844   3.327   5.735  10.804  0.1982  0.0957  0.1195
 5714W        W20845  17.098   3.100   1.483 -0.2206 -0.0017 -0.1847
 5715W        W20846   2.096   7.752  15.039  0.2489  0.0500  0.2964
 5716W        W20847   1.758  11.628  11.387  0.0645  0.2411  0.2359
 5717W        W20848   7.916   0.649  15.182 -0.0218 -0.2492 -0.0790
 5718W        W20849  10.267  15.757  12.589  0.0816  0.2692  0.0572
 5719W        W20850   2.675   0.797  13.794 -0.1281 -0.0748 -0.0770
 5720W        W20851   9.802  17.606   3.990  0.1715  0.0605  0.1216
 5721W        W20852  14.950   0.450   3.841 -0.1394  0.0111  0.1622
 5722W        W20853  17.735  10.141   4.240 -0.0806 -0.0045 -0.0268
 5723W        W20854   1.314  10.296  14.055 -0.2227  0.1615 -0.2846
 5724W        W20855   3.992   2.690  10.684  0.0729  0.1004  0.3459
 5725W        W20856  11.714   0.327   1.877  0.0613  0.1806 -0.0232
 5726W        W20857   0.506  10.540  14.678  0.2289  0.3275  0.3403
 5727W        W20858  14.574  13.703  13.351 -0.1271  0.0645 -0.0188
 5728W        W20859  10.420   2.148   1.756  0.4954  0.0110 -0.3519
 5729W        W20860  15.573   2.989   0.256 -0.0932 -0.2169 -0.1665
 5730W        W20861   0.484  17.095   1.465  0.0682 -0.1154  0.4103
 5731W        W20862  17.756   2.107   5.705  0.1936  0.1202  0.0825
 5732W        W20863  13.807  14.300  13.165  0.4053  0.1081  0.1594
 5733W        W20864  13.642  15.769  10.977 -0.0319 -0.4464 -0.0504
 5734W        W20865  16.052  14.887   4.444  0.1520 -0.0210 -0.1538
 5735W        W20866   8.306   5.488   1.694  0.1755 -0.2667  0.3661
 5736W        W20867  13.509  11.886   0.880 -0.0233  0.0871 -0.1036
 5737W        W20868  17.989  10.419   0.665 -0.0313 -0.1874 -0.0337
 5738W        W20869  17.721   9.808  11.887 -0.3255 -0.0188  0.1562
 5739W        W20870   1.456  15.770   5.544 -0.1818 -0.0187 -0.0060
 5740W        W20871  14.114  16.621   0.403 -0.3452  0.1972 -0.0692
 5741W        W20872   6.693   4.442   3.364  0.1247  0.3080 -0.0398
 5742W        W20873   3.111   5.433  12.017  0.1180 -0.1498 -0.2179
 5743W        W20874   1.920   9.146  11.838  0.0976 -0.1953 -0.0086
 5744W        W20875  13.984   7.442   2.462 -0.2255 -0.4935  0.4291
 5745W        W20876  17.194   6.117   2.074 -0.2204  0.1109  0.2165
 5746W        W20877  10.801   0.481  12.407 -0.2358  0.0090  0.1630
 5747W        W20878   9.040   6.964  15.407 -0.3496  0.1769  0.3673
 5748W        W20879   4.400   3.290   6.387  0.2222 -0.0324  0.4244
 5749W        W20880   3.575  17.787   1.161  0.2068 -0.0096  0.3888
 5750W        W20881  11.418  13.615  13.574 -0.2509 -0.0934 -0.0564
 5751W        W20882   6.292  16.337  12.196 -0.1311  0.0127 -0.0868
 5752W        W20883  11.778  11.759  14.801  0.0285  0.0916  0.2674
 5753W        W20884   0.833  12.742   4.413  0.2020 -0.0465 -0.0898
 5754W        W20885   2.287   2.801   6.294 -0.0296  0.0131 -0.1886
 5755W        W20886  15.433  10.854  13.749  0.0508  0.3046  0.2835
 5756W        W20887   7.322   4.931  10.764  0.2300  0.3213  0.2952
 5757W        W20888  11.672   0.620  12.962 -0.0399  0.2027  0.0268
 5758W        W20889  14.325  11.996  15.859  0.2425  0.3301  0.3968
 5759W        W20890  17.830   7.588  15.553 -0.2096 -0.2004 -0.1088
 5760W        W20891   5.983  17.151  13.247 -0.2402 -0.2637 -0.0215
 5761W        W20892  12.301  17.229  13.592 -0.1501  0.1893  0.0014
 5762W        W20893   7.064  12.633  10.811 -0.0180 -0.0480 -0.1164
 5763W        W20894  10.580  12.631  12.856  0.2480 -0.2093 -0.2494
 5764W        W20895  10.835   8.512  12.342  0.1176  0.1018  0.0293
 5765W        W20896  12.206  16.939  11.674 -0.1289 -0.1084  0.1796
 5766W        W20897  15.494  14.418  15.663 -0.0600 -0.1255  0.1485
 5767W        W20898   3.761  12.826   3.917 -0.0688  0.2678  0.0415
 5768W        W20899   4.028  15.974   3.592  0.2479  0.0503  0.3202
 5769W        W20900   5.686   9.962   2.814  0.0035 -0.4380 -0.0163
 5770W        W20901   0.167  17.433   1.219  0.1523  0.1177  0.1610
 5771W        W20902  15.498   9.757  15.436  0.0871 -0.0125 -0.1312
 5772W        W20903  17.980  10.708   2.885 -0.1810 -0.0727 -0.2637
 5773W        W20904  14.348   9.336  13.700 -0.3794  0.0602 -0.0549
 5774W        W20905  17.080   0.728  13.401  0.1185 -0.3426  0.0586
 5775W        W20906   3.581   8.860  11.315  0.0457 -0.1354  0.0750
 5776W        W20907  16.284   0.342   4.284 -0.2089 -0.1693  0.0869
 5777W        W20908   8.565   0.683  12.046 -0.1711 -0.0137  0.0133
 5778W        W20909  16.026  13.481  11.222 -0.0357 -0.1910 -0.1313
 5779W        W20910  14.193  16.831  12.356 -0.1337  0.1508  0.2421
 5780W        W20911   7.608  11.848   2.637  0.2748 -0.4969 -0.0257
 5781W        W20912   5.830  15.561  12.020 -0.0044  0.0102  0.2209
 5782W        W20913  10.572   6.017  14.168 -0.0996  0.2207  0.1425
 5783W        W20914   2.670  12.100   1.932 -0.4197  0.0423  0.0028
 5784W        W20915  17.670   3.539  14.131  0.0620 -0.0256 -0.1513
 5785W        W20916  13.560  15.668   0.880  0.3747 -0.1465 -0.1179
 5786W        W20917   1.367   3.488  12.451  0.0724 -0.0261  0.0620
 5787W        W20918  10.581   3.318   5.232  0.0148  0.2554  0.0555
 5788W        W20919  12.897   0.297  13.593 -0.2105  0.0684  0.3431
 5789W        W20920  15.700  15.264  11.046  0.2293  0.2716  0.0315
 5790W        W20921   0.513  17.045   0.982 -0.0242 -0.1634 -0.2927
 5791W        W20922   4.515   3.750   3.397  0.0575  0.2009 -0.1645
 5792W        W20923   5.724   9.588   9.507 -0.0522  0.3157  0.0784
 5793W        W20924   8.314  10.927  15.622  0.1868 -0.2710 -0.3097
 5794W        W20925   8.523   4.132  14.541  0.0090 -0.0151  0.2951
 5795W        W20926   8.127   8.733  15.306  0.1473  0.2903 -0.0304
 5796W        W20927   7.387   2.134  15.309  0.2216  0.0747  0.5830
 5797W        W20928  13.096   9.051   2.540 -0.1072 -0.1576 -0.3086
 5798W        W20929  17.215   9.211   0.119 -0.1000 -0.1391  0.2378
 5799W        W20930   6.952  12.869   0.750 -0.0011 -0.0007  0.1906
 5800W        W20931  15.877  14.626  15.445  0.1302 -0.0988  0.0735
 5801W        W20932   3.599   1.113   0.364 -0.1392 -0.3074 -0.0894
 5802W        W20933  11.371   3.721  11.203  0.1250  0.1133  0.1569
 5803W        W20934  15.527  11.474  10.813 -0.2501 -0.1546 -0.0329
 5804W        W20935   9.730  11.704  11.926  0.2916  0.1674  0.2192
 5805W        W20936   4.442  17.002  15.993 -0.2626 -0.0164  0.0194
 5806W        W20937  11.968   8.950  11.363  0.2183  0.1147  0.1033
 5807W        W20938   5.699   2.035   5.812  0.0876 -0.0677 -0.0799
 5808W        W20939   7.869   4.732  12.251  0.0498  0.3149 -0.1229
 5809W        W20940  12.570   3.763   4.281 -0.1602  0.1915 -0.0628
 5810W        W20941   6.385   6.405  13.486 -0.0080 -0.0143  0.3539
 5811W        W20942  18.260  15.257   4.506  0.2589  0.0168  0.2890
 5812W        W20943  11.484   7.254  15.993 -0.0351  0.3060  0.1206
 5813W        W20944   2.374  16.767   0.865 -0.0778  0.1343  0.0548
 5814W        W20945  16.742   0.761  10.371  0.0021  0.1530  0.3676
 5815W        W20946  10.925   7.886   2.108 -0.0342  0.3095 -0.2424
 5816W        W20947   8.959  16.654  13.757  0.0285  0.0274 -0.3944
 5817W        W20948   6.954   7.069  13.673  0.0221 -0.4062  0.2202
 5818W        W20949  10.513  16.545  10.909  0.0327  0.1759 -0.1287
 5819W        W20950   9.005  14.648  11.657 -0.2018  0.1154  0.3313
 5820W        W20951   9.702  10.621   1.492  0.2936 -0.1873  0.1841
 5821W        W20952  10.350  16.003  11.053 -0.0053 -0.3663 -0.2465
 5822W        W20953  16.119   1.058   5.434  0.1673 -0.1599  0.1659
 5823W        W20954   5.054  11.498   4.190 -0.2164 -0.2878 -0.0482
 5824W        W20955  15.498   1.059   1.800 -0.1825 -0.3832 -0.1580
 5825W        W20956   3.178  13.883   3.732 -0.3004  0.2375  0.0422
 5826W        W20957  16.671   5.052  12.878  0.2162 -0.0300  0.1308
 5827W        W20958   2.008  12.894   0.310 -0.0007 -0.1190 -0.1623
 5828W        W20959   9.177   4.793  14.018  0.0377 -0.0870 -0.2994
 5829W        W20960  16.588   9.149  13.280 -0.0531  0.3150  0.4506
 5830W        W20961  15.041   2.749  13.715 -0.0429 -0.3667  0.0914
 5831W        W20962  16.115   9.840   4.741 -0.0067  0.2655  0.3007
 5832W        W20963  12.117  15.741   2.941  0.1408  0.2883 -0.4191
 5833W        W20964   1.491  11.596  14.999  0.0451 -0.1000 -0.0486
 5834W        W20965   1.327   7.141  14.202 -0.1789 -0.2657  0.5331
 5835W        W20966   4.193   2.109  14.838 -0.2559  0.1541 -0.0137
 5836W        W20967  16.137  15.611  11.694 -0.0999 -0.1965  0.0860
 5837W        W20968   7.985  15.226  11.979 -0.0009  0.2484  0.1891
 5838W        W20969   9.192   2.403   4.692 -0.0294  0.1268 -0.0014
 5839W        W20970   2.103  15.841  14.100 -0.1577 -0.0550  0.0087
 5840W        W20971  12.657  13.995   3.049 -0.1195  0.1601 -0.1688
 5841W        W20972   2.929  10.317  14.410  0.0244 -0.0449 -0.0669
 5842W        W20973   8.384   2.494  10.644 -0.0484 -0.1545  0.2088
 5843W        W20974  17.897   9.399   2.497 -0.3387 -0.1155 -0.3904
 5844W        W20975  14.344   4.393  14.789  0.1589 -0.0932 -0.3938
 5845W        W20976   8.181   5.364   2.169 -0.1054  0.0666  0.1580
 5846W        W20977   1.014  14.263  13.529  0.2831 -0.4352 -0.3239
 5847W        W20978   3.395   8.743  15.618 -0.1002 -0.0219  0.2195
 5848W        W20979  17.154  16.947   4.595 -0.2651  0.0705  0.0132
 5849W        W20980  10.265  11.876  11.885  0.1897  0.1451 -0.0977
 5850W        W20981   0.828   0.580  13.182 -0.1294  0.1016 -0.0565
 5851W        W20982   2.755  11.243  13.433 -0.2012  0.0054  0.1415
 5852W        W20983  10.433   9.511  13.654  0.0337  0.1497  0.1817
 5853W        W20984  17.846   8.040  14.786 -0.0131 -0.0536 -0.2045
 5854W        W20985  12.004   7.548   3.523 -0.2027  0.2403  0.2449
 5855W        W20986   5.622  13.501   1.745 -0.2379  0.0282  0.2181
 5856W        W20987   7.054  18.327   3.127 -0.2273 -0.2526 -0.1476
 5857W        W20988   2.168  14.933   3.877  0.1516  0.1819 -0.1453
 5858W        W20989  14.929  11.524   5.645  0.0957  0.0656 -0.1630
 5859W        W20990   5.055   9.472  13.619 -0.0443 -0.0817 -0.1054
 5860W        W20991   4.893  10.434   2.457  0.1996  0.0480 -0.0646
 5861W        W20992   3.950  10.729  10.359  0.0082 -0.3447  0.3830
 5862W        W20993   8.676   0.513  11.503  0.1860  0.3939  0.1005
 5863W        W20994   1.626  18.081   3.757 -0.0671 -0.1640 -0.2171
 5864W        W20995   6.785   5.281   4.966 -0.2966 -0.0093  0.0957
 5865W        W20996  12.234   7.829  14.979  0.1744  0.1624  0.0694
 5866W        W20997  18.365   9.312   4.331  0.2000  0.0625 -0.1114
 5867W        W20998   0.370   0.499   4.832 -0.1005 -0.0835  0.0868
 5868W        W20999   2.116   6.416  11.716 -0.1527  0.1532 -0.0974
 5869W        W21000   5.267   3.117  15.094  0.3751 -0.0484  0.3358
 5870W        W21001  10.771   3.181  15.366  0.2454 -0.1076 -0.3475
 5871W        W21002  10.893   9.483   5.140  0.0449  0.0248 -0.3033
 5872W        W21003   1.274  13.129  10.903  0.1173 -0.2535  0.0161
 5873W        W21004  12.464   1.795  11.095 -0.0860  0.1023 -0.2101
 5874W        W21005   8.562   7.745  10.089  0.0448 -0.0920 -0.1093
 5875W        W21006   4.885   1.351  14.951 -0.1782  0.1149  0.0201
 5876W        W21007   7.718   2.380   0.093 -0.0705  0.1918  0.0639
 5877W        W21008  14.587  15.585   1.426  0.2008  0.1564  0.0707
 5878W        W21009   4.103   9.550  12.345 -0.0786  0.1002 -0.0002
 5879W        W21010  16.751   6.797   1.813  0.1284 -0.2511 -0.1821
 5880W        W21011  13.336  10.242  15.568  0.1655  0.1522 -0.0678
 5881W        W21012   4.959  11.824  16.085 -0.0613 -0.2417  0.0600
 5882W        W21013   5.785   4.154   5.185 -0.2986 -0.0468  0.1081
 5883W        W21014  14.894  10.605   5.549 -0.2083 -0.0341 -0.2384
 5884W        W21015  12.760  10.208   2.496  0.1433 -0.0739  0.2681
 5885W        W21016   9.008   4.599  11.463  0.1310 -0.2938 -0.2613
 5886W        W21017   7.317  14.254  11.242  0.1131 -0.1070 -0.0281
 5887W        W21018   1.714  12.961  11.229  0.0171  0.1702 -0.0984
 5888W        W21019  10.684   4.834   4.549 -0.2509  0.3163  0.2029
 5889W        W21020   8.731  16.519   2.706  0.1456  0.0834 -0.0484
 5890W        W21021   1.280   5.373  11.592  0.1555  0.1901 -0.2414
 5891W        W21022  17.544   8.844  11.776 -0.0844 -0.2000  0.3900
 5892W        W21023  11.471   0.248  15.676  0.1246  0.4161 -0.1824
 5893W        W21024   3.129  17.328  14.298 -0.1298 -0.0359  0.0057
 5894W        W21025   6.868  15.319   4.892  0.3326  0.1763 -0.0930
 5895W        W21026  11.185   0.589   0.740  0.0786 -0.2615  0.1304
 5896W        W21027  12.465  17.430   4.316 -0.1827  0.3008 -0.0861
 5897W        W21028  15.648  12.114  12.759  0.0042 -0.0426  0.3949
 5898W        W21029   5.223   7.704   1.801 -0.0924 -0.1403  0.0212
 5899W        W21030   8.379   7.360   1.534  0.1038  0.1211 -0.0710
 5900W        W21031   8.506   6.742  15.226 -0.4044 -0.0508 -0.3381
 5901W        W21032   5.401   1.499   0.031 -0.0479  0.1326 -0.1454
 5902W        W21033  10.789  10.722   5.387  0.3633 -0.0243  0.3422
 5903W        W21034  16.196  15.353   3.047 -0.2796  0.1299  0.1595
 5904W        W21035  16.796  13.065  14.761  0.0232  0.3278 -0.2475
 5905W        W21036   1.010   8.819  12.651 -0.0329 -0.3001  0.1819
 5906W        W21037   7.691   8.773   4.412  0.1435  0.0319 -0.1583
 5907W        W21038  12.226  16.848  15.660 -0.0231  0.3169 -0.1955
 5908W        W21039  15.735  17.740   4.963 -0.0619 -0.2269 -0.1552
 5909W        W21040  15.027  18.185   3.095  0.2402 -0.0878  0.2086
 5910W        W21041   7.640   8.372   0.729  0.0683 -0.1682  0.0184
 5911W        W21042   1.759   9.619  12.008  0.0153  0.0175 -0.0473
 5912W        W21043  10.048   7.583  14.845  0.0954  0.4055  0.0890
 5913W        W21044  12.707   8.743   5.338 -0.3831 -0.1647 -0.1051
 5914W        W21045  10.812   0.841   6.345 -0.0560 -0.0184  0.1427
 5915W        W21046  15.058   0.687   3.437 -0.0107 -0.1702 -0.0851
 5916W        W21047   5.055  10.591  13.652  0.1051  0.1139  0.1115
 5917W        W21048  11.669  16.466  15.740  0.0929 -0.1721 -0.1431
 5918W        W21049   0.508   2.476   4.622  0.0647 -0.1115  0.0965
 5919W        W21050   3.964  10.539   5.448  0.1152  0.2247 -0.0596
 5920W        W21051   2.646  14.028   3.156  0.0725 -0.1357  0.4314
 5921W        W21052   9.101   5.990   5.877 -0.0914  0.0937  0.1000
 5922W        W21053   8.308  16.209  15.458  0.1937 -0.1771 -0.0544
 5923W        W21054  10.393   9.350   2.253 -0.0547  0.0361  0.1002
 5924W        W21055  14.274   0.254   1.847  0.2034  0.0490  0.0349
 5925W        W21056  17.534  11.329  11.609  0.1549  0.0100 -0.1552
 5926W        W21057  11.776  13.947  13.568 -0.1553  0.1709 -0.0163
 5927W        W21058  12.326   7.537   4.689 -0.1124 -0.3264 -0.0314
 5928W        W21059   5.667   6.832   2.833 -0.0206  0.0954 -0.0235
 5929W        W21060  17.131   9.724  14.637  0.0708  0.2042  0.2199
 5930W        W21061  15.527  16.171  11.417 -0.1175 -0.0862  0.2310
 5931W        W21062  10.647   4.047   5.670  0.0142  0.0398  0.0890
 5932W        W21063   8.780   7.588  10.908 -0.1166 -0.1568  0.2490
 5933W        W21064   3.526  11.833  11.115  0.0010  0.0982 -0.1737
 5934W        W21065  13.155   2.756  12.715 -0.1542 -0.0073  0.1758
 5935W        W21066  16.762   2.027   3.189  0.4679  0.3318  0.0764
 5936W        W21067   4.206  11.812  12.460 -0.0324 -0.1347  0.1698
 5937W        W21068  15.154   9.010   4.220  0.1991 -0.0821  0.0194
 5938W        W21069   8.573  10.781  11.168 -0.0022 -0.2062  0.4443
 5939W        W21070  14.543  14.771   3.892 -0.1297  0.2806 -0.0697
 5940W        W21071  16.399   7.674   3.755  0.3029 -0.0785  0.1673
 5941W        W21072  10.190  17.840   1.478 -0.0984 -0.2213  0.0990
 5942W        W21073  17.107  17.090  13.813  0.0693  0.1708 -0.2249
 5943W        W21074   7.892   7.904   5.793  0.0453  0.0187 -0.1550
 5944W        W21075  13.973   9.336  15.918 -0.0996 -0.2164  0.3314
 5945W        W21076  17.109  12.463   5.058 -0.0836  0.2825  0.0973
 5946W        W21077  14.133   5.048  15.440  0.2434  0.2008 -0.1678
 5947W        W21078   2.832   6.625   0.879 -0.0404 -0.0499  0.0727
 5948W        W21079   0.047  13.030   4.582  0.0063  0.0747 -0.1462
 5949W        W21080  18.041   7.557  14.543  0.0307  0.0818  0.0111
 5950W        W21081  10.486  14.629  14.818  0.0168 -0.2091 -0.1704
 5951W        W21082  17.465   8.442   4.415  0.2898 -0.2332  0.0321
 5952W        W21083   7.789  16.685  13.039  0.0112  0.3240 -0.0872
 5953W        W21084   7.409   9.600  12.387  0.1666  0.3513 -0.0977
 5954W        W21085   6.434   7.000  12.138 -0.2564  0.0621 -0.3879
 5955W        W21086   5.466   9.373  12.319  0.2526  0.1762  0.1235
 5956W        W21087   0.158   2.196  12.729  0.1021 -0.1289  0.0922
 5957W        W21088  11.320   9.792   1.349  0.0474  0.0855 -0.3319
 5958W        W21089  14.510   2.637   4.035 -0.2904  0.1576  0.0817
 5959W        W21090   4.661  17.161  11.330 -0.1680 -0.1213  0.0574
 5960W        W21091   8.707   3.193  14.642  0.0211 -0.0448  0.1831
 5961W        W21092  10.621   0.671  14.175 -0.0408 -0.1944 -0.0610
 5962W        W21093  11.865  14.742   2.317  0.1135 -0.0204  0.0174
 5963W        W21094   1.952   5.586  12.764 -0.1905 -0.0215  0.0531
 5964W        W21095  13.649  14.934   1.289 -0.0074  0.1595 -0.1232
 5965W        W21096  16.636  14.582   4.416 -0.0852  0.0556 -0.0110
 5966W        W21097  15.110   6.931   1.840  0.2969 -0.1551  0.0647
 5967W        W21098   3.508  15.550   5.227 -0.2849 -0.1873  0.1820
 5968W        W21099  17.968  15.229  12.257 -0.2286 -0.1111  0.2451
 5969W        W21100   0.638   9.101   5.960  0.1534  0.0026  0.0444
 5970W        W21101  12.380   8.737  15.040  0.2347  0.2985  0.1571
 5971W        W21102  14.605   0.375   0.755 -0.1519 -0.0762 -0.0360
 5972W        W21103  14.509   6.626  11.950 -0.0191 -0.2145  0.4698
 5973W        W21104   5.191  18.060   0.737 -0.2277  0.3169 -0.0497
 5974W        W21105   7.814  10.723   5.590 -0.0649  0.2553 -0.2194
 5975W        W21106  16.869   2.420  15.130  0.1953 -0.2509  0.1380
 5976W        W21107  14.002  15.659  13.035 -0.1527  0.1177  0.0341
 5977W        W21108   8.590  14.483   1.499  0.0309 -0.2123  0.0465
 5978W        W21109   0.406  12.638  15.613 -0.0538 -0.1401 -0.1112
 5979W        W21110   8.939   4.951   3.437 -0.2345  0.0911  0.5159
 5980W        W21111   8.577   2.817  11.063  0.2214 -0.0322 -0.0794
 5981W        W21112   7.492  13.318  11.532  0.1613  0.2668  0.0958
 5982W        W21113   6.045  14.806   4.690  0.4283 -0.1461  0.0761
 5983W        W21114   4.486  17.451  13.778  0.2747 -0.0504  0.2833
 5984W        W21115  10.833   9.774  11.887  0.2031 -0.0559 -0.1334
 5985W        W21116  15.293   2.624  15.061 -0.0054  0.1973  0.0971
 5986W        W21117  15.373  18.007   1.590 -0.1554  0.3234 -0.1137
 5987W        W21118  13.684  12.979  15.556 -0.0869 -0.0210  0.0337
 5988W        W21119   9.810   1.538  12.584 -0.0434 -0.1193  0.0833
 5989W        W21120   9.375  11.208   2.164  0.1621  0.0973  0.1662
 5990W        W21121  16.663  15.033  12.773  0.0482  0.4487  0.1330
 5991W        W21122  15.700   7.175   3.250  0.3107  0.0970 -0.1803
 5992W        W21123  10.627   0.031  12.227  0.0086 -0.0209 -0.1107
 5993W        W21124   9.035  18.070  13.927 -0.4807 -0.0550  0.0089
 5994W        W21125  17.520   1.576  10.598 -0.1820 -0.1865  0.2567
 5995W        W21126  10.452   9.794   3.695  0.1002  0.1444  0.0567
 5996W        W21127  13.815  16.010  13.363 -0.1244  0.1082  0.1016
 5997W        W21128   0.569  16.855   4.995 -0.4305 -0.1219  0.2091
 5998W        W21129   2.243  11.773   0.077  0.1003  0.2211  0.1704
 5999W        W21130  14.827   2.336   4.777 -0.2725  0.1107 -0.4784
 6000W        W21131  13.727  16.855  11.326 -0.0823  0.0914  0.3295
 6001W        W21132   2.612   5.413   2.385  0.1434 -0.2583  0.1253
 6002W        W21133  12.612   5.234  12.770  0.1539 -0.2056  0.0707
 6003W        W21134   7.715  15.007   2.562  0.0994  0.1402 -0.1565
 6004W        W21135  16.484  10.466   3.664 -0.0163  0.1417 -0.0303
 6005W        W21136  10.427   8.404  11.619 -0.0325 -0.1564  0.1183
 6006W        W21137   7.149   6.607  16.060  0.1267  0.0281 -0.0598
 6007W        W21138  11.514   3.432   4.791  0.1518 -0.1584 -0.0872
 6008W        W21139   7.827  17.171  13.569 -0.0095  0.1577 -0.2032
 6009W        W21140  13.895  14.476   3.769  0.1431 -0.0063  0.0352
 6010W        W21141   3.130  13.704   2.421  0.0955  0.0791  0.0448
 6011W        W21142   5.528  13.384   0.315  0.1033 -0.0545 -0.1096
 6012W        W21143  12.716   7.632   1.822 -0.2748  0.1189 -0.0409
 6013W        W21144   0.410   5.353   1.009 -0.2432 -0.0178 -0.1474
 6014W        W21145  13.149   9.842   5.282 -0.0578 -0.1946  0.3078
 6015W        W21146  11.316  18.251  13.622  0.1061 -0.2688 -0.1610
 6016W        W21147  17.020   5.806  14.840  0.1141 -0.2800 -0.0592
 6017W        W21148   5.411  11.653   2.409 -0.3047 -0.0830 -0.1458
 6018W        W21149  17.303  11.142   5.905  0.0277  0.0442  0.0374
 6019W        W21150  11.990  11.479   0.967  0.2701 -0.0843  0.3544
 6020W        W21151   9.855   2.468  11.634  0.2357 -0.1309 -0.0431
 6021W        W21152   1.199  10.151  11.578 -0.1224  0.2016 -0.0169
 6022W        W21153  12.814  14.012  15.119 -0.2535 -0.2174  0.1292
 6023W        W21154   0.794   6.980   4.969  0.2345  0.1537 -0.0014
 6024W        W21155   9.364   7.750   5.001  0.2072  0.1128  0.1643
 6025W        W21156  10.679   6.170  15.399  0.0693 -0.0419 -0.0638
 6026W        W21157  13.079   5.150  11.198  0.1362 -0.1852  0.3359
 6027W        W21158   8.177  10.785  13.358 -0.1184  0.3882  0.1126
 6028W        W21159  18.184   6.682   3.325 -0.1389  0.0523  0.0818
 6029W        W21160  16.447  13.423  15.990  0.2133  0.3012 -0.1239
 6030W        W21161  14.708   5.190   0.078 -0.2669 -0.1568 -0.0623
 6031W        W21162  12.509   9.288   0.647 -0.0203  0.1612  0.1489
 6032W        W21163   4.732  11.273   5.288  0.0453  0.0341 -0.1297
 6033W        W21164   7.869   9.292  12.403 -0.2838  0.2001 -0.0288
 6034W        W21165   4.045   0.301   2.982  0.0354  0.1206 -0.2449
 6035W        W21166  14.312  16.850   6.275 -0.2617 -0.3029  0.3532
 6036W        W21167  14.351  13.626  10.764  0.0640 -0.1796 -0.0869
 6037W        W21168   7.204  14.577  10.523  0.1531  0.0268 -0.1587
 6038W        W21169   3.283  17.420  11.304 -0.2384  0.3537  0.1978
 6039W        W21170  10.061   4.287  15.697 -0.2614  0.0177 -0.1637
 6040W        W21171   0.936  11.703  16.071  0.1709  0.1905  0.1341
 6041W        W21172   2.006  18.263  12.005 -0.0111 -0.2948  0.1454
 6042W        W21173   7.123  12.034   0.173 -0.0684 -0.1900 -0.1748
 6043W        W21174  10.260  11.178  15.768 -0.3628 -0.0018 -0.0317
 6044W        W21175   5.324   0.468  16.121 -0.0779  0.0096 -0.2008
 6045W        W21176   8.925  17.627  12.724 -0.1822  0.0748  0.0072
 6046W        W21177  16.511   1.871   5.426 -0.0621  0.0059  0.2260
 6047W        W21178   6.964  11.490   3.953 -0.0545  0.0417 -0.1811
 6048W        W21179   9.581  10.120   5.476  0.0056  0.0268  0.2230
 6049W        W21180  11.608   0.147  13.211 -0.0902 -0.0173 -0.1059
 6050W        W21181  10.880  12.067   4.733  0.0476 -0.2732  0.2551
 6051W        W21182   0.597   4.298   4.462  0.3290 -0.1507  0.1625
 6052W        W21183   6.633   8.972  12.419 -0.0083 -0.1879  0.0228
 6053W        W21184   9.742   1.867  11.312  0.0841 -0.0315 -0.2544
 6054W        W21185   8.193   9.973  14.707 -0.1613  0.0076 -0.3693
 6055W        W21186  10.521   9.982   0.022 -0.0281 -0.3014 -0.1222
 6056W        W21187  18.036   2.037   0.664 -0.0814  0.0137 -0.0200
 6057W        W21188   0.758   0.027  11.800 -0.1126  0.0063  0.0889
 6058W        W21189  13.937  12.992  12.384 -0.4724  0.0046 -0.3162
 6059W        W21190   9.831  13.828   0.085  0.0119  0.2421 -0.2600
 6060W        W21191  15.764  12.345   0.196  0.0618 -0.1464 -0.2885
 6061W        W21192   7.571   0.531   3.348  0.1640 -0.3904  0.1488
 6062W        W21193   7.183   3.858  11.562  0.0793  0.0515 -0.1520
 6063W        W21194   4.971  12.195   0.885  0.0514  0.2118 -0.1734
 6064W        W21195   7.763  14.236   3.289  0.0357 -0.0344 -0.0707
 6065W        W21196  14.049  16.061   4.584  0.0602 -0.0181  0.0562
 6066W        W21197  15.423   5.516  11.535 -0.0441  0.0076 -0.2423
 6067W        W21198  11.321   1.769  13.245 -0.1821  0.0722  0.2548
 6068W        W21199   6.831  14.327  13.079  0.1470 -0.3734  0.1151
 6069W        W21200  14.306   5.609  15.454 -0.1043  0.2324  0.2645
 6070W        W21201   2.679   3.831  12.917 -0.2295 -0.1395 -0.2247
 6071W        W21202   2.245   4.397   3.313  0.0024  0.1134  0.2520
 6072W        W21203  10.991   3.854   3.710  0.2721  0.0289  0.0207
 6073W        W21204  11.391   0.667   2.512  0.0242  0.1542  0.2222
 6074W        W21205  14.478   6.648  11.470 -0.0225  0.1411 -0.1581
 6075W        W21206  15.368   2.117   3.587 -0.1422  0.0846  0.1775
 6076W        W21207  14.764   1.074   3.296  0.1544 -0.0858 -0.1301
 6077W        W21208   4.833   9.011   5.480  0.1210  0.2319  0.1600
 6078W        W21209  16.900  10.939  13.668  0.0427 -0.0391 -0.0525
 6079W        W21210   2.532  15.185   1.311  0.0213 -0.1488 -0.1686
 6080W        W21211  13.536  13.777  15.296 -0.0863 -0.0310  0.0116
 6081W        W21212   1.992   7.672   1.435 -0.1437 -0.0334 -0.1918
 6082W        W21213  15.445   8.319   5.935  0.0334  0.0708 -0.3103
 6083W        W21214   7.694   4.226  14.564 -0.2559  0.0968  0.1641
 6084W        W21215   7.014   4.425   5.573 -0.1646 -0.0716 -0.4817
 6085W        W21216  10.929   6.349  12.998  0.0857 -0.0008 -0.1117
 6086W        W21217  13.331  11.460   3.114 -0.1310 -0.1462 -0.0869
 6087W        W21218  13.560   3.611  11.551 -0.1054 -0.0548  0.1377
 6088W        W21219  10.261  10.863   1.760  0.1809  0.0988 -0.1074
 6089W        W21220   3.316  14.719  11.673  0.2857  0.1054 -0.4790
 6090W        W21221  10.954   6.786  13.348 -0.0177 -0.1441  0.4680
 6091W        W21222  13.600   2.777  12.475  0.0998 -0.1558  0.0708
 6092W        W21223   2.276   9.878   0.489  0.0826 -0.0979  0.1500
 6093W        W21224  10.812  10.319   5.089 -0.1100  0.3014 -0.1066
 6094W        W21225   5.235   5.941  11.940 -0.1519 -0.0577  0.0269
 6095W        W21226  10.938   8.657   0.310  0.1526  0.0138 -0.1929
 6096W        W21227  16.691   6.315   1.654 -0.0591 -0.1224  0.2205
 6097W        W21228   9.548  12.041  15.899 -0.0819  0.1970 -0.2011
 6098W        W21229  17.787   4.040  13.071 -0.1123  0.1164  0.1446
 6099W        W21230  10.000   0.593  13.485  0.0682  0.0749 -0.3759
 6100W        W21231   7.326   8.383   4.361 -0.1300 -0.0750 -0.1937
 6101W        W21232  16.195  17.151   2.638 -0.0253 -0.1051  0.0305
 6102W        W21233   8.419  11.694   1.653  0.0873 -0.1816 -0.0428
 6103W        W21234  14.033   6.020  12.966  0.0622 -0.1871 -0.2022
 6104W        W21235   5.382   0.868   0.462  0.0986  0.1681  0.1190
 6105W        W21236   1.465   7.544  12.004 -0.3054 -0.0496 -0.2018
 6106W        W21237   8.471  10.539  13.662 -0.0429 -0.0868 -0.1067
 6107W        W21238   0.018   9.021  13.333  0.2556  0.1656  0.1740
 6108W        W21239   2.831   0.659   1.038  0.3326  0.0074  0.1909
 6109W        W21240   8.577   7.805   2.493  0.3132 -0.1465  0.4081
 6110W        W21241  12.658  13.221  13.123  0.1247  0.1162 -0.1677
 6111W        W21242   7.673  12.781   5.010 -0.0337 -0.0213  0.1895
 6112W        W21243  10.602   3.869   2.616  0.2075  0.2558 -0.1164
 6113W        W21244   1.356   4.880   2.800 -0.2073  0.1476  0.0363
 6114W        W21245   3.448  18.245   4.328  0.1968 -0.0604 -0.0503
 6115W        W21246   6.364  12.870  15.718 -0.0767  0.1581 -0.1218
 6116W        W21247   4.145   7.061   0.801  0.0121 -0.1156  0.3065
 6117W        W21248  11.724  16.403   0.873 -0.1313  0.0197  0.0537
 6118W        W21249  12.389   0.567  13.607 -0.0523 -0.0725 -0.1655
 6119W        W21250  11.844   9.739  11.697 -0.1519 -0.0599 -0.2640
 6120W        W21251   8.983  15.666  15.832 -0.0067 -0.2125  0.1008
 6121W        W21252  15.753   7.104   2.379 -0.1243  0.2490 -0.1752
 6122W        W21253   4.391   7.764  13.692  0.0654  0.0094  0.3960
 6123W        W21254   6.807  12.399  12.363 -0.1273 -0.1367  0.2380
 6124W        W21255   2.741   8.364  10.898  0.2350 -0.0564  0.2092
 6125W        W21256   4.070   6.005   1.668 -0.1578 -0.0458 -0.0517
 6126W        W21257   1.051  15.570   3.988 -0.0048  0.2734  0.3136
 6127W        W21258   0.761   6.260  13.697  0.3458 -0.4003 -0.2033
 6128W        W21259  12.349  18.202   2.070  0.2358 -0.0458  0.0899
 6129W        W21260   1.663   2.031   3.342  0.2157 -0.2631 -0.0091
 6130W        W21261  15.880  15.436   2.652  0.0531  0.1849 -0.0272
 6131W        W21262  12.848   2.907   0.801 -0.2303  0.0502  0.0041
 6132W        W21263  11.739  12.064   4.773  0.1137  0.2303  0.3220
 6133W        W21264  12.141   8.246  15.205  0.3434  0.0173 -0.0283
 6134W        W21265  16.117   7.248  11.223  0.0603 -0.4447 -0.2731
 6135W        W21266  14.767  16.678  12.981 -0.3789 -0.1403  0.0307
 6136W        W21267  16.562   3.902  12.749  0.1581  0.1982 -0.1258
 6137W        W21268   5.498   9.845   3.782  0.1767 -0.0594 -0.1651
 6138W        W21269   8.752   1.232   3.100  0.0428 -0.4879  0.2828
 6139W        W21270  13.209   2.684  14.330 -0.4289  0.1512 -0.1330
 6140W        W21271  11.823   4.836   5.544  0.1543  0.2301 -0.0720
 6141W        W21272  10.300  12.630  13.992  0.2617 -0.0224  0.4466
 6142W        W21273   7.086   1.262  15.460  0.1550 -0.1742 -0.0878
 6143W        W21274  18.149   7.492   0.932 -0.3013  0.0875  0.0923
 6144W        W21275  10.219   1.635  11.210  0.1945  0.2249  0.0891
 6145W        W21276  15.019  16.332   2.193 -0.2511 -0.3332 -0.1788
 6146W        W21277  13.599   1.789  14.018  0.0197 -0.2626  0.0983
 6147W        W21278   0.854  12.465  13.716 -0.0811 -0.0285 -0.0906
 6148W        W21279  10.607  13.502   2.561 -0.0446 -0.0604 -0.1114
 6149W        W21280  12.518   7.790  12.166  0.0485 -0.0197 -0.1186
 6150W        W21281   3.108  18.273   3.896  0.1482  0.0101 -0.3050
 6151W        W21282   8.589  17.430   0.979  0.0975 -0.2580  0.0908
 6152W        W21283  15.739   2.297  10.445 -0.1404 -0.4126 -0.1211
 6153W        W21284   2.615  17.216   2.307  0.2032  0.1274  0.4597
 6154W        W21285  12.578   0.739   2.198 -0.2140  0.0244 -0.1243
 6155W        W21286  16.989  11.644   1.659  0.1078 -0.1915 -0.3199
 6156W        W21287   2.024  10.736  13.108 -0.0953 -0.3491 -0.3336
 6157W        W21288  18.328   7.576   4.432 -0.1025 -0.1338 -0.1069
 6158W        W21289  14.209   2.732  12.452  0.1241  0.3319  0.0139
 6159W        W21290   5.701   2.333   3.521  0.0265 -0.1691 -0.0944
 6160W        W21291   7.965  14.466  13.401  0.0344 -0.0658  0.2182
 6161W        W21292   2.125  11.688  11.756 -0.0050 -0.1545 -0.1905
 6162W        W21293   1.679   0.671  12.774  0.1229 -0.2431 -0.0532
 6163W        W21294   1.404  10.648   2.956  0.0664 -0.1199  0.1677
 6164W        W21295  17.945  18.311   2.033 -0.0055 -0.0164  0.2143
 6165W        W21296   5.483  14.472   3.898  0.1860 -0.2406  0.2797
 6166W        W21297  12.569   0.054   0.315 -0.1197 -0.0304  0.1195
 6167W        W21298   1.243  15.858  14.209  0.3110 -0.1946 -0.0010
 6168W        W21299  12.716   1.460  15.466 -0.2269 -0.1138 -0.2153
 6169W        W21300  16.870  18.006   4.209 -0.2916  0.1901 -0.3024
 6170W        W21301   7.738  10.938  15.525  0.2792  0.1207  0.0979
 6171W        W21302  11.468  11.419  10.836  0.1913 -0.3013 -0.2371
 6172W        W21303   9.711  11.947  14.897  0.1342  0.1140 -0.2316
 6173W        W21304  12.949  15.805   3.915 -0.1548 -0.0934 -0.0403
 6174W        W21305   2.830   4.184  14.237 -0.0426  0.0788 -0.2024
 6175W        W21306  15.659  14.347   6.056 -0.0672  0.1940  0.0794
 6176W        W21307  11.486  16.635   1.604 -0.0976 -0.0483  0.1232
 6177W        W21308  16.139  14.804  14.515 -0.0189 -0.0301 -0.0782
 6178W        W21309  14.282  11.173   0.936  0.3035 -0.0719 -0.1428
 6179W        W21310   5.248  17.238  10.950  0.1407  0.0678 -0.1068
 6180W        W21311  17.595  11.179  10.737 -0.0801  0.1815 -0.3172
 6181W        W21312  12.684  10.900   4.560 -0.2426 -0.0764  0.1525
 6182W        W21313   3.291   1.250  15.346  0.0369 -0.1936  0.1190
 6183W        W21314   3.787  12.435  13.275  0.3699 -0.0473  0.0779
 6184W        W21315   2.200  10.262  15.492 -0.0230 -0.2188  0.1471
 6185W        W21316  15.496   8.778   1.354 -0.0043 -0.1156  0.0149
 6186W        W21317   2.359   9.236  12.888 -0.2809  0.0830 -0.1102
 6187W        W21318   8.486   4.104  12.377  0.3622  0.0644  0.3036
 6188W        W21319   5.982   0.890   0.486  0.2119  0.2770 -0.0066
 6189W        W21320  16.288   7.671   4.814 -0.0239 -0.1615 -0.4402
 6190W        W21321   1.767   2.598   4.811  0.0430  0.0848 -0.0873
 6191W        W21322  14.279   9.075  10.617  0.0280 -0.0284 -0.3416
 6192W        W21323   2.018   4.775  15.976  0.2460  0.0983 -0.0369
 6193W        W21324   3.029  12.425   1.797  0.1661  0.0619  0.3629
 6194W        W21325   0.460   6.028  11.940 -0.2435 -0.2892  0.1958
 6195W        W21326  14.507  12.569  11.262  0.0922  0.2167 -0.2324
 6196W        W21327   4.435   1.634  10.388 -0.0874  0.0814 -0.3259
 6197W        W21328   3.885  17.415  12.257 -0.3008  0.3598  0.1889
 6198W        W21329   9.594   9.859  14.759 -0.0035 -0.0781 -0.1410
 6199W        W21330  16.181  10.406  10.802  0.0431  0.2259 -0.0108
 6200W        W21331   6.607   7.444   4.255 -0.0146 -0.0117 -0.0600
 6201W        W21332   2.848  10.274   2.040 -0.3799 -0.1751  0.0992
 6202W        W21333   6.612   5.221  15.467 -0.0850 -0.4011 -0.1655
 6203W        W21334   0.137   9.709  13.609  0.1991  0.1196  0.0800
 6204W        W21335   7.289   1.862  12.937 -0.2256 -0.1271  0.4451
 6205W        W21336   8.453   5.855  12.603 -0.0751  0.0304  0.1663
 6206W        W21337   1.029  11.005   4.907 -0.0017  0.0999 -0.1660
 6207W        W21338  14.575   8.974   4.406  0.1018  0.1068  0.2160
 6208W        W21339  11.007  16.853  14.848  0.1539  0.1537  0.1893
 6209W        W21340   6.539   8.618   1.990  0.0870 -0.3341  0.0295
 6210W        W21341  14.781   0.607   2.463 -0.0039 -0.3372  0.1495
 6211W        W21342   1.145   8.692  11.257  0.0348 -0.0279  0.0847
 6212W        W21343  18.067  12.515  13.974 -0.1767  0.1464 -0.0759
 6213W        W21344   5.650   4.231   5.663 -0.3321 -0.2686 -0.2545
 6214W        W21345   0.421   2.648   0.816  0.2454  0.0427 -0.1536
 6215W        W21346   1.639  10.540   2.501 -0.0448 -0.3654  0.1674
 6216W        W21347   3.850   9.516   1.473 -0.3704 -0.3095 -0.0461
 6217W        W21348   7.260   4.037  10.474  0.0516 -0.3219 -0.0281
 6218W        W21349   7.807   1.968  15.414 -0.0625 -0.2033 -0.1177
 6219W        W21350  17.650   6.088   0.607  0.1347  0.0063  0.1259
 6220W        W21351   6.174   0.548  14.243 -0.0218 -0.0114  0.2152
 6221W        W21352  15.002   2.234   3.206 -0.0887 -0.0319 -0.1080
 6222W        W21353  16.103  16.801  15.884 -0.0702 -0.0003  0.1639
 6223W        W21354   4.638   9.791   0.325  0.2024 -0.0325  0.1348
 6224W        W21355   8.235  14.348  12.212  0.0471  0.1459 -0.3338
 6225W        W21356   5.412   0.675   2.012  0.0423 -0.2327 -0.3610
 6226W        W21357  13.212  14.307   4.733  0.1213 -0.1514 -0.1056
 6227W        W21358   3.424   0.263   0.288  0.0178  0.2228  0.1935
 6228W        W21359  17.375  11.333  13.735 -0.0904  0.2106  0.1687
 6229W        W21360  15.724   5.498   0.786  0.0603 -0.1149 -0.3328
 6230W        W21361  16.098  18.009   2.771 -0.1570  0.0843  0.2465
 6231W        W21362   8.259  15.778   0.149  0.0975 -0.0893  0.2392
 6232W        W21363   8.541  14.592   3.846 -0.3125  0.0695 -0.0826
 6233W        W21364   0.685  12.343  11.085 -0.1938  0.0225 -0.1355
 6234W        W21365  16.921   4.186  15.028 -0.1300  0.0108 -0.3122
 6235W        W21366  12.782   2.978   4.265  0.2956  0.2372 -0.0651
 6236W        W21367   6.629  14.824  12.989 -0.1673  0.0939 -0.1104
 6237W        W21368   8.524  15.815  14.649  0.0526 -0.1952 -0.1944
 6238W        W21369   9.346  13.995   2.685  0.3193  0.2424  0.1900
 6239W        W21370  11.587  14.658   0.731 -0.3207  0.1071  0.1293
 6240W        W21371   3.730  14.954  10.813  0.2505  0.2532 -0.0307
 6241W        W21372  14.713  18.236  15.182 -0.1042 -0.3891  0.1044
 6242W        W21373   1.258  11.643   0.837 -0.1408 -0.1011  0.0400
 6243W        W21374   4.429  17.612   4.069  0.0292 -0.0398 -0.0380
 6244W        W21375  13.505   4.823  15.731 -0.0072  0.1562  0.0244
 6245W        W21376  15.122   3.244  11.468 -0.0106  0.1560  0.2358
 6246W        W21377  12.986  11.683  11.856  0.2581 -0.3924 -0.3131
 6247W        W21378  10.299  16.638   0.491 -0.1975  0.1675  0.2953
 6248W        W21379   0.109  14.083   2.960  0.0823 -0.2547  0.1195
 6249W        W21380  16.895   2.123   5.164  0.0328  0.3101 -0.1492
 6250W        W21381  18.176  13.836   3.708  0.2271 -0.0440  0.1527
 6251W        W21382  13.401  13.668  10.704  0.0032 -0.2230  0.0941
 6252W        W21383  12.944   0.763  11.711  0.2083  0.1778  0.0161
 6253W        W21384  12.941  15.484   3.511 -0.2426  0.0003 -0.1061
 6254W        W21385   7.067   0.555   1.231 -0.2442  0.0123 -0.0397
 6255W        W21386  10.049   7.024   2.099 -0.1069 -0.0696 -0.0821
 6256W        W21387   4.800   8.914   1.117  0.1697 -0.0687  0.2346
 6257W        W21388   7.503  16.339  11.550 -0.2270  0.1384  0.1569
 6258W        W21389   8.440   9.355   0.012  0.0077  0.2617 -0.1524
 6259W        W21390  15.817  13.652  12.719  0.1513  0.0259  0.0112
 6260W        W21391  13.963   3.231  10.665 -0.3385  0.2067 -0.2304
 6261W        W21392  16.808  17.038   5.099  0.0575  0.0411  0.1135
 6262W        W21393   3.918  13.447  13.923 -0.0502  0.1452  0.2260
 6263W        W21394   8.060  11.788   0.978  0.1653  0.1315 -0.1594
 6264W        W21395   6.353  15.800   3.885 -0.1386 -0.2109  0.1624
 6265W        W21396   8.409  10.345   5.112  0.1107  0.4505  0.3747
 6266W        W21397  15.449  14.794  15.217  0.0857 -0.1086 -0.0930
 6267W        W21398  10.873   8.337  15.177 -0.1492 -0.0931  0.1434
 6268W        W21399   5.422   6.479   0.714  0.0055 -0.2934  0.3319
 6269W        W21400  11.723  14.164   5.821 -0.1603  0.0643 -0.1927
 6270W        W21401  10.379   1.972   2.655 -0.1885  0.4390 -0.0486
 6271W        W21402  17.961   5.476  13.540  0.0235 -0.0310 -0.0214
 6272W        W21403   8.029   8.234   1.923 -0.1324 -0.0145 -0.0666
 6273W        W21404  17.224  15.311   3.216 -0.1498 -0.1041 -0.1151
 6274W        W21405  15.345  10.923   6.294  0.1682  0.0320 -0.0643
 6275W        W21406   2.417  17.683  11.422 -0.0075  0.1047 -0.1198
 6276W        W21407   7.939   7.902   0.770  0.2205  0.2578  0.0506
 6277W        W21408   5.470   9.783   0.319 -0.0473 -0.2038  0.0424
 6278W        W21409  15.991   5.306  13.957  0.1075  0.2678 -0.2707
 6279W        W21410  10.099   6.296   5.069 -0.0669 -0.3395  0.2000
 6280W        W21411   8.838  10.017  15.433  0.1489 -0.4150 -0.1472
 6281W        W21412  14.056  10.406   0.249  0.0072  0.0108  0.3123
 6282W        W21413   4.682   1.289  11.557 -0.5220 -0.1480 -0.4368
 6283W        W21414   7.812  11.096  12.741 -0.1749 -0.3080 -0.1402
 6284W        W21415  11.647  17.769  15.223  0.1941 -0.2097 -0.0048
 6285W        W21416  10.713   1.303   2.048 -0.3776  0.0906 -0.0340
 6286W        W21417  13.934   5.516   1.484 -0.1967 -0.0846 -0.0259
 6287W        W21418   1.703   9.064  13.093 -0.2517  0.1346  0.1645
 6288W        W21419   9.663  15.436  12.008  0.6725  0.0220 -0.0431
 6289W        W21420   0.790   4.900   5.256 -0.1306  0.3803 -0.0232
 6290W        W21421   1.610  15.810  12.652  0.0466  0.3640  0.1943
 6291W        W21422  11.010  16.958   5.120  0.1753  0.3060 -0.1468
 6292W        W21423   8.459   8.161  14.775 -0.2053 -0.0282  0.0367
 6293W        W21424  16.251  16.169   5.470  0.0374 -0.0947 -0.1440
 6294W        W21425  14.135  11.698  13.532 -0.0742 -0.1177 -0.2422
 6295W        W21426   3.096  13.280   4.503 -0.0266 -0.2726 -0.1852
 6296W        W21427   6.535  18.358   1.880 -0.0037 -0.1126 -0.0794
 6297W        W21428   3.664  12.356   4.051 -0.0145  0.0990  0.1340
 6298W        W21429  10.946  14.089   3.303 -0.3092  0.1576  0.2265
 6299W        W21430  12.302   7.147   3.510 -0.2658 -0.1013  0.2508
 6300W        W21431   7.318   7.207  11.138 -0.4670  0.0845 -0.0556
 6301W        W21432  17.982  15.234   1.170 -0.0335 -0.0033 -0.1861
 6302W        W21433   8.042  18.164   4.597  0.0340  0.1161 -0.2494
 6303W        W21434  17.117  18.285  11.443  0.0025  0.1674 -0.1016
 6304W        W21435   8.364  15.605  11.941  0.2219 -0.0948 -0.0580
 6305W        W21436  16.157   0.027  11.499 -0.0079 -0.3500 -0.0370
 6306W        W21437  10.075  10.239   5.038 -0.1450 -0.2032  0.1643
 6307W        W21438  10.656   8.195  13.311 -0.2086 -0.3819 -0.0976
 6308W        W21439  14.490   6.327   2.733  0.0980 -0.0480  0.2943
 6309W        W21440   7.174  10.945  11.291 -0.1288  0.2118 -0.1590
 6310W        W21441   3.599  16.986  15.043 -0.2872  0.1009 -0.2365
 6311W        W21442   3.979  15.393   9.928 -0.1911  0.1292  0.0541
 6312W        W21443   6.803  12.844  13.777 -0.3039  0.1673 -0.3046
 6313W        W21444   9.562   7.345  12.477 -0.3886 -0.0523 -0.1594
 6314W        W21445   7.086   6.272  14.527  0.1038 -0.0873 -0.2304
 6315W        W21446   9.992  16.599  15.287  0.2507 -0.0065 -0.2649
 6316W        W21447   5.634   7.426  14.159 -0.3637 -0.0362  0.1050
 6317W        W21448   0.901   1.444   3.223 -0.0732  0.0813 -0.1094
 6318W        W21449   4.324   5.566   0.342  0.0830  0.0502 -0.4069
 6319W        W21450   6.146   0.476   2.761  0.5465  0.0712 -0.0963
 6320W        W21451   2.524  17.501   4.785 -0.1487  0.0943  0.1122
 6321W        W21452  15.477   6.731  12.014  0.1180 -0.1768  0.0548
 6322W        W21453   4.655  10.357   1.022 -0.1088 -0.0860  0.1048
 6323W        W21454  16.053   4.874   3.784  0.1893 -0.1008 -0.1560
 6324W        W21455   3.764  10.631   4.386  0.1811 -0.1001  0.1434
 6325W        W21456  15.819  14.014  13.189 -0.2770 -0.1702  0.0540
 6326W        W21457  13.391   3.232   3.846  0.0820 -0.0690  0.0273
 6327W        W21458  12.682   4.104  10.367 -0.1084 -0.2588  0.3205
 6328W        W21459  13.156   5.653  15.531  0.0558 -0.2006 -0.3622
 6329W        W21460   7.496   5.148   2.045  0.1814  0.0847  0.0027
 6330W        W21461   5.632   8.264  11.311  0.3702  0.0091  0.2607
 6331W        W21462  12.036   3.132   4.681 -0.0792  0.3012  0.0228
 6332W        W21463   6.810   4.798  13.912  0.1004  0.0303 -0.2222
 6333W        W21464  10.613   7.895   4.526  0.1398 -0.3247 -0.0901
 6334W        W21465  13.405   1.847  15.897 -0.0834 -0.2925 -0.1340
 6335W        W21466   6.070   7.676  12.109 -0.3214  0.2018 -0.1063
 6336W        W21467   1.515   3.639   3.582 -0.1653 -0.0304  0.1518
 6337W        W21468   3.516   7.912   0.698  0.1348 -0.2647 -0.3447
 6338W        W21469  11.214  12.000  14.266  0.0228  0.1483  0.1857
 6339W        W21470  18.158   3.568  14.091 -0.0488  0.1123  0.1639
 6340W        W21471  13.513   2.863   3.492  0.0636 -0.3490 -0.0701
 6341W        W21472  11.726   3.092   6.087 -0.2192 -0.0174 -0.2933
 6342W        W21473   4.494  11.199  13.652  0.0096 -0.0734 -0.1547
 6343W        W21474   0.493  15.485   0.262 -0.0392 -0.1114 -0.2087
 6344W        W21475   5.053  13.946   4.919 -0.2052 -0.3086 -0.0074
 6345W        W21476  18.255  13.847  14.954  0.0558 -0.2245  0.0545
 6346W        W21477   9.527   2.682  15.821  0.0515  0.0370  0.0588
 6347W        W21478   8.792  12.202  14.805  0.3040 -0.1796  0.0286
 6348W        W21479   5.631   2.827   0.703  0.2030  0.1240  0.0639
 6349W        W21480   0.316  16.682  15.318  0.2563  0.0859 -0.4344
 6350W        W21481   8.305   0.088   2.939 -0.1181 -0.3327 -0.2349
 6351W        W21482   5.599   7.394   3.853  0.1579 -0.2748 -0.1321
 6352W        W21483   6.140   7.317  11.811  0.1119  0.3176  0.0069
 6353W        W21484  17.800  14.499  15.655 -0.0116  0.1987  0.0404
 6354W        W21485   6.867   3.240   0.966  0.1627 -0.0588 -0.3113
 6355W        W21486   0.502   9.923  13.358  0.2863 -0.0610  0.1500
 6356W        W21487   6.905  13.324  14.154 -0.3394  0.1264  0.3150
 6357W        W21488   9.800   1.156   4.746 -0.1878  0.0217 -0.0436
 6358W        W21489   4.653   5.876   4.375  0.3965  0.4468 -0.2442
 6359W        W21490   0.927  14.951   1.714 -0.0151  0.0502 -0.0781
 6360W        W21491  16.116   2.514   4.759 -0.0801  0.1248  0.1583
 6361W        W21492  10.580  13.640   3.547 -0.2846 -0.1742 -0.1123
 6362W        W21493   3.691  14.963   0.018 -0.1432  0.1231 -0.1512
 6363W        W21494  11.183   0.728  14.042  0.0669  0.1163 -0.4747
 6364W        W21495   8.629   8.946  14.664 -0.1239 -0.1836 -0.0358
 6365W        W21496   1.977   3.133  11.204  0.0713 -0.0594 -0.1237
 6366W        W21497   7.224  11.458   3.540  0.1530  0.0716 -0.1646
 6367W        W21498  16.047  12.695  13.807 -0.3329 -0.0235 -0.0692
 6368W        W21499  13.560  14.578  11.540  0.2838  0.0504 -0.1184
 6369W        W21500  10.406   7.802   2.435 -0.1249  0.0468  0.0045
 6370W        W21501   6.620  16.682  12.881  0.0892  0.0646  0.2340
 6371W        W21502   5.924  12.890   4.149 -0.2426 -0.0854 -0.1207
 6372W        W21503  17.742  17.858   4.274 -0.0992  0.2779  0.4307
 6373W        W21504   6.223  16.336  14.051 -0.0645  0.1697  0.0615
 6374W        W21505  13.074  11.695   5.320 -0.2152 -0.3514  0.1815
 6375W        W21506  12.736  10.316   3.697 -0.1572 -0.0892 -0.1552
 6376W        W21507  15.104   3.770  12.942 -0.1664 -0.3245  0.0292
 6377W        W21508   1.568   1.851   2.793 -0.0507 -0.0534 -0.0415
 6378W        W21509   3.230  10.708  11.434 -0.2056  0.0471  0.1435
 6379W        W21510  13.021   8.796   4.500  0.2909  0.2418  0.1332
 6380W        W21511  14.289   1.422  16.134  0.1828 -0.1122 -0.1625
 6381W        W21512   4.183   1.651  16.100  0.1803 -0.2699  0.1362
 6382W        W21513  14.117   7.487  13.090  0.0807  0.1798 -0.0038
 6383W        W21514   4.930  11.236  16.065  0.1608  0.3826  0.0350
 6384W        W21515   0.676   6.202   2.979 -0.1031 -0.2700  0.1161
 6385W        W21516  16.898   3.514   3.651  0.1715 -0.1708 -0.0243
 6386W        W21517  13.180   1.262  11.603  0.2691  0.1793  0.0790
 6387W        W21518  18.161   0.774   4.525  0.1889 -0.0884 -0.0591
 6388W        W21519  12.381   0.261   2.529 -0.0977  0.0700  0.0581
 6389W        W21520   3.166   4.563   0.055  0.3461 -0.0033  0.0723
 6390W        W21521   8.023   2.740  13.793 -0.1146 -0.3751 -0.0627
 6391W        W21522  15.084  17.943  14.249 -0.3640 -0.2640 -0.2421
 6392W        W21523   4.240  16.640  11.315  0.0488 -0.1084 -0.0144
 6393W        W21524   6.473  12.563   1.365 -0.2503 -0.0050  0.1599
 6394W        W21525  11.824  10.411   4.625  0.1466 -0.0785  0.0437
 6395W        W21526   6.778   8.230  13.229 -0.0664 -0.2191 -0.4642
 6396W        W21527   8.015  17.638   4.558 -0.3029 -0.1471 -0.1317
 6397W        W21528  14.324  17.817   5.733 -0.0193  0.0996 -0.0651
 6398W        W21529   3.686   1.067  10.268  0.0487 -0.1384  0.1433
 6399W        W21530  11.969  14.877  14.520 -0.0333  0.0392  0.2215
 6400W        W21531   0.765   4.136   1.552  0.0342  0.1507 -0.0445
 6401W        W21532   5.010  13.182   1.478 -0.1435  0.0699 -0.4003
 6402W        W21533   3.946   8.203   2.039 -0.0807  0.3211  0.2258
 6403W        W21534   7.124  11.944   3.513  0.2273 -0.0167  0.4709
 6404W        W21535  10.369  15.025   4.435 -0.2408  0.0287 -0.2796
 6405W        W21536  13.544   8.084  14.403 -0.2155 -0.5144  0.1447
 6406W        W21537   5.015  15.061   0.180  0.0681 -0.0422  0.1616
 6407W        W21538  11.899   5.690  14.676 -0.3733 -0.0519  0.1965
 6408W        W21539   9.440  17.618  13.057  0.2951  0.2155  0.0581
 6409W        W21540  10.336   9.383  13.158  0.1832 -0.0531  0.0842
 6410W        W21541  15.055  14.607  13.514 -0.0265  0.1158  0.2325
 6411W        W21542   6.136  15.051  12.645  0.1440 -0.0614  0.1617
 6412W        W21543  15.645   7.054   5.025 -0.0512 -0.0804  0.0922
 6413W        W21544  13.964  12.024   3.342 -0.1139  0.1095  0.0791
 6414W        W21545   7.256  10.054  12.209  0.1217 -0.3846  0.0018
 6415W        W21546   7.176  10.144  15.636  0.3392  0.2418  0.3353
 6416W        W21547  11.173   1.727  12.711 -0.0804 -0.1010 -0.0184
 6417W        W21548  11.384   7.188   0.694 -0.1948 -0.0253  0.1211
 6418W        W21549  17.395  15.333   5.986  0.0717 -0.1480 -0.0416
 6419W        W21550   0.234   6.184  11.505  0.0307  0.1247 -0.0589
 6420W        W21551  11.464   4.878  14.626  0.0518  0.2914 -0.1173
 6421W        W21552  10.167   8.595  12.003 -0.1419  0.2177  0.1351
 6422W        W21553   6.762  14.408   0.569 -0.0930 -0.0604  0.2612
 6423W        W21554   6.724   5.773   4.912 -0.0305  0.2998 -0.1815
 6424W        W21555  18.127  13.995  13.198 -0.1094  0.0578  0.1207
 6425W        W21556  16.193   0.967   3.569 -0.0651 -0.0648 -0.1425
 6426W        W21557   4.457   2.596   2.175 -0.2425  0.1500  0.0506
 6427W        W21558  10.708  15.820  10.760 -0.1486  0.1159  0.0138
 6428W        W21559  15.478  17.698  14.026  0.0837 -0.0192  0.1198
 6429W        W21560  14.019  13.400  12.040  0.0362  0.0691 -0.1452
 6430W        W21561   7.981   0.285   0.929  0.0405 -0.1986  0.2105
 6431W        W21562   9.275  11.623  11.851 -0.2924 -0.0883  0.3802
 6432W        W21563  10.417  14.281  10.668  0.0898  0.2413 -0.3432
 6433W        W21564   7.447  10.874   0.772 -0.2352 -0.0658  0.3007
 6434W        W21565   0.669  11.056   3.504  0.2350  0.0455  0.0195
 6435W        W21566   0.770  16.797  12.042  0.2795 -0.4413 -0.1134
 6436W        W21567   6.010   9.507  12.373 -0.0566  0.0533  0.1780
 6437W        W21568   6.576  18.029  14.465 -0.1906  0.0363  0.0113
 6438W        W21569  12.115  10.686  16.016 -0.0168 -0.0614 -0.0712
 6439W        W21570  16.631   7.430  12.229  0.1017  0.1336  0.0190
 6440W        W21571   1.937   5.945   1.524 -0.2556 -0.0063  0.0409
 6441W        W21572   1.499  13.624  14.050 -0.3868 -0.2765 -0.4062
 6442W        W21573   6.042  13.027  15.376  0.0508  0.0604  0.0906
 6443W        W21574   0.428  13.238  10.874 -0.4964 -0.5378 -0.0633
 6444W        W21575   1.359   1.196   3.312  0.1789 -0.0484  0.1593
 6445W        W21576  10.265   7.068   5.637 -0.0834 -0.2022  0.0139
 6446W        W21577   7.634  13.177   4.037 -0.1891  0.0180 -0.2206
 6447W        W21578  12.556   6.370   0.663 -0.3032  0.0487  0.0190
 6448W        W21579   5.850  18.124   5.081 -0.3404  0.1790  0.0227
 6449W        W21580  13.465  10.299   4.136  0.1208 -0.1647  0.3060
 6450W        W21581  17.657   4.807   4.183 -0.1365 -0.0736 -0.1025
 6451W        W21582   5.323  11.855   1.935  0.0016  0.1377  0.0470
 6452W        W21583  14.748   8.495  11.137  0.1633  0.4360 -0.1462
 6453W        W21584   3.779  10.236  14.171  0.0729  0.1487  0.1508
 6454W        W21585  15.639  14.263  11.078  0.0266  0.0815  0.2749
 6455W        W21586  18.241  13.436  13.898 -0.1845  0.1181  0.3776
 6456W        W21587  13.748   8.675   0.486 -0.1172 -0.1678  0.0554
 6457W        W21588  17.543   9.382   5.674 -0.2146  0.0015  0.3192
 6458W        W21589  15.778  12.744   5.729  0.0601  0.0469  0.0569
 6459W        W21590  10.302   7.181  12.841  0.0334  0.0817 -0.1327
 6460W        W21591   4.808  17.399  16.055 -0.1085  0.0505  0.1999
 6461W        W21592  13.610  11.402   4.074  0.1197 -0.1496 -0.1292
 6462W        W21593  15.366   4.020   5.554 -0.0004 -0.3102 -0.2339
 6463W        W21594   4.330  14.913  13.522 -0.0425 -0.0337 -0.0882
 6464W        W21595   4.362   9.043  15.425  0.0660 -0.1809 -0.0067
 6465W        W21596   2.684   0.560   5.665  0.0587 -0.3058  0.2004
 6466W        W21597  17.560   1.218  13.859 -0.0948 -0.0126  0.1143
 6467W        W21598   9.576   0.163   1.686 -0.0374  0.0464  0.0268
 6468W        W21599   9.444   2.238  13.648 -0.0064 -0.5845  0.2411
 6469W        W21600  17.063  14.997   2.066 -0.0029  0.2953  0.0213
 6470W        W21601  14.112  14.419   4.740  0.1213 -0.2249  0.1384
 6471W        W21602  11.856   9.118  12.957 -0.3610  0.1341 -0.1828
 6472W        W21603  13.333   4.564   1.808  0.1088  0.3667 -0.0725
 6473W        W21604   1.069   6.645  13.432  0.0434  0.2364  0.1282
 6474W        W21605   0.143   0.108   1.367  0.1424  0.0654 -0.1906
 6475W        W21606   8.013  18.216   1.273  0.1653  0.2000  0.0702
 6476W        W21607   8.573   2.295  12.586  0.5542  0.1452  0.2420
 6477W        W21608   7.091  17.455  10.074 -0.1524  0.1775  0.0844
 6478W        W21609   0.434   0.739  15.899  0.1698 -0.0067 -0.0007
 6479W        W21610   2.898   2.866  13.826 -0.0862  0.1084 -0.0754
 6480W        W21611   9.770   8.100  12.761  0.2341  0.0408  0.3507
 6481W        W21612  13.500  11.571   4.534  0.0370 -0.0413 -0.1392
 6482W        W21613  12.762   2.814  14.704  0.1276 -0.1622  0.0088
 6483W        W21614   9.807   3.462   2.810  0.1399  0.1579  0.2167
 6484W        W21615  14.394   5.154   5.723  0.2812  0.0427  0.2545
 6485W        W21616  16.272  12.652   3.465  0.1491  0.1997 -0.1440
 6486W        W21617  14.209  16.370  14.779 -0.0972  0.0198  0.2731
 6487W        W21618  14.206  10.475   1.686 -0.2105 -0.1371  0.0933
 6488W        W21619  17.287   5.348  15.709  0.1139  0.1108  0.1999
 6489W        W21620   3.562   4.300   1.920 -0.0925 -0.2597  0.1662
 6490W        W21621  17.919   0.506  13.832 -0.2028 -0.1043  0.2130
 6491W        W21622   7.835   3.041  15.033  0.1030 -0.1222 -0.0641
 6492W        W21623  14.514  16.996  12.685  0.1492  0.0197  0.0884
 6493W        W21624  12.155   4.685  15.639  0.0558 -0.1144  0.0153
 6494W        W21625  16.847   2.903  16.016  0.0751 -0.1505 -0.1149
 6495W        W21626  16.608   1.483  12.396  0.0238  0.3187 -0.0973
 6496W        W21627   6.109  13.293  15.780  0.4752 -0.1009 -0.0861
 6497W        W21628   1.744   1.701  10.565 -0.0869  0.0289 -0.0171
 6498W        W21629   7.517   3.677  15.695  0.0029  0.0441 -0.0554
 6499W        W21630  15.514   6.387  11.540 -0.1378 -0.0630  0.1721
 6500W        W21631   9.288  10.634  11.757  0.3985  0.2158 -0.3231
 6501W        W21632  15.603  14.601   2.296 -0.1685  0.1474 -0.0421
 6502W        W21633   9.392  10.901   1.113  0.0738  0.1053  0.1920
 6503W        W21634  18.033  12.967   5.877  0.1606 -0.0037  0.0041
 6504W        W21635  15.036  17.651  11.866  0.1280  0.1515  0.0164
 6505W        W21636   7.285   1.857  11.304 -0.0824  0.0514  0.1934
 6506W        W21637  14.429  11.777   1.751  0.2556  0.2832  0.4610
 6507W        W21638  16.997  14.251   2.696 -0.2039  0.0949  0.0054
 6508W        W21639  13.973  11.166  10.260 -0.5005  0.1134  0.0206
 6509W        W21640   2.386  17.742   2.917 -0.0661 -0.0266  0.0095
 6510W        W21641  15.880  15.463   4.206  0.0650  0.2490 -0.0285
 6511W        W21642  15.119   2.133  14.799  0.1095 -0.1038  0.4388
 6512W        W21643   8.979   3.177   3.258 -0.2021 -0.0596  0.3657
 6513W        W21644   2.080  17.817   3.833  0.0174  0.0960 -0.0880
 6514W        W21645   2.081   1.265  14.428 -0.1774 -0.2150 -0.0637
 6515W        W21646   4.309   4.870  13.102 -0.1055 -0.0254 -0.0139
 6516W        W21647  15.181  16.150   1.141 -0.4210  0.0011  0.1978
 6517W        W21648  14.049   4.239   1.233 -0.4288  0.1372  0.2820
 6518W        W21649   9.050  13.443   5.154  0.1787 -0.1633 -0.5553
 6519W        W21650   3.422   5.798  13.821 -0.0591 -0.0228 -0.3029
 6520W        W21651  10.803   8.099   2.664 -0.2456 -0.2492 -0.0731
 6521W        W21652  18.034   0.468  10.948  0.3079  0.1995  0.2403
 6522W        W21653  14.499  14.136  12.155 -0.1045  0.0547  0.0860
 6523W        W21654  10.167  11.661  15.625 -0.0159  0.3015 -0.2576
 6524W        W21655   8.743  15.737   1.063  0.1365 -0.2969 -0.2083
 6525W        W21656  10.148  17.944   4.648  0.0481  0.0362  0.1947
 6526W        W21657   8.463   3.840   1.046 -0.3618  0.0680  0.1611
 6527W        W21658  16.604   4.115  14.613  0.3121  0.4235 -0.1905
 6528W        W21659  14.106  17.737   1.718 -0.1776 -0.1236  0.1252
 6529W        W21660   1.357  11.938  14.638  0.3008  0.0361 -0.4751
 6530W        W21661   7.700   6.250  14.587 -0.0393  0.0087 -0.0498
 6531W        W21662   3.299   1.461   0.225 -0.1545  0.0351  0.0946
 6532W        W21663   1.503  17.711   0.180  0.0328 -0.3911  0.2574
 6533W        W21664  15.550   2.965  11.573 -0.0295  0.1174  0.1998
 6534W        W21665   3.833  17.209  11.312  0.1619 -0.1174  0.0147
 6535W        W21666   1.586  12.874   0.607 -0.0318 -0.0516 -0.0536
 6536W        W21667  13.232   2.604   0.965 -0.0204  0.0402 -0.1635
 6537W        W21668   5.512  17.299   3.307  0.0533 -0.0908 -0.0391
 6538W        W21669  18.275   7.223   2.675 -0.0418 -0.0990 -0.1600
 6539W        W21670  10.373  15.582   2.233 -0.2116  0.0670  0.4031
 6540W        W21671   8.065  15.407   3.456  0.0962 -0.1765 -0.0595
 6541W        W21672  14.306  16.618  13.340 -0.1267 -0.1355  0.2472
 6542W        W21673  11.620  11.365   5.699 -0.2570  0.1003  0.3339
 6543W        W21674   0.452   6.431   3.937 -0.0310  0.1559  0.1204
 6544W        W21675   5.526   5.535   2.500 -0.0984  0.0749 -0.0462
 6545W        W21676  12.953   1.596   4.636 -0.0326  0.0922 -0.2558
 6546W        W21677  17.754  13.935  13.539  0.1701  0.1225 -0.1527
 6547W        W21678  11.095   0.180  15.319 -0.0141 -0.2537  0.3314
 6548W        W21679   3.930   1.079   3.316 -0.0379 -0.3530  0.2595
 6549W        W21680   2.206   2.027   2.080  0.2137 -0.0307  0.0554
 6550W        W21681  11.167   2.167   4.758  0.2940 -0.2893 -0.3134
 6551W        W21682  17.887  12.468  10.826 -0.1189  0.0718  0.1942
 6552W        W21683  14.762  14.585   5.655  0.2368 -0.0984  0.2086
 6553W        W21684   3.537   9.669  14.983  0.0520  0.0366  0.2308
 6554W        W21685  12.382  12.783   3.457 -0.0905  0.1845  0.0849
 6555W        W21686   6.123   4.754  10.092  0.3955  0.2404 -0.0566
 6556W        W21687   0.006  16.609  13.163  0.3106  0.1837  0.1423
 6557W        W21688   8.444   7.736  11.726 -0.1173  0.0760 -0.1319
 6558W        W21689   9.936   9.756   1.520  0.0928  0.1406 -0.2315
 6559W        W21690   1.586  11.836  13.900  0.1833 -0.0932 -0.1671
 6560W        W21691   2.370   7.825  12.889  0.2013 -0.3354 -0.0063
 6561W        W21692   2.049   1.238  11.671  0.1731 -0.0461  0.0202
 6562W        W21693  10.324  13.363  12.232  0.0609  0.2742  0.1927
 6563W        W21694   7.258   7.608   3.136  0.1567 -0.2468 -0.0569
 6564W        W21695   3.608   8.078  12.152 -0.1568 -0.1476 -0.0371
 6565W        W21696  11.590   5.872   5.450  0.0042 -0.0402  0.3314
 6566W        W21697  12.288  16.259  12.340 -0.1927  0.2011 -0.1437
 6567W        W21698  15.904   8.322  12.877  0.2488 -0.0503 -0.0536
 6568W        W21699  12.183   2.274  13.964 -0.2540 -0.0030  0.1095
 6569W        W21700  12.738   8.162  14.005 -0.1600 -0.0528 -0.0226
 6570W        W21701  14.549   9.312   0.388 -0.1566  0.3581 -0.0193
 6571W        W21702   0.713  15.689  15.106  0.0101 -0.0184 -0.2058
 6572W        W21703   2.881   3.717  11.601  0.0859 -0.0101  0.0062
 6573W        W21704   1.763   3.462   0.592 -0.0585  0.0058  0.0088
 6574W        W21705  10.246   1.091   2.143 -0.0736 -0.2752 -0.1461
 6575W        W21706   8.290   4.880  12.077  0.0442 -0.0512 -0.1417
 6576W        W21707   5.964   2.557   2.836 -0.0890 -0.1872  0.1100
 6577W        W21708   8.988  18.116  11.080  0.3960 -0.0600  0.0589
 6578W        W21709  16.878  12.161  12.718  0.0316  0.1177 -0.0075
 6579W        W21710   2.136   2.992  13.912 -0.3223  0.0726  0.3758
 6580W        W21711  15.774  14.273  12.541 -0.0556  0.1297 -0.2697
 6581W        W21712  12.325  11.035  14.678 -0.0535  0.0883 -0.2494
 6582W        W21713   8.997   9.209   1.822  0.2061  0.0722  0.0297
 6583W        W21714   7.414   4.969  12.794 -0.0537  0.2123  0.1765
 6584W        W21715  11.686   4.704   4.685 -0.4116  0.2466  0.3812
 6585W        W21716   8.768  15.693  13.707 -0.2220  0.1360  0.1041
 6586W        W21717  16.495  13.877  11.418  0.1709  0.2421  0.1343
 6587W        W21718   6.663   8.866   0.227 -0.1989  0.1612 -0.0628
 6588W        W21719   9.103   2.638  15.359 -0.1272  0.0318  0.0161
 6589W        W21720   9.518  14.708  11.670  0.0610  0.1089 -0.4223
 6590W        W21721   0.873  16.852   2.838 -0.1564 -0.1493 -0.1595
 6591W        W21722   5.953   8.464   4.979 -0.1809 -0.2775 -0.0288
 6592W        W21723   4.619   8.435  15.048 -0.0486 -0.0375 -0.1091
 6593W        W21724  18.286   4.365  13.040 -0.0675  0.2008  0.2039
 6594W        W21725  17.478   9.240  11.275 -0.0177  0.1026  0.2319
 6595W        W21726  17.546  16.896  12.889  0.0740  0.3974  0.1707
 6596W        W21727  17.891   3.685   0.355  0.0218 -0.0123  0.3324
 6597W        W21728   0.003   3.627   1.244  0.1131 -0.2970  0.0950
 6598W        W21729   7.465  18.007   0.383 -0.0525 -0.0759 -0.1337
 6599W        W21730  13.837   3.642   0.099  0.0685 -0.0422  0.0976
 6600W        W21731  12.111  17.912  11.858 -0.1749 -0.2343 -0.1914
 6601W        W21732   0.173   2.574  11.889 -0.0660 -0.0195  0.1587
 6602W        W21733   7.262   6.870   0.678 -0.1158 -0.2659  0.4063
 6603W        W21734  13.093   8.630   1.970  0.3013  0.3242 -0.1163
 6604W        W21735  13.425  14.019   2.131  0.2324 -0.0576  0.1657
 6605W        W21736  16.156   4.048   6.051  0.1306 -0.3460 -0.3061
 6606W        W21737   9.433   5.020   4.756  0.0526 -0.0315 -0.3633
 6607W        W21738   2.533  15.014  12.013  0.6697 -0.1641 -0.0354
 6608W        W21739  14.434  13.729   5.935 -0.3411 -0.3290  0.1375
 6609W        W21740   1.090   9.642  11.467 -0.2499  0.0337 -0.1204
 6610W        W21741  15.876   6.140   2.335 -0.0989 -0.1396  0.2443
 6611W        W21742   5.642  18.247   1.746  0.0703 -0.1574  0.1044
 6612W        W21743  18.117  13.091  14.222  0.1461  0.3808  0.0152
 6613W        W21744   9.938   7.037  13.835  0.3727  0.1222 -0.0915
 6614W        W21745  11.281   3.847   3.240 -0.0806  0.1022 -0.1818
 6615W        W21746   2.883  15.883  15.454 -0.2442 -0.0542 -0.2487
 6616W        W21747   1.424  11.402   3.687  0.0801 -0.0689  0.2581
 6617W        W21748  12.603   5.167   1.553  0.0412  0.1887  0.1768
 6618W        W21749  12.571   1.989  13.059 -0.0302 -0.1265  0.1679
 6619W        W21750   3.947  11.234   9.489  0.0022  0.1115 -0.1245
 6620W        W21751   0.512  16.955  14.287  0.0075 -0.3682  0.1144
 6621W        W21752   3.030   5.276   1.329 -0.2645  0.3029  0.0142
 6622W        W21753   9.272  16.387  14.868  0.0624  0.1003  0.0719
 6623W        W21754  14.785  11.283  14.038  0.0359 -0.0007  0.1343
 6624W        W21755   3.095   6.740   2.984 -0.0511 -0.2297  0.2346
 6625W        W21756   9.246   0.923   2.261 -0.0404 -0.1443 -0.1840
 6626W        W21757   9.657  15.870  12.901  0.3104 -0.0649  0.0639
 6627W        W21758  14.046  14.379  15.271  0.4178  0.1505 -0.0271
 6628W        W21759  15.466  16.422   4.388 -0.1246 -0.1319 -0.1589
 6629W        W21760  14.219   6.062   3.132 -0.0711  0.0339 -0.1651
 6630W        W21761   2.448   1.033   5.692  0.2048  0.0147 -0.0897
 6631W        W21762  16.940   2.713   3.728 -0.4281  0.3926 -0.0774
 6632W        W21763   6.052   0.172   1.780 -0.1070  0.1088  0.1395
 6633W        W21764  15.659   4.053   4.074 -0.4187 -0.1273  0.1012
 6634W        W21765   2.090  10.668  14.571  0.1360 -0.1367 -0.1856
 6635W        W21766  15.284   9.789  14.540  0.2204  0.1431  0.1774
 6636W        W21767  12.832  14.797  12.979 -0.0979  0.0613  0.0317
 6637W        W21768  13.249   0.938   5.247  0.1186  0.2466 -0.0115
 6638W        W21769   4.012   4.483  12.964  0.3569 -0.2668 -0.1658
 6639W        W21770   1.104  10.911  14.803  0.0321 -0.1648 -0.1389
 6640W        W21771  15.577  15.424   1.044 -0.3026 -0.0784 -0.3571
 6641W        W21772  17.533  15.417   0.960  0.0154 -0.1494  0.4788
 6642W        W21773  16.589  10.075   2.558  0.2451 -0.3672 -0.0190
 6643W        W21774  10.523  17.389   0.971 -0.0956 -0.0567 -0.0470
 6644W        W21775   0.479  13.462   5.045 -0.0004  0.1654 -0.0019
 6645W        W21776   2.237   1.463   4.724  0.2170 -0.1617  0.2745
 6646W        W21777  15.316  10.949  14.554  0.2671  0.0417 -0.1164
 6647W        W21778  10.451  13.069  11.440 -0.3554 -0.0411  0.0378
 6648W        W21779  12.538  11.062  14.142  0.0341  0.2414  0.1045
 6649W        W21780  16.318   4.693   0.666  0.0467 -0.2783 -0.0765
 6650W        W21781  15.813  10.823   4.196  0.0182 -0.0897  0.2038
 6651W        W21782   7.054  15.300  14.076  0.3979  0.2945  0.2070
 6652W        W21783  13.225   8.233  11.565  0.5944  0.1763  0.1120
 6653W        W21784  14.541  11.836  12.526  0.1636  0.0632  0.0762
 6654W        W21785  12.599  12.040   4.161 -0.0376 -0.0321 -0.1163
 6655W        W21786   1.363   0.450  15.563 -0.1837 -0.1575  0.1397
 6656W        W21787   6.158   6.080  13.161  0.0147 -0.0784  0.2202
 6657W        W21788   5.111   6.262  15.632  0.0241  0.1421  0.2820
 6658W        W21789   6.525  16.800   1.593  0.0357 -0.2176 -0.0461
 6659W        W21790   7.230   7.989  15.340 -0.3164  0.0309  0.1127
 6660W        W21791   4.463   3.149   5.101 -0.0826 -0.0300  0.1589
 6661W        W21792  16.943  15.555   3.592 -0.2602 -0.3023  0.1762
 6662W        W21793  13.234  11.104  14.917 -0.0238 -0.1630  0.1724
 6663W        W21794   7.701   5.975  10.691  0.1756 -0.4446 -0.0253
 6664W        W21795  13.260   9.391  15.513 -0.0410  0.1060 -0.1759
 6665W        W21796  15.717   8.305   3.175  0.1794  0.0488  0.3553
 6666W        W21797   5.900   9.579  13.792  0.1204 -0.0677  0.0564
 6667W        W21798   1.681   9.187  13.703 -0.0354 -0.0757  0.0750
 6668W        W21799  14.215  14.950   3.574  0.0181  0.2723 -0.0956
 6669W        W21800   5.754  12.769  11.667  0.2122 -0.1159  0.0922
 6670W        W21801   7.120  15.518  11.820  0.0737  0.1601  0.2749
 6671W        W21802   7.982  16.675   1.144  0.1636 -0.1120 -0.2438
 6672W        W21803   5.656   2.843  11.345 -0.3596  0.0360  0.0094
 6673W        W21804   1.589  11.156  11.446  0.1968 -0.0041 -0.2354
 6674W        W21805  15.271  12.031  13.872  0.0835  0.0394 -0.3318
 6675W        W21806  14.452   8.739  14.985  0.0382  0.1729 -0.2784
 6676W        W21807   1.236   4.058  10.379 -0.0356  0.1376 -0.4720
 6677W        W21808   1.235   0.407  14.960  0.0705  0.0625 -0.2164
 6678W        W21809   5.970  13.777  11.541 -0.0629 -0.2632  0.3470
 6679W        W21810   9.542   4.912   0.510  0.2310  0.0487  0.0655
 6680W        W21811  13.425   5.083   5.455  0.0913 -0.3453  0.3494
 6681W        W21812  18.005  14.756  10.684  0.2470  0.0818  0.0103
 6682W        W21813   7.350  14.076   4.427  0.0697  0.0462 -0.1263
 6683W        W21814   8.193   9.635  12.079  0.0132  0.1320  0.1649
 6684W        W21815   2.504   2.420  13.138 -0.0788  0.1880  0.3004
 6685W        W21816  13.229   5.299   3.633  0.1214 -0.0128 -0.1208
 6686W        W21817   2.393  18.303  13.107  0.0791  0.0096  0.2882
 6687W        W21818  16.802   5.821  12.787 -0.0864 -0.0598  0.1344
 6688W        W21819   1.450  12.333   0.582  0.0470 -0.0715 -0.0473
 6689W        W21820  13.224   0.813   2.666 -0.2137  0.4490 -0.2700
 6690W        W21821   8.408   3.915   4.403 -0.0968  0.1483 -0.0857
 6691W        W21822   8.969   3.533  15.625 -0.1498  0.3393  0.3999
 6692W        W21823  17.306   8.553   3.416  0.2267  0.0020 -0.4889
 6693W        W21824  11.355   0.388  13.601 -0.2682 -0.0708  0.1177
 6694W        W21825  10.298   6.411  11.505  0.2565  0.2751 -0.4059
 6695W        W21826   4.026  10.447  15.197  0.0212 -0.0203  0.2643
 6696W        W21827  15.182   7.309   3.407 -0.1216 -0.1234  0.0894
 6697W        W21828  10.110   9.020   0.204  0.1225 -0.0756 -0.1272
 6698W        W21829  16.012  14.445   4.014 -0.2581 -0.3287 -0.3743
 6699W        W21830  11.342  16.303   4.800 -0.0425 -0.0290  0.0359
 6700W        W21831  13.820   6.082   3.911 -0.1511  0.3061  0.2722
 6701W        W21832   5.772  12.957   4.647  0.2113 -0.3260  0.0310
 6702W        W21833   6.358   3.138  14.534 -0.2474  0.1859 -0.1088
 6703W        W21834   7.931   4.959   2.542 -0.0082  0.2263 -0.1059
 6704W        W21835  17.675   6.508   0.826  0.0856  0.1119  0.1085
 6705W        W21836   1.426   8.908   3.252  0.2397 -0.1109  0.1048
 6706W        W21837   7.897   1.150  14.932  0.1506  0.0029 -0.0518
 6707W        W21838   5.966  15.475  11.139 -0.2935  0.0090 -0.0192
 6708W        W21839   4.309  16.754  14.572  0.2353  0.1281  0.2076
 6709W        W21840   9.696   5.292  11.780  0.0651 -0.2585  0.0902
 6710W        W21841  13.376  12.387   0.576  0.0734 -0.2832 -0.1104
 6711W        W21842  10.418   8.369   4.453 -0.2839 -0.0166 -0.2940
 6712W        W21843   1.577   0.947   4.669  0.1992  0.0782  0.0799
 6713W        W21844  13.912   9.399  12.879  0.2151 -0.1800 -0.1720
 6714W        W21845  13.376   2.854   2.855 -0.0890  0.1342 -0.0686
 6715W        W21846  13.137  11.785   4.790 -0.2019  0.0531  0.1167
 6716W        W21847   0.159  13.627   2.033  0.0726  0.1259  0.3652
 6717W        W21848  15.046  17.557   1.211 -0.1875  0.0020  0.2205
 6718W        W21849   4.372  15.733  12.821  0.5631 -0.1013 -0.0408
 6719W        W21850  17.680  17.290   1.788 -0.0560 -0.0402 -0.0156
 6720W        W21851  14.198   7.211  14.271 -0.0346 -0.0116 -0.2013
 6721W        W21852   3.784   5.154   2.436  0.1826 -0.1724  0.2620
 6722W        W21853  11.105   6.889   4.090 -0.1503  0.1224 -0.0196
 6723W        W21854   0.243   2.222  15.684 -0.0890 -0.3374 -0.0225
 6724W        W21855  10.221   8.723  15.819  0.1978 -0.0428  0.4221
 6725W        W21856   1.293   8.840   0.643  0.3797 -0.1257 -0.0776
 6726W        W21857  13.902   6.692   2.585  0.2904 -0.1274  0.1485
 6727W        W21858   5.120   1.406   2.885  0.0672  0.2491 -0.0175
 6728W        W21859   2.276  11.708   4.636  0.0054 -0.0155  0.1023
 6729W        W21860   0.675  13.747  15.697 -0.0552  0.0026  0.2207
 6730W        W21861   3.870  11.439  11.296  0.1080  0.4935  0.1326
 6731W        W21862  13.894   3.167  14.404  0.0423  0.1445 -0.0635
 6732W        W21863  16.770  17.748   3.329 -0.0521  0.2484 -0.0133
 6733W        W21864   4.952  10.972   3.505  0.3626 -0.1221 -0.2047
 6734W        W21865   1.751  13.338   0.580  0.1100 -0.0902  0.2142
 6735W        W21866   0.261  17.584  11.496  0.0783  0.0049 -0.1428
 6736W        W21867   2.693   2.466   4.974  0.3957 -0.1569 -0.0941
 6737W        W21868  18.202  17.515  13.250 -0.2388  0.0592  0.1084
 6738W        W21869  13.510  15.922  10.029 -0.0849 -0.0956 -0.1439
 6739W        W21870  12.136   5.464  12.867 -0.0372 -0.0049 -0.2707
 6740W        W21871   6.431  17.387  12.587 -0.0731  0.1149  0.0902
 6741W        W21872   3.735   9.778  13.448 -0.2184 -0.2339  0.4165
 6742W        W21873  17.429  17.204   0.463  0.0489 -0.0069 -0.1536
 6743W        W21874  11.472  18.129  11.878 -0.0411  0.0988 -0.0354
 6744W        W21875   2.419   8.601  12.580  0.1514 -0.3722 -0.0117
 6745W        W21876   2.500   2.097   9.907 -0.0312  0.2549 -0.0865
 6746W        W21877  10.516   1.624   1.444 -0.4016  0.1411  0.0233
 6747W        W21878   1.244   8.386  13.846 -0.2377  0.2128  0.2359
 6748W        W21879  13.061   1.714   3.710  0.0270 -0.0175  0.2473
 6749W        W21880  15.849   5.074  15.949  0.1091 -0.0118 -0.0790
 6750W        W21881  11.180  16.971  13.807 -0.2827 -0.2229  0.0483
 6751W        W21882  14.353  14.457   3.432  0.2018 -0.1660 -0.0372
 6752W        W21883  14.385   4.875  14.529 -0.0238  0.1295  0.0961
 6753W        W21884   6.949   5.679   1.441 -0.1149  0.1556 -0.4137
 6754W        W21885  17.541  10.830  13.734 -0.1563 -0.0246 -0.0729
 6755W        W21886   5.674   7.862   1.956 -0.3229 -0.4414  0.0721
 6756W        W21887  16.039   2.122  15.231 -0.0388 -0.1809  0.3880
 6757W        W21888   8.380  15.612  13.307 -0.0937 -0.3462  0.0646
 6758W        W21889  12.687  12.307   3.240 -0.1801 -0.0394  0.1340
 6759W        W21890   1.342   8.668  13.010 -0.2694  0.1825  0.2210
 6760W        W21891   5.813  16.071  14.006  0.0810 -0.1125  0.1501
 6761W        W21892   4.135  16.197   4.834  0.2404 -0.1475 -0.1163
 6762W        W21893   7.245   3.599   0.162 -0.2158 -0.3735  0.2556
 6763W        W21894  14.620   7.705   1.834  0.1104 -0.2093  0.1261
 6764W        W21895  11.687  15.738  11.691 -0.2037 -0.1176 -0.0432
 6765W        W21896   0.151  12.792  12.353 -0.0361 -0.3946  0.0144
 6766W        W21897   7.924   7.581   4.985 -0.5158 -0.0526  0.1990
 6767W        W21898  17.266  11.109  14.915  0.1534 -0.3537  0.0214
 6768W        W21899  17.653   4.588   4.867 -0.1004  0.0733 -0.0443
 6769W        W21900  15.345   3.567  10.846  0.3274 -0.3059  0.1394
 6770W        W21901  16.890  13.266   2.329 -0.2389 -0.1342  0.2463
 6771W        W21902   4.433   9.085   4.887  0.1997  0.0330 -0.1175
 6772W        W21903   2.959   4.478  14.909 -0.0779 -0.1809  0.2975
 6773W        W21904   3.243  11.082   3.926 -0.1903  0.3349 -0.0205
 6774W        W21905   0.890   7.616   1.204 -0.1142 -0.2956  0.2468
 6775W        W21906   4.562   0.474   2.922  0.1018  0.0566  0.2194
 6776W        W21907  12.076   5.659  15.783 -0.0321  0.1896 -0.1873
 6777W        W21908  14.174   0.872  14.595 -0.5586 -0.1626  0.3588
 6778W        W21909  14.753   6.036   3.124 -0.2274 -0.1202  0.0855
 6779W        W21910  10.977  11.927   5.200  0.2383  0.0012 -0.1029
 6780W        W21911  18.181   2.545   0.420  0.0854 -0.1107  0.2802
 6781W        W21912   3.236   3.392  11.727 -0.0494 -0.0804  0.2070
 6782W        W21913   5.047   2.073   2.784  0.0624  0.0704  0.0838
 6783W        W21914   3.912   6.088  13.028  0.1944 -0.2697  0.1502
 6784W        W21915   4.279  16.289   4.355  0.0141 -0.0849 -0.0409
 6785W        W21916   7.944  17.932   0.839  0.0489  0.0472 -0.0276
 6786W        W21917   7.426  15.960   1.518 -0.1378 -0.0991 -0.1077
 6787W        W21918  17.122   2.442  11.334 -0.3816 -0.2085 -0.1332
 6788W        W21919  12.769   2.419   1.163  0.1544 -0.1833 -0.2331
 6789W        W21920   6.503  14.238  10.421 -0.1638 -0.1834 -0.1250
 6790W        W21921   6.851  14.458   4.397  0.1994  0.0711 -0.0390
 6791W        W21922   4.021   6.471  14.037 -0.2042  0.0967 -0.0581
 6792W        W21923   4.554   3.625   2.296  0.1174 -0.2594 -0.0684
 6793W        W21924   9.255   5.396   0.713  0.0388  0.1497  0.1940
 6794W        W21925   6.133  10.092   1.738  0.3462  0.1316 -0.1243
 6795W        W21926  10.309   2.837  13.060  0.1587 -0.0643  0.1854
 6796W        W21927  10.696   8.185  13.824  0.0426  0.0451  0.1456
 6797W        W21928  16.794   2.916  14.004  0.1283 -0.1601 -0.1158
 6798W        W21929   5.294   9.857   1.622  0.2200 -0.6434  0.1910
 6799W        W21930   8.690   6.813   3.852  0.2528 -0.1094 -0.4054
 6800W        W21931   6.383   8.029  10.612  0.0357 -0.6202 -0.0606
 6801W        W21932  12.645  11.040  13.599 -0.1327 -0.2580 -0.3343
 6802W        W21933   3.309  17.642   2.831  0.2921  0.2540 -0.0856
 6803W        W21934  16.542  15.140   2.102  0.1826 -0.0908 -0.1952
 6804W        W21935  13.097  14.937   5.366  0.2411 -0.0895  0.0305
 6805W        W21936   6.558   8.263   3.671 -0.3304 -0.0293 -0.2652
 6806W        W21937   4.216   8.060   0.404  0.0292 -0.1775 -0.1461
 6807W        W21938   7.794   3.254   2.895  0.0513 -0.0634 -0.1195
 6808W        W21939  11.657  12.297   1.728  0.1479 -0.2184 -0.2095
 6809W        W21940  15.377  15.040   1.412  0.0197  0.1152 -0.0974
 6810W        W21941  14.935  17.980   1.376  0.1916 -0.1486  0.2287
 6811W        W21942   3.969   3.525   1.458  0.0856 -0.1615  0.1041
 6812W        W21943   9.823   1.988   2.684 -0.0706 -0.0986  0.0507
 6813W        W21944   2.182  11.605  10.625  0.2584  0.2467  0.0221
 6814W        W21945  12.610   7.040   9.942  0.0667 -0.0491  0.3891
 6815W        W21946  17.865   4.510  12.136 -0.0351  0.0241  0.1329
 6816W        W21947  15.209   3.732  11.372 -0.3976  0.0165 -0.2038
 6817W        W21948  16.977  16.734   3.817  0.0973 -0.0294  0.1587
 6818W        W21949   4.665  11.971  15.645 -0.3060  0.0887 -0.0100
 6819W        W21950   2.307   3.346   4.667  0.0205 -0.0960  0.1730
 6820W        W21951  13.799  10.197  12.609 -0.1900 -0.1095  0.2944
 6821W        W21952   8.108  13.856  12.163  0.1187 -0.3922  0.0180
 6822W        W21953   1.530  11.168   2.888 -0.0140  0.1351 -0.1990
 6823W        W21954   9.438   0.993  11.845  0.2345 -0.2855 -0.0978
 6824W        W21955   7.733   7.473   2.682 -0.2961  0.1382  0.0448
 6825W        W21956  15.257   1.605  15.584 -0.5924 -0.1298  0.0238
 6826W        W21957   2.377  13.107   5.110  0.0172 -0.2970  0.3666
 6827W        W21958  16.168   7.070  13.374 -0.0317 -0.1088  0.3789
 6828W        W21959   4.263   9.902  12.946  0.0444  0.1640 -0.3481
 6829W        W21960  11.219   2.810   0.669 -0.0796 -0.1928 -0.0544
 6830W        W21961  14.976  16.788   0.046 -0.0448  0.1789  0.0912
 6831W        W21962   8.637  14.381  12.537 -0.0882 -0.7287 -0.1214
 6832W        W21963   7.394   6.619  11.882 -0.0792  0.3359 -0.2149
 6833W        W21964  13.012   3.443  14.781  0.1966 -0.0044  0.1938
 6834W        W21965   1.983   2.547  12.500  0.1643 -0.0076 -0.3012
 6835W        W21966   0.823  15.696   5.795  0.3331  0.2386  0.1461
 6836W        W21967   5.841   6.895  12.097 -0.2887  0.0201  0.0404
 6837W        W21968  11.234   6.115   4.517 -0.2759  0.1187  0.0855
 6838W        W21969   4.083  17.742  15.530 -0.1049 -0.0010 -0.3069
 6839W        W21970  14.315   9.712   1.530 -0.1554  0.2335 -0.1158
 6840W        W21971  17.639  12.155   4.430  0.4573 -0.1455  0.0980
 6841W        W21972  10.240  12.626   3.584 -0.3179 -0.0018 -0.3084
 6842W        W21973  10.931  15.778  15.605 -0.0935  0.1683  0.1638
 6843W        W21974  17.621   2.986   1.429 -0.2261 -0.0347  0.0969
 6844W        W21975  15.702  16.610  15.384  0.0635  0.2404  0.1428
 6845W        W21976  16.915   6.585   0.241 -0.2476 -0.0381 -0.0827
 6846W        W21977  11.863   3.642  11.207 -0.0276 -0.1818 -0.1104
 6847W        W21978  14.887   8.816   2.648 -0.1024  0.1369  0.1119
 6848W        W21979   2.287  17.149  14.762  0.2414  0.1526 -0.0250
 6849W        W21980  16.226  17.894   2.311 -0.0948 -0.1186  0.2930
 6850W        W21981   5.350  13.512   4.982 -0.0974  0.3122  0.0730
 6851W        W21982   5.900   8.193  13.458  0.1663 -0.0236  0.1302
 6852W        W21983  12.842  12.676   1.618 -0.1806  0.0123  0.3561
 6853W        W21984   8.582  13.556  14.194 -0.0770 -0.1359 -0.2342
 6854W        W21985  15.768   8.952  14.838  0.1358 -0.1542  0.1384
 6855W        W21986   8.909   3.829  15.200 -0.0261 -0.0392  0.2445
 6856W        W21987  13.682   5.885  12.174 -0.1349  0.1357  0.1824
 6857W        W21988  17.345  10.467  12.549 -0.1507 -0.0412 -0.2063
 6858W        W21989   5.388  16.171  12.987  0.3618 -0.0813 -0.4041
 6859W        W21990   3.790  16.720   1.875 -0.2985 -0.0285 -0.1917
 6860W        W21991  18.011  14.552  12.315  0.0313  0.0821 -0.0522
 6861W        W21992   6.671  15.522  10.970 -0.0956 -0.0206 -0.1355
 6862W        W21993   3.837  12.936  13.926 -0.0453  0.3940  0.0862
 6863W        W21994   3.286   8.490   4.261 -0.2471  0.0714  0.0008
 6864W        W21995  14.695   3.193   0.366  0.3365 -0.1953 -0.1057
 6865W        W21996  11.512  11.549   0.690 -0.1877  0.0088 -0.0394
 6866W        W21997  12.425  14.527  10.832  0.1357  0.0277 -0.0362
 6867W        W21998   4.403  10.716  10.598 -0.1120  0.2253 -0.3119
 6868W        W21999   2.863  12.886  14.752 -0.0470  0.0934  0.0451
 6869W        W22000   1.800   1.240  15.845  0.1331  0.0266  0.4786
 6870W        W22001  12.930   2.046   0.152  0.2326 -0.0036 -0.0845
 6871W        W22002   2.553   1.067   3.489  0.1711  0.0517 -0.2796
 6872W        W22003   8.671  14.531   3.353 -0.0074  0.0338  0.1165
 6873W        W22004   0.279   6.225   3.523 -0.3101  0.0381  0.2071
 6874W        W22005   7.156   2.316   2.170  0.2121 -0.1616 -0.3540
 6875W        W22006  14.852  14.509   1.516 -0.0365 -0.2175 -0.2226
 6876W        W22007   7.269   9.404  14.565 -0.3621  0.0084  0.4610
 6877W        W22008   6.174  13.180   3.467  0.0266  0.0256  0.1808
 6878W        W22009  11.648  11.255   4.776 -0.1687  0.3955 -0.2400
 6879W        W22010   3.868   6.319  15.146  0.2194 -0.0529 -0.0055
 6880W        W22011   3.878  15.346  11.952  0.0000 -0.1657  0.3145
 6881W        W22012  16.452  14.176  15.673 -0.1410 -0.3559  0.0572
 6882W        W22013   1.360   2.290   2.548 -0.3103 -0.3032 -0.0984
 6883W        W22014  16.978   0.295   6.051  0.1521  0.1278 -0.2074
 6884W        W22015  16.065  13.855   3.203  0.0050 -0.0407 -0.2770
 6885W        W22016  13.900  15.025  11.369  0.0408  0.1612 -0.0575
 6886W        W22017  17.895  11.376   4.955 -0.2931 -0.0462  0.0790
 6887W        W22018   7.721   9.533   4.461  0.3372 -0.1714  0.1228
 6888W        W22019   8.148  17.330  12.161  0.1487 -0.0013  0.1501
 6889W        W22020  11.521   2.732   4.209 -0.0253  0.1347 -0.0471
 6890W        W22021  10.866   9.366   0.160  0.1108  0.1364  0.4984
 6891W        W22022   3.733   2.410  12.539  0.1358  0.0120 -0.0295
 6892W        W22023  15.208   9.125  15.206 -0.0070  0.2430 -0.0180
 6893W        W22024  13.894  16.086  14.058 -0.1913  0.1576 -0.1058
 6894W        W22025  18.048  10.762  10.900  0.0466 -0.1087  0.1280
 6895W        W22026   8.264   7.302  15.382  0.1598  0.2614 -0.0652
 6896W        W22027   8.095  12.296   2.938 -0.0413  0.0068  0.0572
 6897W        W22028  10.096   9.791   5.292  0.1578  0.1995  0.2379
 6898W        W22029   4.130  14.148  10.661 -0.2560  0.0287 -0.3692
 6899W        W22030   9.193   6.654   3.741 -0.1547 -0.2072 -0.2162
 6900W        W22031   1.996  17.336   2.918 -0.2976  0.0997 -0.0390
 6901W        W22032   0.889   2.617  14.726  0.2555 -0.0263  0.0200
 6902W        W22033  12.164  13.254  12.568  0.1231 -0.2404 -0.0697
 6903W        W22034   4.839   3.311  11.800  0.0620 -0.2472 -0.1774
 6904W        W22035  11.793  16.704  15.258 -0.0377  0.0372 -0.0318
 6905W        W22036   1.308   0.852  15.253  0.1205 -0.0695  0.2089
 6906W        W22037   4.013   3.345   4.707 -0.3545 -0.0819  0.2117
 6907W        W22038  15.921   5.481   5.131 -0.0116  0.3106 -0.0764
 6908W        W22039   5.706  13.753  14.939  0.0515 -0.2795 -0.2031
 6909W        W22040   8.613  11.164  14.296  0.4243 -0.0751  0.4381
 6910W        W22041  18.079  17.576  11.719  0.1370  0.3235 -0.4000
 6911W        W22042  14.789  13.714  10.453  0.0609 -0.2441  0.0155
 6912W        W22043  10.053  17.081   5.548 -0.1131  0.2487  0.0753
 6913W        W22044  16.123   1.673  10.959 -0.2320 -0.1212 -0.0685
 6914W        W22045   2.493  13.788  12.096 -0.3051 -0.1056  0.0694
 6915W        W22046   0.194   9.642  14.593  0.0786  0.1190  0.0113
 6916W        W22047  14.734   6.102  16.032  0.1415 -0.0014 -0.1038
 6917W        W22048  13.215  10.766  11.972 -0.1889 -0.2131 -0.3487
 6918W        W22049  13.197  13.175  14.828 -0.0887 -0.2818 -0.0112
 6919W        W22050  11.665   5.132   2.457  0.0514 -0.0180 -0.0040
 6920W        W22051  13.090   2.069   2.032  0.2307 -0.1810 -0.0483
 6921W        W22052  15.553  17.271   2.795  0.2443 -0.0710 -0.1419
 6922W        W22053   6.002  15.927   1.615  0.0243 -0.2507  0.0470
 6923W        W22054  16.350  11.570  12.195  0.1120  0.0906  0.1748
 6924W        W22055  10.894   8.586   3.956  0.1001  0.1851  0.1993
 6925W        W22056  17.941   3.841   5.982  0.0728 -0.3358 -0.0554
 6926W        W22057  17.741   4.166   0.373 -0.1397  0.2072  0.0284
 6927W        W22058   5.969  12.552  12.942  0.5078  0.2899  0.2209
 6928W        W22059   9.773   6.915  15.330 -0.2908 -0.0166 -0.1357
 6929W        W22060   5.656   0.257   3.014  0.1119  0.0136 -0.2187
 6930W        W22061  18.116  11.701   6.019 -0.1986 -0.3491 -0.0308
 6931W        W22062   1.308   1.141  13.900 -0.1244 -0.0042  0.1741
 6932W        W22063   1.115  10.796  15.769 -0.1170  0.1639  0.1427
 6933W        W22064  14.894  10.369   2.584 -0.0585 -0.0670  0.0553
 6934W        W22065  16.625   7.970   5.030  0.4178  0.0067  0.3063
 6935W        W22066   3.615   6.113  15.550 -0.4737  0.0791 -0.0433
 6936W        W22067   3.146   9.803   5.264 -0.0589  0.0322 -0.1027
 6937W        W22068  11.018   4.354  14.828  0.5169  0.0062 -0.0582
 6938W        W22069  10.537  16.022  14.696  0.0989  0.0242 -0.1436
 6939W        W22070   4.932  16.457  12.840  0.0825 -0.0675 -0.0569
 6940W        W22071  17.565  17.173   1.326 -0.1661  0.2147  0.2388
 6941W        W22072   1.646  18.210   2.077  0.0528 -0.0183  0.1127
 6942W        W22073  16.679   9.618   1.877  0.3404 -0.0040  0.0404
 6943W        W22074   2.675   3.198   2.134 -0.0366  0.1741 -0.3233
 6944W        W22075   0.611  15.680   3.866 -0.1532  0.3691 -0.1549
 6945W        W22076  16.076   0.954  15.869  0.0952 -0.0420 -0.5989
 6946W        W22077   7.792  16.282  15.194  0.0501 -0.2993 -0.0275
 6947W        W22078   7.363  15.417  12.823 -0.1416  0.3277 -0.0143
 6948W        W22079   7.718  15.841  10.342 -0.0528  0.1777  0.0828
 6949W        W22080  14.210  12.214  12.739 -0.0662 -0.0275  0.0283
 6950W        W22081  18.027   3.720  15.093 -0.0349  0.2170 -0.0411
 6951W        W22082   2.574   5.246  13.668  0.0772  0.2754 -0.1820
 6952W        W22083   5.392   1.292  10.645  0.0985  0.1103 -0.0739
 6953W        W22084   2.040   8.031   2.455  0.1562  0.3617  0.0654
 6954W        W22085   8.404   1.406   0.436 -0.1992 -0.0320 -0.1469
 6955W        W22086   7.742   5.060  11.776  0.3211 -0.0550 -0.3571
 6956W        W22087   8.739  12.289  12.043  0.0993 -0.0462 -0.2453
 6957W        W22088   2.110   5.529  12.180 -0.0394  0.0096 -0.1212
 6958W        W22089  12.733  10.649  14.422  0.2482  0.1614 -0.1198
 6959W        W22090   0.236  10.668  12.777  0.0323  0.2919  0.0526
 6960W        W22091   5.706  16.152   4.413 -0.0625 -0.2315 -0.6346
 6961W        W22092  18.078   0.317   4.729 -0.0523 -0.1568  0.3478
 6962W        W22093  14.463   0.148  12.884 -0.2435 -0.0462 -0.3014
 6963W        W22094  17.291  12.634   3.027 -0.1651  0.2314  0.1603
 6964W        W22095   3.134  17.044  12.772  0.0058 -0.1383  0.0668
 6965W        W22096  13.207  17.019   0.865  0.3314 -0.0472 -0.0339
 6966W        W22097  14.366   0.804  13.593  0.3784 -0.1065 -0.0320
 6967W        W22098   4.418  15.115   5.346  0.1382  0.0900  0.2139
 6968W        W22099   1.007  12.334   1.460  0.0363 -0.0477 -0.4222
 6969W        W22100  13.242  17.548   2.833  0.1473 -0.0180  0.2148
 6970W        W22101   4.065   9.421   0.540 -0.2230  0.1856  0.1306
 6971W        W22102  12.056   7.151   3.091  0.0786  0.0114 -0.0935
 6972W        W22103  14.793   3.420  15.952 -0.2545  0.1600 -0.0680
 6973W        W22104  10.161   9.951   2.901  0.2642 -0.3523  0.0288
 6974W        W22105   8.130  15.775  12.687 -0.3926  0.0357 -0.1681
 6975W        W22106   0.727   1.088  13.041  0.1415 -0.5110 -0.1112
 6976W        W22107   7.491   9.068   3.124 -0.0354 -0.1037  0.1581
 6977W        W22108   1.447   1.640  13.668  0.2664 -0.3552 -0.0614
 6978W        W22109   4.167   8.187   5.232 -0.0904  0.2605 -0.1877
 6979W        W22110   6.459   8.329   4.865 -0.2976  0.0633  0.1006
 6980W        W22111  14.161  11.311  13.094  0.0885 -0.4762 -0.1853
 6981W        W22112   8.540  17.166  14.260  0.4748 -0.2134  0.0792
 6982W        W22113  11.413   6.702   5.368 -0.0700  0.0279 -0.0700
 6983W        W22114  13.641   0.070   3.250  0.0753 -0.1968  0.2253
 6984W        W22115  16.613  12.344   2.062 -0.0053 -0.6223 -0.1493
 6985W        W22116   4.011   3.725  15.309  0.3606  0.0868  0.2162
 6986W        W22117  18.027   6.423   5.410  0.1068  0.2641  0.1985
 6987W        W22118   8.239   4.409  14.831  0.0498 -0.1397  0.0725
 6988W        W22119   5.879   3.564  14.132  0.0623 -0.0450  0.0103
 6989W        W22120   5.755  14.433   4.421 -0.3497 -0.2369 -0.1741
 6990W        W22121   1.686  15.338  12.429  0.1083  0.0235  0.1338
 6991W        W22122  11.753  14.198  14.047  0.2756 -0.1298  0.1928
 6992W        W22123   7.699   7.932  14.148 -0.0200 -0.0279 -0.0293
 6993W        W22124   1.823   0.352   0.002 -0.1740  0.1917  0.1701
 6994W        W22125  10.893   1.371  15.897  0.3735  0.2385  0.5964
 6995W        W22126   1.497   6.828   4.800 -0.1509  0.0237 -0.0339
 6996W        W22127   7.030  14.119   4.046  0.1649  0.2021  0.3916
 6997W        W22128   6.351  10.143   0.795 -0.0615 -0.0416 -0.0616
 6998W        W22129   2.761  14.360  11.353  0.1959  0.1166 -0.0852
 6999W        W22130   9.311   6.887   4.722  0.2996  0.2819  0.0164
 7000W        W22131  16.355  12.807   4.556 -0.0332  0.1975 -0.2351
 7001W        W22132  14.912  16.971   4.956  0.1141 -0.0976 -0.0180
 7002W        W22133   5.960  11.422  15.049  0.0181 -0.0359  0.0432
 7003W        W22134  17.711   5.751   5.782 -0.2523 -0.0184 -0.2097
 7004W        W22135   5.590   3.944  15.419  0.2060  0.1255 -0.1035
 7005W        W22136  14.449   0.603  11.809 -0.1546 -0.3453 -0.2851
 7006W        W22137   9.641  11.119  14.534  0.2615  0.3059  0.2706
 7007W        W22138   5.807  14.117   3.182  0.0611  0.2984  0.0274
 7008W        W22139  15.544  12.133  15.158  0.1835  0.1602 -0.2449
 7009W        W22140  10.349  12.223   2.849 -0.0955 -0.2575 -0.1783
 7010W        W22141  12.618   0.284   5.246  0.2382  0.1618  0.1677
 7011W        W22142   9.859  16.082  13.915 -0.2364 -0.0797  0.0985
 7012W        W22143  12.165  15.347  12.477  0.1282  0.1276 -0.0900
 7013W        W22144   2.909   3.992   2.673 -0.2572  0.1772 -0.0140
 7014W        W22145  11.533  17.988   5.245 -0.0762 -0.0642 -0.0100
 7015W        W22146  11.198   1.751  14.518 -0.3273 -0.2121 -0.0240
 7016W        W22147   8.597  17.266  15.689  0.0452 -0.0266  0.1769
 7017W        W22148   3.114   8.663  14.999 -0.0551 -0.1065 -0.2062
 7018W        W22149   7.829   2.806  12.480  0.0162  0.0078  0.1832
 7019W        W22150   5.509  10.763  15.715 -0.2269  0.5776 -0.0751
 7020W        W22151  16.965   1.674  13.691 -0.1618  0.0852  0.2935
 7021W        W22152  11.269   7.748   1.552 -0.0618 -0.1990 -0.2166
 7022W        W22153  15.077   2.000   2.153 -0.4018 -0.1086  0.1851
 7023W        W22154  18.076  12.345   4.171  0.0516  0.2501  0.0756
 7024W        W22155   6.567   7.538  12.256 -0.2051  0.3459 -0.4094
 7025W        W22156  16.300   4.491  14.487 -0.0839  0.1716 -0.0284
 7026W        W22157  15.693  17.566  12.778 -0.1227  0.1738 -0.0797
 7027W        W22158  11.420   4.601  13.614  0.0573 -0.0511  0.0643
 7028W        W22159   5.493   8.504   3.842 -0.1718  0.0880 -0.1821
 7029W        W22160   2.595  17.898  11.868  0.2157 -0.1128 -0.2638
 7030W        W22161  12.529   9.838  14.813  0.0372 -0.0934  0.1008
 7031W        W22162   6.905  15.787   5.118 -0.1030 -0.0183  0.2537
 7032W        W22163  14.030   6.283  13.430  0.1457  0.0120  0.1481
 7033W        W22164   7.075   0.597   3.505 -0.3613  0.0484  0.3590
 7034W        W22165   1.354  15.647  12.072 -0.1501 -0.2971  0.3290
 7035W        W22166  14.471  14.865  13.505  0.0141 -0.0655 -0.0911
 7036W        W22167   4.066   4.525  13.971 -0.1153  0.2186 -0.0365
 7037W        W22168   3.280  10.274   1.169 -0.2017  0.1926 -0.0379
 7038W        W22169   6.708  10.280   5.398 -0.2295 -0.0749  0.3961
 7039W        W22170  18.080   3.213   0.139 -0.1208  0.2681 -0.4184
 7040W        W22171  17.557   7.328  10.855  0.1469  0.1092 -0.3538
 7041W        W22172   9.528  14.884   3.750  0.1124 -0.3274  0.1545
 7042W        W22173   2.875  13.570   2.852 -0.2112 -0.1551  0.0483
 7043W        W22174   1.593   5.192  12.407  0.0698  0.0141  0.0948
 7044W        W22175   7.304  16.428  12.064 -0.0291 -0.0053 -0.0257
 7045W        W22176  14.782  15.490   3.400 -0.1573 -0.1361  0.1486
 7046W        W22177  10.997   2.900   1.066 -0.1699 -0.1391  0.1758
 7047W        W22178   3.726  14.023  14.681 -0.3474  0.3592  0.0179
 7048W        W22179   5.096   8.190   3.155  0.1225 -0.1794  0.1354
 7049W        W22180   3.632  10.157  15.176 -0.0140  0.2792  0.2714
 7050W        W22181  16.349   5.280  15.566 -0.0486 -0.0625  0.0064
 7051W        W22182  14.976   2.919   1.222  0.1126 -0.1073 -0.0134
 7052W        W22183  10.005   6.154   0.844  0.0012 -0.1940 -0.2789
 7053W        W22184  15.531  16.136  15.481  0.5021 -0.2443 -0.1967
 7054W        W22185   2.659  16.765  14.080  0.0219 -0.0247  0.0338
 7055W        W22186   2.659   8.260   1.631 -0.5692 -0.2488 -0.0076
 7056W        W22187   5.824   7.332   4.429  0.0386  0.0366 -0.1479
 7057W        W22188   1.749  17.868   4.202  0.1632 -0.1593  0.2870
 7058W        W22189   4.299   3.342  11.760  0.1796  0.2152  0.1182
 7059W        W22190  12.093  16.671   0.320  0.0279  0.1700 -0.0370
 7060W        W22191   4.059  12.310  15.667  0.1329 -0.2076  0.2127
 7061W        W22192  12.723   9.763   3.608 -0.3022 -0.0544 -0.1057
 7062W        W22193  17.803   0.632  12.660 -0.2696  0.0623 -0.2697
 7063W        W22194   7.000   8.811  10.892  0.5082  0.0833 -0.0430
 7064W        W22195  12.449  16.540  11.397  0.4230 -0.1800 -0.3031
 7065W        W22196  16.912  13.757  14.806  0.1306  0.1658 -0.1532
 7066W        W22197   0.865   9.832   1.185 -0.2691  0.0116  0.2173
 7067W        W22198  13.175   4.683   2.846  0.0432  0.3397  0.0045
 7068W        W22199   0.105  13.464   3.502 -0.1885 -0.3626 -0.1477
 7069W        W22200   5.095  13.048  15.287 -0.1696  0.2111  0.1997
 7070W        W22201  11.240   5.773  14.563 -0.0172  0.3316  0.1562
 7071W        W22202   4.369  17.346   2.108 -0.1703  0.1110 -0.1413
 7072W        W22203  14.338  15.706  13.512 -0.0525  0.3660 -0.0046
 7073W        W22204   2.601   8.280  10.122  0.0082  0.2685 -0.1948
 7074W        W22205  16.985   6.096  14.405 -0.4514 -0.2648  0.1613
 7075W        W22206  16.542  16.104   2.748 -0.0499  0.0343  0.0565
 7076W        W22207  12.719   6.031  13.119  0.3148 -0.3951 -0.2342
 7077W        W22208  17.030   4.000   3.524 -0.2201 -0.1312 -0.0653
 7078W        W22209  11.015  17.139   3.185 -0.0729  0.0235 -0.1278
 7079W        W22210   5.490  16.293  15.140  0.0518  0.0704 -0.3111
 7080W        W22211  14.465   5.461  11.673 -0.0955 -0.4061  0.0446
 7081W        W22212  12.941   8.401   3.347  0.0326  0.0607 -0.2134
 7082W        W22213  18.303  15.761  14.018 -0.3146  0.0997 -0.1228
 7083W        W22214   8.316   4.956  11.229  0.0089 -0.4455 -0.2556
 7084W        W22215  11.429  13.357   3.493  0.0504 -0.1481  0.2333
 7085W        W22216  11.108  17.642   4.801  0.1915 -0.2376  0.0235
 7086W        W22217   6.562  13.392  13.083 -0.0030  0.2011  0.0757
 7087W        W22218  10.964   7.323   5.034 -0.3312 -0.0570  0.0158
 7088W        W22219   2.556   7.675  14.133 -0.0787  0.0029  0.1507
 7089W        W22220   8.808  13.574  13.686  0.0543 -0.0763  0.1296
 7090W        W22221  15.204  14.322   3.528  0.1347  0.0251 -0.1180
 7091W        W22222   2.237   0.305   3.940  0.0247 -0.1679 -0.2760
 7092W        W22223   2.478  10.275  16.032 -0.1204  0.0918  0.1817
 7093W        W22224  16.567  15.095  14.174  0.1019 -0.0830  0.1113
 7094W        W22225   3.228  13.739   5.317  0.0425 -0.0684 -0.0580
 7095W        W22226  16.663  12.017   2.979  0.1564 -0.1624  0.1533
 7096W        W22227   2.197   7.562   4.629 -0.0848 -0.0388 -0.0535
 7097W        W22228  10.313  15.630  14.486  0.0548 -0.0781 -0.3106
 7098W        W22229  15.739  17.017  11.902  0.1752 -0.1573  0.2020
 7099W        W22230  15.767   3.219  11.124 -0.1599 -0.0672 -0.2482
 7100W        W22231   5.868   7.439   5.449 -0.0857 -0.1659 -0.2626
 7101W        W22232  14.610  16.043  14.671  0.3848 -0.0111 -0.2602
 7102W        W22233  13.054  16.337  15.341  0.0443  0.1105  0.1080
 7103W        W22234   7.253  10.227  12.727  0.1186  0.0165  0.0400
 7104W        W22235   8.454   8.020  15.836  0.0769 -0.0531  0.0884
 7105W        W22236  13.425   3.481  15.877  0.1031  0.1704  0.1992
 7106W        W22237  11.877  14.919  12.365  0.1542  0.2591  0.0188
 7107W        W22238  16.944   8.950  11.878 -0.1341  0.1440  0.2915
 7108W        W22239   0.802  16.053  14.298 -0.0052  0.3201 -0.0413
 7109W        W22240   5.020   0.074  15.004  0.0566 -0.2247  0.2166
 7110W        W22241  17.948  15.630   1.731  0.0007 -0.1297 -0.2224
 7111W        W22242   4.682   6.945   4.578  0.1267  0.2133 -0.0542
 7112W        W22243   8.106   7.801   2.641  0.2828 -0.0218 -0.0228
 7113W        W22244   8.815   8.146  16.144  0.0448  0.2655 -0.0091
 7114W        W22245   9.755  12.556  12.282 -0.0729 -0.1866  0.1324
 7115W        W22246   9.702  16.338   1.588 -0.0050  0.0574 -0.2801
 7116W        W22247   5.095  15.444   5.358 -0.2762 -0.2089 -0.4604
 7117W        W22248  12.639  14.920   5.154  0.1071 -0.1268  0.0380
 7118W        W22249   0.044   1.785   0.861  0.2995  0.1534 -0.0140
 7119W        W22250   6.762  12.167  14.509 -0.4630 -0.5471 -0.1951
 7120W        W22251  17.413   8.092   1.357 -0.0228 -0.4277  0.0250
 7121W        W22252  18.044  11.017   1.620 -0.5487 -0.0845 -0.0027
 7122W        W22253   5.875  13.862   5.104  0.0975 -0.3815  0.0436
 7123W        W22254   4.443   8.463   1.760 -0.0709  0.1313  0.1422
 7124W        W22255   3.519  11.490  12.821  0.4363  0.1543  0.2674
 7125W        W22256  16.669   7.800  13.302 -0.1288 -0.1016  0.1200
 7126W        W22257  12.440   2.623   2.684  0.0889 -0.1419 -0.0957
 7127W        W22258  17.715   9.220   0.206  0.0678  0.2421 -0.1017
 7128W        W22259  13.547  13.424  14.515 -0.4659 -0.1436 -0.5291
 7129W        W22260   9.751  14.445   5.400  0.0020  0.1693  0.0167
 7130W        W22261  16.320  10.095  13.675 -0.0589 -0.0051  0.1499
 7131W        W22262   2.967   7.600  15.980  0.0519 -0.3029  0.0132
 7132W        W22263  11.658   0.536  12.021 -0.0818 -0.0330  0.1739
 7133W        W22264   7.553   7.602  11.849  0.2619 -0.1928 -0.1949
 7134W        W22265   4.310   1.740   3.834  0.1016  0.2876  0.0555
 7135W        W22266  13.331  12.114   5.201 -0.2589 -0.1347  0.2229
 7136W        W22267   2.604  14.314   0.516  0.1621 -0.2220  0.0107
 7137W        W22268   1.401  11.255  14.523 -0.1593  0.1562  0.2220
 7138W        W22269   5.004  13.367  11.992  0.3625  0.2311 -0.1085
 7139W        W22270   3.572  10.561  15.686  0.0336  0.0884  0.0161
 7140W        W22271   9.961   3.292   5.516 -0.0237 -0.2189 -0.0626
 7141W        W22272   0.973  12.079  11.492 -0.1477  0.2629  0.0270
 7142W        W22273   9.186  14.549  13.437  0.0537  0.3793  0.1839
 7143W        W22274   4.451  16.088   3.389  0.0908  0.2450  0.0400
 7144W        W22275  12.252   5.171  15.921  0.2104  0.2905 -0.3115
 7145W        W22276   6.500   0.570   5.169  0.0377 -0.0279 -0.2837
 7146W        W22277   1.132  14.422  12.734  0.0442  0.0729 -0.0234
 7147W        W22278   5.312   5.123  14.962 -0.0380 -0.0756  0.1185
 7148W        W22279  14.995   0.623  10.956  0.1647  0.2568 -0.0676
 7149W        W22280  15.634  17.440  15.920  0.0516 -0.0293  0.0832
 7150W        W22281  13.327   0.231   3.569 -0.0745 -0.0881  0.0235
 7151W        W22282  10.229   3.772  15.023 -0.0545 -0.1709  0.2038
 7152W        W22283  13.282  15.910   2.072  0.1841  0.0874 -0.3390
 7153W        W22284   6.423   5.224   3.402 -0.0372  0.3211 -0.0105
 7154W        W22285  18.295  15.509   4.046 -0.1415 -0.2589  0.2898
 7155W        W22286  15.779   5.921  11.554 -0.1866 -0.0993 -0.0560
 7156W        W22287  11.013   2.395   0.943 -0.0271  0.0027 -0.1073
 7157W        W22288   5.640  14.049   4.148  0.0120 -0.1715 -0.1104
 7158W        W22289   7.587  14.098  13.513  0.1098 -0.0129  0.1292
 7159W        W22290  13.094  13.923   1.186 -0.0556  0.1025 -0.1619
 7160W        W22291  16.969   7.196   0.912 -0.1210 -0.1673 -0.0069
 7161W        W22292   5.600   7.054  15.546  0.2104 -0.0144  0.1778
 7162W        W22293   2.158  14.103   4.537 -0.0498  0.0411  0.1697
 7163W        W22294  14.865  15.299  13.294 -0.0697 -0.2563  0.0505
 7164W        W22295   5.394  13.138   0.739  0.1434  0.0100  0.1986
 7165W        W22296  15.616  13.869  12.309 -0.1962 -0.2172 -0.2620
 7166W        W22297  12.310  11.743  14.951 -0.3762  0.2734 -0.0301
 7167W        W22298   7.624   7.473  13.194 -0.0229 -0.1658  0.1811
 7168W        W22299  16.052   0.776   0.886  0.1591 -0.3394 -0.2057
 7169W        W22300  16.166   0.856   1.353  0.0011  0.0945  0.0389
 7170W        W22301   8.513   6.030  14.059 -0.0189 -0.2000 -0.5257
 7171W        W22302  14.399  13.734  12.411  0.0221 -0.0074 -0.1339
 7172W        W22303  13.182  17.607  10.769 -0.3914  0.1772  0.1441
 7173W        W22304   9.751   4.457   0.342 -0.4243 -0.0949 -0.0347
 7174W        W22305  12.475  15.535  14.771 -0.1636 -0.1114  0.1446
 7175W        W22306  13.344   0.641   3.287  0.0783  0.0191  0.0751
 7176W        W22307  17.324  13.466   4.506 -0.1792  0.5464 -0.0941
 7177W        W22308  12.618   7.481  12.560 -0.1430  0.0452  0.2024
 7178W        W22309   8.688   7.535   1.140 -0.0817  0.1512 -0.2700
 7179W        W22310  10.998  16.119   0.470  0.3387  0.0460 -0.0595
 7180W        W22311   2.106  16.681  15.775 -0.1197  0.1718 -0.2139
 7181W        W22312   8.450   3.894  11.868  0.1389  0.0502 -0.0570
 7182W        W22313  13.483   4.814   2.233 -0.1605 -0.2197  0.4688
 7183W        W22314  17.365   2.855  10.838 -0.1715  0.1069 -0.1387
 7184W        W22315   8.276  14.221   3.477  0.1014 -0.0915  0.0565
 7185W        W22316  13.439   9.792   1.897 -0.3678  0.0396 -0.1679
 7186W        W22317   2.490  11.517   3.357  0.1115  0.3297 -0.0586
 7187W        W22318   9.093   5.283   1.211  0.0217 -0.2026 -0.0987
 7188W        W22319  17.070  15.677  12.980  0.2696  0.0032 -0.1290
 7189W        W22320   0.315  14.089  12.601 -0.1332 -0.1368  0.0747
 7190W        W22321  12.404  11.489  11.832  0.0732  0.2518 -0.0301
 7191W        W22322   0.888   5.815   5.165 -0.0588  0.0202  0.0270
 7192W        W22323  13.288   3.022  14.818  0.2756 -0.1064  0.0617
 7193W        W22324  12.143   1.375  12.319 -0.2373 -0.3160  0.0811
 7194W        W22325   2.637  17.551   0.276  0.6748 -0.0811  0.1534
 7195W        W22326  16.121  13.440   0.222  0.0734  0.1700  0.3022
 7196W        W22327  17.874   8.437  14.024  0.0251  0.0120  0.1542
 7197W        W22328   7.394  10.556  15.515 -0.1622 -0.3093 -0.1231
 7198W        W22329   9.187   5.179   3.069  0.2000 -0.3177  0.3835
 7199W        W22330  10.651  10.360  11.816  0.3397 -0.2599  0.1844
 7200W        W22331  17.614   1.469   1.041 -0.0431  0.0158  0.3137
 7201W        W22332  18.304  10.616   1.840 -0.2220 -0.0070  0.2177
 7202W        W22333   3.965   3.254   0.434 -0.0805  0.0169 -0.0932
 7203W        W22334   9.628   5.462  13.663  0.1212  0.1602 -0.1845
 7204W        W22335   6.742   2.318  10.906  0.0943  0.0575 -0.1743
 7205W        W22336  16.036   1.426   3.693 -0.0317  0.1790  0.2332
 7206W        W22337   1.340   6.725  16.010  0.1204  0.0429  0.2434
 7207W        W22338  17.752  12.661   0.284  0.0983 -0.1786  0.1255
 7208W        W22339  11.578  11.094   2.047 -0.3949  0.4894 -0.2627
 7209W        W22340  15.468  10.160   1.864  0.1210  0.1739 -0.3002
 7210W        W22341  17.534   1.041  11.490 -0.0856  0.3632 -0.3227
 7211W        W22342   4.596   9.668  12.211 -0.1632  0.1958  0.0502
 7212W        W22343  13.087  13.811  12.256  0.0625  0.2805 -0.2527
 7213W        W22344   5.159   0.069  11.404  0.2099 -0.1671  0.0636
 7214W        W22345  12.481   2.810  11.884  0.1464  0.1429  0.3295
 7215W        W22346   8.408  13.400  10.384  0.1197  0.0879 -0.0894
 7216W        W22347   3.175   1.092  13.534  0.1326 -0.1182 -0.1668
 7217W        W22348   2.879  16.925   1.016  0.0661 -0.1215  0.1504
 7218W        W22349   8.080  13.557  12.866 -0.1342 -0.1133  0.1466
 7219W        W22350   3.935   3.925  14.834 -0.1438  0.0860 -0.0790
 7220W        W22351  13.379   0.236  14.407  0.0664  0.2130  0.0362
 7221W        W22352   7.547   5.680  15.841 -0.2151 -0.0035 -0.1373
 7222W        W22353  16.380   8.187  15.678 -0.1464 -0.2386  0.3108
 7223W        W22354  16.303   0.175   5.287 -0.0981  0.2736 -0.3116
 7224W        W22355  13.900  12.713   6.390  0.2956  0.1183 -0.2479
 7225W        W22356   8.243   8.323   0.696 -0.1551  0.0744  0.0604
 7226W        W22357   3.385  18.068  13.182 -0.3051  0.1611  0.3305
 7227W        W22358   2.453  14.918   1.751 -0.0338 -0.1623  0.1482
 7228W        W22359   3.545   3.979   5.274  0.0124 -0.1521  0.0435
 7229W        W22360   0.264   8.733  15.247  0.0230 -0.0532 -0.0513
 7230W        W22361  14.098   8.450  14.693  0.2430  0.0597 -0.0388
 7231W        W22362   0.245  12.614   3.407  0.1241 -0.0072 -0.0727
 7232W        W22363  11.693   2.507  10.385 -0.1980 -0.0923 -0.0063
 7233W        W22364   8.934  10.527   6.129 -0.0930 -0.0134  0.1578
 7234W        W22365  11.447   5.321   4.890 -0.1143  0.3936  0.3566
 7235W        W22366   8.600   6.951   1.573 -0.0002  0.2808 -0.2140
 7236W        W22367  15.893  11.181   2.706 -0.0193 -0.0550  0.1479
 7237W        W22368   9.775  15.637  11.554  0.2441 -0.1572 -0.2381
 7238W        W22369   0.352   7.042  13.906 -0.0844  0.1932  0.0891
 7239W        W22370   0.669   4.240   0.989  0.1547 -0.3127 -0.2491
 7240W        W22371   3.244  15.135   5.456 -0.3672 -0.0837  0.1640
 7241W        W22372  11.708  11.446  12.084 -0.2193  0.3292  0.0906
 7242W        W22373   6.037   0.841   4.827 -0.2241  0.0249  0.1310
 7243W        W22374  16.364   9.329   4.615 -0.0697 -0.1135  0.0926
 7244W        W22375  16.127   9.990   2.669  0.1822 -0.1626 -0.0991
 7245W        W22376   6.519  17.052  14.085 -0.0124  0.1227  0.2001
 7246W        W22377  11.423  13.627   3.930 -0.1955  0.3737  0.3404
 7247W        W22378   6.968  13.428   0.468 -0.1126 -0.2232 -0.0214
 7248W        W22379   4.661   2.850  12.360  0.1563  0.2112  0.2580
 7249W        W22380  10.816  15.840  11.316  0.0220 -0.2088 -0.3797
 7250W        W22381   8.965   5.745   4.324 -0.0404  0.2853 -0.2402
 7251W        W22382   6.051  14.032   2.141 -0.0960 -0.0295  0.0021
 7252W        W22383  15.242   3.749  13.876 -0.1298  0.0952  0.0790
 7253W        W22384  15.995   4.477  12.317  0.0732  0.0427  0.0113
 7254W        W22385  14.012  15.491  11.150 -0.1402  0.3427  0.0158
 7255W        W22386   8.730   3.026  13.298  0.0878 -0.1625  0.2783
 7256W        W22387   3.435   8.418   0.880 -0.0205 -0.0598  0.2143
 7257W        W22388  13.612  16.608   4.751  0.1285 -0.1927 -0.2489
 7258W        W22389   9.557   8.605  14.530  0.1565  0.0985 -0.2991
 7259W        W22390  17.697  11.728   1.087  0.3435 -0.1410 -0.0305
 7260W        W22391   4.746  15.752  15.055 -0.3035 -0.1910 -0.1315
 7261W        W22392  12.852   2.120  11.214  0.3074  0.1396  0.1926
 7262W        W22393  11.472  14.508  10.741 -0.0346 -0.2402 -0.2870
 7263W        W22394   0.920   4.672   4.288  0.0428  0.0549 -0.0018
 7264W        W22395   5.108  13.482  13.506  0.1485 -0.1224 -0.4994
 7265W        W22396   7.183  12.718   4.599  0.0832 -0.0741 -0.0161
 7266W        W22397   9.670  14.355   1.651  0.0943 -0.0119  0.0416
 7267W        W22398  17.961   2.025  11.703  0.1006  0.0161  0.1889
 7268W        W22399   6.732  13.230   3.727 -0.1566 -0.0186 -0.0402
 7269W        W22400   4.020   2.919  15.409 -0.3099 -0.1390 -0.0047
 7270W        W22401   6.901   2.614   2.675 -0.1976  0.1594 -0.1023
 7271W        W22402  12.660  17.894  11.655 -0.0174 -0.3117  0.0750
 7272W        W22403   9.623   5.210   2.134 -0.1708 -0.2619  0.1409
 7273W        W22404  17.710   6.813  16.065  0.2709  0.0545  0.0937
 7274W        W22405   0.790   0.783  15.264 -0.3580 -0.5362  0.1063
 7275W        W22406  12.949   7.263  15.214  0.0220  0.1110 -0.0817
 7276W        W22407  18.096   8.982  14.632  0.0497 -0.2837 -0.0298
 7277W        W22408   8.620   7.568   4.594 -0.2181 -0.0175 -0.1014
 7278W        W22409   1.891  10.729   4.553  0.0060  0.1875  0.0530
 7279W        W22410  15.136   1.679   1.143  0.0439 -0.0185 -0.0402
 7280W        W22411  17.245  17.845  14.326  0.0416  0.3693  0.0779
 7281W        W22412   8.871  16.533  11.076  0.4113 -0.0024 -0.0233
 7282W        W22413  11.133  10.157  11.107 -0.2495  0.2419 -0.1207
 7283W        W22414  17.892  10.000   9.956  0.0796  0.0320 -0.2925
 7284W        W22415   6.229  16.667  10.392 -0.3155  0.0357  0.0800
 7285W        W22416   3.709   2.130  14.102  0.0655 -0.0256 -0.2038
 7286W        W22417  15.381  12.377   2.312 -0.0023 -0.0356 -0.0494
 7287W        W22418  10.652   1.879   4.897  0.5320  0.1286 -0.2470
 7288W        W22419   2.144  10.330   0.676  0.2461  0.0597 -0.0628
 7289W        W22420   7.106   4.458  10.681  0.1875 -0.0783  0.0400
 7290W        W22421  15.357  17.808   2.957  0.1742 -0.2403  0.0539
 7291W        W22422  11.500  10.779   4.622 -0.3413  0.0758 -0.1416
 7292W        W22423   9.055  16.707  11.921  0.1831  0.3869 -0.2195
 7293W        W22424   4.454   0.192   1.630  0.0152  0.2693  0.0094
 7294W        W22425  12.444   4.403  12.885  0.1733  0.0160 -0.3568
 7295W        W22426  17.198   6.444  14.074  0.0395  0.0366  0.0056
 7296W        W22427  17.284   4.552  12.295 -0.0001 -0.0276 -0.1072
 7297W        W22428  16.113  11.668  15.829  0.0363  0.1743 -0.0032
 7298W        W22429  13.752  13.070   4.663 -0.4239  0.0966 -0.0407
 7299W        W22430  17.700   7.834   0.306  0.0679 -0.0458 -0.2307
 7300W        W22431   7.584   7.653   0.390 -0.1407 -0.0873 -0.1971
 7301W        W22432  16.537   3.280  15.296  0.1716  0.1063 -0.0200
 7302W        W22433  13.802  10.866  13.215 -0.1613 -0.1783 -0.1440
 7303W        W22434   3.199   4.389  15.410 -0.0427 -0.0829 -0.2159
 7304W        W22435  16.794  10.524   4.082  0.4240  0.2474  0.1016
 7305W        W22436   5.825  18.345  12.708 -0.1886 -0.2111 -0.1372
 7306W        W22437  11.854  13.790   3.240  0.0982  0.1254  0.1747
 7307W        W22438   5.857   0.373  13.913 -0.1612 -0.1399  0.0824
 7308W        W22439   0.026  17.771   2.808 -0.0581 -0.5112  0.0784
 7309W        W22440   2.251   8.798  14.490 -0.1341  0.1377 -0.2165
 7310W        W22441  16.019  12.132  14.464  0.1869  0.0684 -0.2381
 7311W        W22442   5.809  13.606   3.349  0.0723  0.1887 -0.3726
 7312W        W22443  15.276   1.174  11.833  0.4467  0.2547 -0.2194
 7313W        W22444   2.315  16.068   2.573  0.1590 -0.1237 -0.1025
 7314W        W22445   0.097   3.455  12.716 -0.1867  0.3225 -0.2989
 7315W        W22446   7.124  15.348   4.430  0.3170  0.0166  0.0355
 7316W        W22447   8.330   6.471  12.609 -0.1686 -0.1052 -0.1741
 7317W        W22448   7.422  14.658  13.468 -0.0833 -0.1191  0.3066
 7318W        W22449   0.155   0.493  13.388  0.0558  0.1965 -0.2175
 7319W        W22450   9.494  16.106   0.794 -0.1183 -0.0790 -0.0331
 7320W        W22451  14.903   1.822  15.801  0.1822  0.2979  0.1874
 7321W        W22452  13.181  12.319  15.373  0.1169  0.1216  0.0903
 7322W        W22453   2.051  10.220   9.993 -0.0134 -0.2418 -0.0641
 7323W        W22454   0.817   5.958  15.885  0.0944 -0.0163  0.0364
 7324W        W22455   0.599  10.621   2.454 -0.3163 -0.1483 -0.0430
 7325W        W22456   2.458   6.537   2.516  0.0683 -0.1365 -0.1539
 7326W        W22457   1.442  16.364  12.002 -0.3277 -0.0850 -0.2263
 7327W        W22458  15.242  10.807   0.651 -0.0040  0.1437 -0.4233
 7328W        W22459   2.716  17.371   0.816  0.0589  0.1513  0.0413
 7329W        W22460  13.012   1.197  13.066 -0.2473  0.1144  0.0574
 7330W        W22461  13.106  11.792  15.573 -0.0408 -0.0984  0.4002
 7331W        W22462  16.228   3.748   4.709 -0.1109 -0.1544  0.0984
 7332W        W22463   2.671  16.785   5.812  0.0620  0.0803 -0.3270
 7333W        W22464   2.877  11.733  11.801 -0.2140  0.2037 -0.1053
 7334W        W22465  10.032   2.504  15.701  0.2167  0.0616 -0.0122
 7335W        W22466  12.648   2.312  15.845 -0.1937  0.0312 -0.0869
 7336W        W22467  15.956   3.280   4.589 -0.3257  0.2129  0.0710
 7337W        W22468  14.801   5.938   3.617 -0.1539 -0.0100 -0.1771
 7338W        W22469  15.126  17.395  14.233 -0.0728  0.0747  0.1972
 7339W        W22470   1.138   1.636  15.134  0.1203  0.4077  0.1795
 7340W        W22471  16.485   4.686   1.621 -0.3628 -0.2630  0.0395
 7341W        W22472  16.699   6.359   4.906  0.3233 -0.2560 -0.2200
 7342W        W22473   0.939   1.160  13.525  0.2680  0.0451 -0.2161
 7343W        W22474   4.795  16.028  15.837 -0.0752  0.3723  0.0820
 7344W        W22475   9.908  17.440   3.506 -0.0593 -0.0690 -0.0069
 7345W        W22476  12.827   6.160   6.011  0.0689 -0.0911 -0.0256
 7346W        W22477  18.362  10.221  11.679 -0.0944  0.2176  0.0961
 7347W        W22478  14.070  15.290  12.713 -0.2670  0.0518  0.0866
 7348W        W22479   2.169   1.668  10.820 -0.0719  0.2301  0.0245
 7349W        W22480  15.536   8.976  12.441 -0.0346 -0.1130  0.0774
 7350W        W22481  12.015   2.254   2.701 -0.1124 -0.1064  0.0168
 7351W        W22482  12.657  11.507   2.259 -0.1228  0.0095  0.0611
 7352W        W22483   0.132  11.323  14.702 -0.0125 -0.0828  0.0863
 7353W        W22484  15.519  17.146  11.121 -0.1620  0.3540 -0.1632
 7354W        W22485  10.032   5.241  12.814 -0.1416 -0.1278 -0.2790
 7355W        W22486   8.627   5.913  11.115  0.0163  0.0265 -0.1936
 7356W        W22487   9.828  16.558   3.242  0.2343 -0.3680  0.1799
 7357W        W22488  18.010  14.330  15.230  0.2411  0.2600  0.0174
 7358W        W22489   4.292  18.223   1.344  0.0434 -0.0598  0.2740
 7359W        W22490   7.133   8.338  11.126 -0.0761 -0.2058 -0.1367
 7360W        W22491   6.523   1.760   2.776 -0.2179  0.1268 -0.1908
 7361W        W22492  11.585   6.211  15.216 -0.3300 -0.1645  0.2249
 7362W        W22493  15.417   5.181  13.636 -0.0150 -0.3793 -0.3431
 7363W        W22494  18.283   2.527   2.763 -0.1321  0.2240 -0.1248
 7364W        W22495   7.095   9.185   5.007  0.0704 -0.1028  0.2693
 7365W        W22496   6.846   3.434   0.443  0.1480 -0.0393  0.3529
 7366W        W22497  15.870  15.051   3.214  0.0012  0.0747  0.0010
 7367W        W22498   6.077   8.914   3.692  0.0099  0.0623  0.0665
 7368W        W22499  15.789   7.457   4.175 -0.1963  0.2470  0.1490
 7369W        W22500  12.095  15.045   0.043  0.0827 -0.1907  0.2238
 7370W        W22501  10.671   9.688   4.651  0.0201  0.0344 -0.0648
 7371W        W22502  16.572   7.061  14.019 -0.2034 -0.2902 -0.1355
 7372W        W22503   8.675   2.261  15.085 -0.2083 -0.3569  0.1883
 7373W        W22504  15.813   2.468  13.091  0.0064 -0.6099 -0.1121
 7374W        W22505  18.154   9.095   2.216 -0.1678 -0.1420  0.0382
 7375W        W22506  13.034  13.688   4.282 -0.1890 -0.1947  0.0260
 7376W        W22507   2.432  16.052  12.514  0.4872  0.1082  0.0003
 7377W        W22508  17.640  14.925   2.586  0.2495  0.2213  0.0125
 7378W        W22509   1.867  14.488  16.132  0.1683 -0.1014  0.2573
 7379W        W22510  15.964   7.284   1.908 -0.2439 -0.3111 -0.1279
 7380W        W22511   2.865   2.130   6.113 -0.1158  0.0029 -0.4472
 7381W        W22512  11.627   7.330  15.426 -0.2339 -0.0396 -0.1626
 7382W        W22513  16.812   2.748   2.261 -0.4095 -0.1628  0.1795
 7383W        W22514   5.533  14.257   2.269  0.0677  0.0287  0.0293
 7384W        W22515   1.823   3.579  11.629 -0.0800 -0.0119 -0.0380
 7385W        W22516  10.727   4.341  13.498 -0.0739  0.1858  0.2013
 7386W        W22517   9.386  13.530  14.647 -0.0570 -0.1773  0.0019
 7387W        W22518  11.767   7.631   2.860  0.3128  0.0010  0.0019
 7388W        W22519   0.431  13.989  11.640  0.1348 -0.0882 -0.1321
 7389W        W22520   4.212   9.623  11.270  0.0982  0.2179  0.2382
 7390W        W22521   1.676   1.469   0.982  0.0932 -0.0248  0.0864
 7391W        W22522   9.950   7.013  12.389  0.0438  0.0913 -0.1271
 7392W        W22523  14.522  13.491   0.587  0.0005  0.0537 -0.1202
 7393W        W22524  15.004  13.154  11.535 -0.1285 -0.0736  0.1679
 7394W        W22525  15.005  16.894  12.618  0.0038  0.1076 -0.3190
 7395W        W22526   2.418   7.829   1.395 -0.0356  0.1429  0.1217
 7396W        W22527   3.312   7.681  15.535 -0.1123 -0.3019  0.1853
 7397W        W22528  13.417   1.192  10.009 -0.1941 -0.0376  0.0011
 7398W        W22529  14.032   9.149  13.307  0.0971  0.1948  0.0194
 7399W        W22530  10.135  17.006   0.798 -0.2791  0.4427 -0.2070
 7400W        W22531  10.733   0.387   6.207 -0.0187 -0.0787  0.3505
 7401W        W22532   1.177  11.878   2.665  0.0691 -0.1379 -0.1777
 7402W        W22533   7.856  14.930  13.122 -0.1424 -0.1527  0.1180
 7403W        W22534   5.198  16.113   4.710  0.0160 -0.1007  0.1754
 7404W        W22535  13.403  13.130   2.693 -0.0217  0.1254 -0.2120
 7405W        W22536  11.197   7.155   5.548  0.0617 -0.0190 -0.0311
 7406W        W22537   1.145  13.804  16.085  0.2595  0.0351  0.0628
 7407W        W22538   8.555   2.064  14.655 -0.2204  0.0268  0.2125
 7408W        W22539  15.079  15.718  12.008  0.0361 -0.1567 -0.1146
 7409W        W22540   9.077   1.754   3.917  0.3573 -0.1710  0.1824
 7410W        W22541  16.475   2.173  14.724 -0.1273 -0.0274  0.0674
 7411W        W22542   7.701  15.051   1.853 -0.1988 -0.0031  0.0485
 7412W        W22543   1.246  15.753   6.133 -0.1834  0.2292  0.0124
 7413W        W22544   5.489   8.209  16.142  0.0184 -0.0624  0.1981
 7414W        W22545  15.570   0.300  11.879  0.1715  0.0433 -0.1282
 7415W        W22546   3.268  17.467  13.845 -0.1519 -0.1272  0.2800
 7416W        W22547   7.602   1.868   0.097  0.3366 -0.2548  0.1228
 7417W        W22548  17.923   6.126   4.716  0.0533 -0.5321 -0.0205
 7418W        W22549   0.473   9.743   2.949 -0.0029  0.2517 -0.2141
 7419W        W22550  15.855  16.667   1.872  0.0039 -0.1208 -0.1409
 7420W        W22551   7.019  10.670   5.446 -0.0448 -0.0423 -0.0910
 7421W        W22552   6.797  16.575   3.592 -0.1149  0.2131 -0.1167
 7422W        W22553  14.938   5.621   2.811 -0.0144 -0.0125 -0.2871
 7423W        W22554   9.732  14.987  12.967 -0.1223  0.0296  0.2220
 7424W        W22555  12.011  11.363  14.964  0.2276  0.1424  0.0766
 7425W        W22556   5.036  18.230  12.436 -0.0457  0.1919 -0.3283
 7426W        W22557  17.741  12.077   3.913 -0.0109 -0.1255  0.1695
 7427W        W22558   4.010  12.709   2.779  0.0830  0.4607 -0.0513
 7428W        W22559   3.777  14.232   3.090  0.1962 -0.1021  0.1005
 7429W        W22560  16.934   2.646   4.229  0.1826  0.2060 -0.2072
 7430W        W22561   9.643   0.206   5.222  0.0637 -0.0877  0.0021
 7431W        W22562   8.195   7.462   0.862 -0.4332 -0.0046 -0.2890
 7432W        W22563  10.076  10.212   3.832  0.0440  0.0485 -0.3507
 7433W        W22564  11.139  16.506  13.586  0.0359  0.0431  0.2285
 7434W        W22565  16.152  10.926  11.947  0.1415 -0.2629  0.2340
 7435W        W22566  14.708  17.510  14.441  0.1768  0.0478  0.0212
 7436W        W22567   2.592  15.533  10.103  0.1249 -0.0746  0.0876
 7437W        W22568   4.773   7.032   1.900  0.0878  0.0903 -0.1270
 7438W        W22569   2.239   3.598  13.117 -0.1103  0.1010  0.0805
 7439W        W22570  10.095  13.677   0.489 -0.1107  0.0103 -0.3799
 7440W        W22571   8.373   3.837   3.045 -0.3545 -0.0235  0.1450
 7441W        W22572  14.773  15.258   0.594  0.0414 -0.0852 -0.0248
 7442W        W22573  10.380   0.409  15.148 -0.1178  0.2045 -0.2371
 7443W        W22574  13.942   4.838  10.302 -0.0760 -0.5454  0.0618
 7444W        W22575  13.227  11.068   2.447  0.0368  0.2737 -0.0712
 7445W        W22576  11.894   7.361   4.915 -0.0586 -0.0557 -0.0340
 7446W        W22577  12.730   9.779   0.596  0.0504  0.2768  0.0678
 7447W        W22578  15.584   1.018   0.093  0.1614 -0.3144  0.3495
 7448W        W22579   9.908   8.788  12.958 -0.2639 -0.0784 -0.0376
 7449W        W22580   4.210   9.493  15.679  0.0995 -0.1554 -0.1397
 7450W        W22581   4.365  15.640   5.066 -0.5054  0.3415 -0.2171
 7451W        W22582   3.283   2.519   0.481  0.1894  0.1309  0.0353
 7452W        W22583   2.357  12.314  13.126 -0.0679  0.0820  0.0354
 7453W        W22584  17.133   2.172  13.771 -0.2351  0.0637  0.2212
 7454W        W22585  13.782   0.369   1.106 -0.0305  0.2010  0.2056
 7455W        W22586   6.550  13.753  15.905  0.1005 -0.2065 -0.1845
 7456W        W22587   6.288  14.060   1.465  0.0797  0.3639 -0.0279
 7457W        W22588   8.354   8.420   3.397  0.0487 -0.2683 -0.1158
 7458W        W22589   9.527   0.430   0.221 -0.2269 -0.3033 -0.1949
 7459W        W22590   3.571   6.157   0.935 -0.1146  0.1374 -0.1983
 7460W        W22591   2.546  16.424  13.719 -0.1123  0.0078  0.0666
 7461W        W22592   7.740  14.682  10.416  0.0052 -0.1311 -0.0653
 7462W        W22593  13.437  16.074   3.958  0.1558  0.0055 -0.1483
 7463W        W22594   3.991  10.553   3.962  0.3331  0.0454 -0.0801
 7464W        W22595   2.385   2.442   4.502  0.0523  0.1763 -0.0333
 7465W        W22596   7.153  12.348   1.792 -0.3882 -0.2635 -0.0810
 7466W        W22597  16.248  15.923  13.956 -0.0967 -0.0931 -0.2745
 7467W        W22598  11.825   9.216  15.671  0.0620  0.1172 -0.1326
 7468W        W22599  16.732   1.643   4.562  0.3182 -0.2024  0.0174
 7469W        W22600   6.180   7.155   2.229 -0.2656  0.1573  0.0306
 7470W        W22601   8.138  14.711  11.894  0.0867  0.1933  0.1382
 7471W        W22602  12.870   7.668  10.980  0.0389  0.1731  0.2882
 7472W        W22603  13.867  16.577  15.653  0.2119  0.0664 -0.0933
 7473W        W22604   2.246   3.892   0.948  0.4957 -0.1084  0.1754
 7474W        W22605  13.738   9.392   2.034  0.1643  0.2249 -0.3343
 7475W        W22606   8.146  15.264  10.935 -0.2849 -0.2997 -0.1808
 7476W        W22607   8.755   5.820  13.074 -0.0135  0.2300 -0.0836
 7477W        W22608   6.889   0.122  12.262  0.0393  0.0449 -0.1916
 7478W        W22609   5.546  10.701  15.209  0.1738  0.0848 -0.1950
 7479W        W22610   1.725   1.943  10.982 -0.0597 -0.1463  0.3910
 7480W        W22611   1.707  13.062  12.952 -0.2103 -0.0852  0.0925
 7481W        W22612  14.205  12.273   1.877  0.2447 -0.1266 -0.2006
 7482W        W22613  14.956  11.215   2.233  0.0574  0.2837  0.1980
 7483W        W22614   7.579  16.130  12.318 -0.2231 -0.0454  0.2107
 7484W        W22615   1.773   8.077  15.153  0.1119  0.1258 -0.1478
 7485W        W22616  13.572  15.051   0.468  0.3006  0.1564  0.2763
 7486W        W22617  16.510   9.175   1.603 -0.0510 -0.0690  0.0156
 7487W        W22618  11.855  13.141   3.639  0.0656  0.4068 -0.1410
 7488W        W22619  14.696  17.329  14.923 -0.1968  0.1006  0.3513
 7489W        W22620  10.384  16.041   4.655  0.0224  0.2442  0.0036
 7490W        W22621   8.379  16.590   1.929  0.0385 -0.3966 -0.2255
 7491W        W22622  18.360  11.587  14.138  0.0867 -0.4112  0.0785
 7492W        W22623   6.098   4.789   2.981  0.1988  0.0851 -0.1970
 7493W        W22624   0.142  10.332   0.682  0.2651 -0.2989  0.0838
 7494W        W22625  11.750   5.292  15.841  0.1226 -0.1496 -0.2827
 7495W        W22626   0.961  16.467  15.938  0.1590  0.1588 -0.2995
 7496W        W22627   5.627   2.673  12.439 -0.0556  0.4780 -0.2512
 7497W        W22628   8.830   0.448   5.723  0.1044 -0.2425 -0.0021
 7498W        W22629   6.028   9.766   2.151  0.0423 -0.2247 -0.1000
 7499W        W22630   9.251  10.218  11.128 -0.0561 -0.0050  0.0854
 7500W        W22631  13.261  15.645  14.600  0.0333  0.2948 -0.2035
 7501W        W22632  18.357  13.179  11.114  0.0628 -0.2695  0.0402
 7502W        W22633   9.135  10.559   4.678  0.1883 -0.0756  0.1505
 7503W        W22634   0.009   9.393  12.267  0.1688 -0.0446 -0.1412
 7504W        W22635   5.870  10.198   2.412  0.2018 -0.1345 -0.0244
 7505W        W22636   0.155  17.528   0.715 -0.3158 -0.1911 -0.1389
 7506W        W22637  15.802   1.298   2.332 -0.1047 -0.0803  0.0789
 7507W        W22638   0.679  17.887  11.651 -0.0251  0.1839 -0.1319
 7508W        W22639  16.842   4.586  14.575  0.1245  0.0367  0.0099
 7509W        W22640  18.080   5.857  14.394  0.1702  0.0561 -0.1058
 7510W        W22641   6.205   9.928  13.984  0.0552  0.0006  0.1097
 7511W        W22642  15.744   0.523  13.561 -0.0950  0.0627  0.0798
 7512W        W22643   0.898  17.249  12.174 -0.1216 -0.1376 -0.0095
 7513W        W22644  13.847  17.810   3.860  0.0424 -0.2096  0.2909
 7514W        W22645  12.758   4.446   1.198 -0.2645  0.3458 -0.0812
 7515W        W22646  10.542   7.988  15.355 -0.3368  0.2344  0.0228
 7516W        W22647  13.308   4.430   9.691 -0.1203  0.2209  0.1135
 7517W        W22648   9.281  14.573   2.576 -0.0910 -0.0107  0.2412
 7518W        W22649  11.436  16.979  15.039  0.1111 -0.0409  0.1337
 7519W        W22650   5.625  15.869   3.215 -0.2364  0.0357 -0.0100
 7520W        W22651  14.525   2.097   6.009  0.1247 -0.4531  0.0623
 7521W        W22652   0.113  11.044  15.751 -0.0683 -0.1776 -0.0362
 7522W        W22653   2.818  13.364  13.893 -0.3422 -0.0756  0.0823
 7523W        W22654  13.903  11.179   1.232  0.2623  0.0299  0.2587
 7524W        W22655   7.689  16.657   0.349 -0.0023 -0.3506  0.2644
 7525W        W22656  16.055  16.651  12.301 -0.0085  0.0083 -0.1439
 7526W        W22657  14.302   4.048   5.851 -0.4086 -0.1455  0.0290
 7527W        W22658   4.630   2.048  10.506 -0.1272  0.0839  0.2644
 7528W        W22659  14.923  15.397  15.737  0.2392 -0.1151 -0.2255
 7529W        W22660   2.570   2.071   1.069 -0.2742 -0.2867 -0.2714
 7530W        W22661   4.009  14.686  14.326 -0.3449 -0.1789  0.1525
 7531W        W22662   9.340  10.284  15.516 -0.3020 -0.0104 -0.0537
 7532W        W22663  13.390   6.003  14.516 -0.2718 -0.0480  0.2853
 7533W        W22664   7.064  15.902  12.204  0.0442  0.1205  0.3236
 7534W        W22665   0.227  10.663  10.159  0.1649 -0.4398 -0.0402
 7535W        W22666   7.619  16.322  10.533  0.3877  0.0446 -0.4268
 7536W        W22667  10.911   9.810  11.380 -0.1137 -0.2828 -0.2702
 7537W        W22668   9.082   3.487   5.861 -0.1328 -0.1868 -0.2071
 7538W        W22669   6.988   4.577   1.578 -0.0552 -0.0711  0.0458
 7539W        W22670   2.013   6.828   4.811 -0.2998  0.0425 -0.1605
 7540W        W22671  16.382  13.797  14.788  0.1456 -0.2848 -0.0689
 7541W        W22672   2.737  11.192  11.397 -0.1184  0.1643  0.3512
 7542W        W22673  12.004  12.126  14.491 -0.0394  0.1064  0.1171
 7543W        W22674  15.072  14.885  12.665 -0.0679  0.1678  0.1009
 7544W        W22675  12.587  18.165   0.888 -0.1684  0.1971 -0.0152
 7545W        W22676  13.522   3.190   4.882  0.2687  0.0135  0.2376
 7546W        W22677  14.028  10.332   0.867 -0.2356 -0.0284 -0.0176
 7547W        W22678   7.414  17.009   3.323  0.4288  0.0732 -0.1916
 7548W        W22679  13.481  13.628  11.149 -0.0647 -0.2728  0.0157
 7549W        W22680  10.046  12.034  16.033 -0.2047 -0.3185  0.0337
 7550W        W22681   1.174  17.611   0.558 -0.0692  0.1447  0.1785
 7551W        W22682  17.226   5.476   5.814  0.0075  0.0852  0.1907
 7552W        W22683   4.988  15.588  11.214 -0.3853  0.0854  0.0538
 7553W        W22684   1.253  13.858   3.345  0.1571  0.1901 -0.2027
 7554W        W22685  10.726  14.563   3.389 -0.1583 -0.0420  0.1766
 7555W        W22686  12.295   1.453   0.681  0.3059 -0.2840 -0.1491
 7556W        W22687  12.317  10.118   3.516  0.2346 -0.1910  0.0125
 7557W        W22688   1.182   6.031  15.180 -0.3478  0.1739 -0.1812
 7558W        W22689  15.120  11.415   5.082 -0.0104  0.2471 -0.1169
 7559W        W22690  12.441  13.002   5.254 -0.1319  0.0063 -0.1605
 7560W        W22691   6.245   3.453  12.246  0.0024  0.0331  0.2152
 7561W        W22692   4.734   1.259  15.476  0.3065 -0.0480  0.1522
 7562W        W22693   7.895   9.085   5.470  0.0767 -0.1448  0.2111
 7563W        W22694  14.108  11.278  15.349  0.1521 -0.2356 -0.0690
 7564W        W22695  10.011   5.803   5.074  0.0446  0.0295  0.0173
 7565W        W22696  14.148  16.948   3.661  0.0173 -0.0286  0.2483
 7566W        W22697  14.031  13.307   1.838 -0.1733  0.1813 -0.0097
 7567W        W22698   5.968  15.524  12.593  0.0269 -0.1385  0.0906
 7568W        W22699   5.247   8.671   3.425 -0.0129  0.1869 -0.1438
 7569W        W22700   5.882   7.385   1.892 -0.2090 -0.2207  0.1309
 7570W        W22701  10.093  13.015   3.904 -0.2041  0.0590 -0.1583
 7571W        W22702  12.821  10.083  12.556 -0.0256 -0.2708  0.1222
 7572W        W22703  10.491  10.290  12.668 -0.4895 -0.0025 -0.0678
 7573W        W22704  15.597   3.618  14.341 -0.1617  0.0251  0.0958
 7574W        W22705  11.236  12.649   2.615  0.2007 -0.1524 -0.3533
 7575W        W22706  11.329   9.839  13.614 -0.0868 -0.1486 -0.1225
 7576W        W22707  17.864   9.866  12.820 -0.2625  0.1250 -0.0186
 7577W        W22708  11.647   1.029   4.785  0.1736  0.1482  0.3701
 7578W        W22709   8.142   8.466   5.473 -0.1760 -0.1419  0.4460
 7579W        W22710   9.660  10.710   3.490  0.1870  0.0642 -0.0118
 7580W        W22711  13.458  17.103   1.514 -0.2034 -0.2032 -0.0061
 7581W        W22712   6.635   8.422  10.845  0.2976  0.0004  0.2684
 7582W        W22713   3.812  17.460   1.458  0.2450  0.0145  0.1283
 7583W        W22714  12.204  12.505   6.060  0.1874 -0.0710  0.2606
 7584W        W22715   6.260  16.585  13.201 -0.0024  0.0671 -0.1578
 7585W        W22716   0.607  13.466  14.594 -0.1124 -0.2758  0.3268
 7586W        W22717   6.515   7.847   3.414 -0.1952  0.1640  0.0240
 7587W        W22718   1.755   3.106  12.552 -0.0704 -0.1418 -0.1377
 7588W        W22719  11.355  17.181   5.506 -0.2934 -0.0034 -0.1720
 7589W        W22720   3.273  13.048  12.053  0.1992 -0.1903 -0.0268
 7590W        W22721   5.961   5.396  13.609 -0.0827  0.4198  0.0542
 7591W        W22722   7.316  17.858   2.386 -0.1839  0.2215  0.3525
 7592W        W22723   7.689   1.594  14.825  0.0829 -0.0949 -0.2595
 7593W        W22724   3.207   6.840  11.548 -0.0801 -0.0926 -0.0948
 7594W        W22725   9.991   9.497   1.970 -0.0023 -0.3248  0.3936
 7595W        W22726   2.115   7.477   5.126 -0.0244 -0.0367 -0.1158
 7596W        W22727  14.879   5.258  13.568 -0.0211  0.1952 -0.0708
 7597W        W22728  10.446   3.974  10.942  0.0902  0.0263 -0.0935
 7598W        W22729  10.153   7.997   3.087  0.0239  0.3663 -0.0676
 7599W        W22730   7.660   7.061   1.799  0.1996 -0.2966 -0.0669
 7600W        W22731   1.581  12.761  12.201  0.0898  0.1840  0.0690
 7601W        W22732  11.288  17.410  11.555 -0.1270 -0.0299  0.0593
 7602W        W22733   9.886   1.103  14.952  0.1141 -0.1174  0.0073
 7603W        W22734  15.948   0.919   3.099  0.0630  0.5107 -0.0252
 7604W        W22735   5.986  14.443  15.566 -0.2096  0.1849 -0.0896
 7605W        W22736  15.559   3.017  14.380  0.2381  0.0929 -0.1172
 7606W        W22737  12.456  17.655  15.919 -0.0000  0.2724 -0.0466
 7607W        W22738   4.773   8.123   4.565 -0.0577 -0.0359 -0.1204
 7608W        W22739  10.420   7.089   5.046  0.0078  0.0398  0.2013
 7609W        W22740   7.806  14.982  11.206  0.0105  0.1089 -0.1523
 7610W        W22741  14.768   9.519   2.222 -0.0619 -0.0808 -0.0292
 7611W        W22742   2.177   8.986  15.565  0.0114  0.2351  0.0943
 7612W        W22743  12.388   3.087   0.447  0.1000  0.1540  0.0637
 7613W        W22744  11.590  10.673  15.930 -0.0239  0.2166 -0.0188
 7614W        W22745  10.403  17.879   5.087 -0.0846  0.0196  0.0076
 7615W        W22746   0.141  17.082  16.062  0.1107 -0.0080 -0.0783
 7616W        W22747  16.470   1.574   4.046  0.0604 -0.0885 -0.1596
 7617W        W22748   0.013   4.507  10.260  0.0620 -0.2580 -0.1166
 7618W        W22749  14.099  12.446   2.811  0.1561 -0.1729 -0.1009
 7619W        W22750   2.613  18.137  14.153  0.6484  0.0203 -0.3264
 7620W        W22751   9.493  11.962  11.459 -0.2781  0.2702  0.0157
 7621W        W22752  11.477  13.953   3.540 -0.2796  0.2942  0.0452
 7622W        W22753   5.443   1.805  14.360 -0.2181  0.0299  0.1726
 7623W        W22754  10.844  16.177   4.552 -0.0647  0.1065  0.2124
 7624W        W22755   2.270  15.198   0.378 -0.0240  0.1572  0.1831
 7625W        W22756  15.872   3.846   2.043 -0.5425  0.2619  0.1358
 7626W        W22757   7.315  14.845   3.684  0.1481  0.0167  0.1882
 7627W        W22758   0.203   9.065  16.104  0.1172 -0.0968 -0.1721
 7628W        W22759  15.930  15.442   4.747 -0.0432 -0.1675 -0.0609
 7629W        W22760  11.013   0.181  13.950 -0.3274  0.1498 -0.3678
 7630W        W22761   3.671  16.126  14.758 -0.1404  0.0749  0.3764
 7631W        W22762  15.351  17.281   0.359 -0.0038 -0.0800  0.1157
 7632W        W22763  17.497   5.340   3.420 -0.1694  0.0743 -0.2432
 7633W        W22764   6.221   2.419   5.148 -0.4417 -0.1059 -0.1867
 7634W        W22765  11.799   0.012   0.547 -0.0992 -0.1865 -0.1795
 7635W        W22766   5.860  12.780  13.386  0.0699  0.1082  0.0679
 7636W        W22767  10.649  17.978  12.711  0.2599  0.0245 -0.1151
 7637W        W22768  16.407   4.215  13.268 -0.2414 -0.4175  0.2522
 7638W        W22769   1.910  17.700   1.740 -0.1152 -0.0235  0.1827
 7639W        W22770   8.916  14.385  13.036  0.2484 -0.1588  0.2200
 7640W        W22771  10.850   6.282  13.854  0.1634  0.1200 -0.2831
 7641W        W22772  15.401  10.356   0.569 -0.1073 -0.0125 -0.1916
 7642W        W22773  14.267   3.033  14.786 -0.1793  0.0664 -0.1281
 7643W        W22774   6.966  11.301  10.731  0.3186  0.0265 -0.4323
 7644W        W22775  14.844  12.661   0.021  0.0089  0.0325  0.0677
 7645W        W22776   8.831  16.425   4.427 -0.2619 -0.2664  0.0029
 7646W        W22777   2.775   2.758   1.554  0.1497 -0.3422 -0.1031
 7647W        W22778  15.902   2.375   4.280 -0.0469  0.0393  0.2222
 7648W        W22779  10.187   1.803   3.777  0.0967 -0.0617 -0.1014
 7649W        W22780   8.651   4.317   4.652 -0.3365  0.2015 -0.0034
 7650W        W22781   5.661  10.219  10.750  0.0745 -0.4656 -0.4055
 7651W        W22782  13.361   5.741   3.476 -0.0059 -0.1349  0.0580
 7652W        W22783  13.981   3.961  13.067  0.1537 -0.1673 -0.1798
 7653W        W22784  17.202   7.528  15.298  0.2194  0.0326  0.1856
 7654W        W22785  13.824  13.756  13.029 -0.3802 -0.2105  0.0644
 7655W        W22786  13.038   8.361  12.876  0.0135 -0.3193 -0.1343
 7656W        W22787   3.766   2.143   2.545 -0.0853  0.0569 -0.0177
 7657W        W22788  15.439   2.457  11.822  0.2750  0.0039 -0.0195
 7658W        W22789   0.051   9.445   1.560  0.1968  0.2246 -0.0751
 7659W        W22790   8.467   4.521   3.722 -0.1349 -0.0472 -0.1352
 7660W        W22791   6.012  17.510   1.143 -0.1529  0.0761 -0.0401
 7661W        W22792  14.482   4.182   2.389 -0.1482  0.1984 -0.1985
 7662W        W22793   9.118  14.308  15.110  0.0100  0.0807 -0.0709
 7663W        W22794   6.739   0.066   4.386  0.2196  0.0268  0.0181
 7664W        W22795  10.835   0.266   4.175  0.1747  0.2559 -0.1677
 7665W        W22796   4.864   0.559   2.543  0.2909 -0.0232 -0.1254
 7666W        W22797  11.215   6.495   4.858  0.2300 -0.2558 -0.1720
 7667W        W22798  14.508  13.347  12.096 -0.0456 -0.1307  0.1511
 7668W        W22799  11.029  16.837  14.295 -0.3081 -0.0158 -0.1564
 7669W        W22800  11.808   2.138  13.627 -0.1036  0.2327 -0.0080
 7670W        W22801  13.218  17.332  11.738  0.2230 -0.5175 -0.0012
 7671W        W22802   9.174   8.693  15.950  0.3994 -0.1408  0.2468
 7672W        W22803   5.588   9.518   2.028 -0.1872  0.0174 -0.2314
 7673W        W22804  16.833  11.496  10.289 -0.3174 -0.1476 -0.0574
 7674W        W22805   4.276   9.661  14.687 -0.3908  0.1120 -0.2664
 7675W        W22806   0.427  11.755  14.371 -0.2054 -0.2743 -0.1222
 7676W        W22807  12.441   9.752   2.564 -0.1521 -0.0760 -0.0264
 7677W        W22808   8.184  15.616  13.759 -0.2782  0.0882 -0.1226
 7678W        W22809  16.077   5.960  16.132  0.0159 -0.1443  0.0074
 7679W        W22810   8.012   9.534  11.616 -0.0168 -0.1560  0.1774
 7680W        W22811  12.879   6.098   1.448  0.3156  0.0483  0.1876
 7681W        W22812   1.787   2.251  11.366  0.0176 -0.1800  0.3900
 7682W        W22813  13.841  17.407  13.358  0.0158  0.2334 -0.0074
 7683W        W22814  10.997   9.748   3.113  0.0862 -0.1164 -0.3533
 7684W        W22815  17.569   5.926  11.567  0.2118  0.0863 -0.4374
 7685W        W22816   9.693   9.285  15.458  0.0752 -0.0840 -0.1081
 7686W        W22817  18.101  17.559   4.519  0.1182 -0.0098  0.0074
 7687W        W22818  10.512  13.488   4.435  0.1307  0.2870 -0.1589
 7688W        W22819  10.434  17.929   2.889 -0.0800 -0.0649  0.4318
 7689W        W22820   2.310   3.870  15.463 -0.2573  0.1104  0.0912
 7690W        W22821  11.647   1.242  13.387 -0.3368  0.2349  0.0437
 7691W        W22822   8.998   8.104  13.322 -0.0323  0.0181  0.2876
 7692W        W22823  11.003   0.593   3.641  0.1377 -0.1573 -0.0425
 7693W        W22824   3.575  15.048   0.880  0.0071  0.1629  0.0352
 7694W        W22825   6.023   7.231  15.741  0.2215 -0.2177  0.0847
 7695W        W22826   5.545   3.732   4.891 -0.0066 -0.0399 -0.0541
 7696W        W22827   1.815   2.976   3.728 -0.0510  0.2536 -0.2048
 7697W        W22828  14.617  17.873   0.872 -0.2045  0.0530  0.0292
 7698W        W22829   5.427   7.967   3.950 -0.0710 -0.1344 -0.3991
 7699W        W22830  16.872   1.587   5.363  0.2439  0.1574 -0.0114
 7700W        W22831  17.621  17.448  12.978 -0.5536 -0.2690 -0.0181
 7701W        W22832   8.869   3.037  15.544  0.1644 -0.0993 -0.2240
 7702W        W22833   1.679  17.060  12.346 -0.0292 -0.3058 -0.2616
 7703W        W22834  16.932  10.562  14.078  0.3503  0.0955  0.3142
 7704W        W22835  17.875   9.274   4.135 -0.3620 -0.2412  0.1076
 7705W        W22836   6.960   3.470   2.836  0.2189  0.3550  0.2173
 7706W        W22837  18.126   5.003   2.061 -0.3147 -0.1221  0.0801
 7707W        W22838   4.396   5.100  11.365 -0.0647  0.0033 -0.0459
 7708W        W22839  16.656   4.141   2.480  0.1537 -0.2527  0.1935
 7709W        W22840  18.291   4.854   3.379 -0.0752 -0.1222  0.0253
 7710W        W22841   1.040   2.673   3.502  0.1502 -0.1346 -0.2549
 7711W        W22842   1.468  10.412   4.737  0.0525  0.1475 -0.0370
 7712W        W22843  10.142   4.195  11.271 -0.1385 -0.1180  0.3149
 7713W        W22844  17.824  13.170  11.247  0.2561  0.0702  0.1342
 7714W        W22845   1.188  10.033   2.060  0.1341 -0.1367 -0.0413
 7715W        W22846   3.381   6.113   4.182  0.1106 -0.2341  0.1841
 7716W        W22847  16.981  11.328   4.251  0.1436  0.1225  0.2465
 7717W        W22848   5.292   1.746  15.751  0.0221  0.0013  0.0416
 7718W        W22849   7.801  16.144   4.487  0.1461  0.1395  0.1262
 7719W        W22850   9.188   0.090   3.053 -0.0379  0.0220  0.3267
 7720W        W22851  13.973   6.365  14.437 -0.4175 -0.1708  0.2058
 7721W        W22852   8.429  15.399   0.998 -0.1007  0.1458 -0.2956
 7722W        W22853  15.597   3.866   5.171  0.3015  0.0603 -0.2742
 7723W        W22854  12.974   1.320  13.523 -0.1635 -0.0228 -0.2526
 7724W        W22855  13.648   3.991   3.802  0.2145  0.0286  0.1153
 7725W        W22856   5.064   3.941  15.394  0.0780  0.1289  0.0403
 7726W        W22857   2.198  18.177   1.423  0.0258  0.5051 -0.1430
 7727W        W22858   5.093   2.562  13.834  0.0042  0.0831  0.3280
 7728W        W22859   2.875  17.494   1.855 -0.0818  0.0521  0.1730
 7729W        W22860   4.477  12.567  11.944  0.2417  0.0929 -0.1801
 7730W        W22861   3.355   7.763   1.313  0.1163  0.4605 -0.0619
 7731W        W22862   8.625  14.572  12.041  0.2367 -0.2310  0.0051
 7732W        W22863  11.902  13.199  11.709  0.0292 -0.0455 -0.3219
 7733W        W22864   8.755  11.697   0.094  0.1345  0.0770 -0.2618
 7734W        W22865   3.366   5.117   1.665  0.3873 -0.0288 -0.0463
 7735W        W22866  15.615   8.827  15.902  0.1637 -0.0592 -0.1883
 7736W        W22867  14.951   8.096  15.197 -0.1740  0.1580  0.1939
 7737W        W22868  10.169   5.112   4.618  0.1163  0.1031  0.2471
 7738W        W22869  15.155  11.543  13.777 -0.0439 -0.0129 -0.0704
 7739W        W22870   3.194   9.493  14.145 -0.0023 -0.1234  0.1630
 7740W        W22871   6.602   7.982   0.026 -0.0017  0.0519 -0.0856
 7741W        W22872   3.047  10.163   3.885 -0.2218  0.1958  0.1664
 7742W        W22873  17.543   1.958   0.811  0.2921 -0.4878 -0.1214
 7743W        W22874  14.418  12.900   1.601  0.0954  0.0930 -0.2113
 7744W        W22875  11.041  13.137   0.682 -0.2429 -0.2838  0.1396
 7745W        W22876  17.653  11.591  12.205 -0.0724 -0.0415  0.1387
 7746W        W22877   4.657  17.471   2.934 -0.3431 -0.1318  0.1231
 7747W        W22878  11.716   0.767  14.986 -0.1677 -0.1285 -0.1444
 7748W        W22879   4.693  15.753  13.306 -0.1629 -0.2670  0.3544
 7749W        W22880  15.234  11.083   4.757 -0.0063  0.2761  0.2139
 7750W        W22881   1.629   7.886   0.858  0.3534 -0.0035  0.0312
 7751W        W22882  13.103   4.635  13.321  0.2129 -0.0471  0.1886
 7752W        W22883  17.231  14.004  16.015  0.1657  0.1089  0.0427
 7753W        W22884   2.089  12.063  11.415 -0.1801  0.2437 -0.0449
 7754W        W22885   8.585   2.567  15.511 -0.2648  0.4370 -0.2672
 7755W        W22886   5.023  15.810  12.342  0.2266 -0.1147 -0.0412
 7756W        W22887   5.916   3.037  12.197 -0.0896 -0.2204 -0.2150
 7757W        W22888  15.821  13.855   6.173 -0.1194  0.3203 -0.2547
 7758W        W22889   2.767  10.006  12.926  0.2516 -0.1943 -0.0835
 7759W        W22890   1.639   3.767   5.194  0.0366  0.2223  0.0565
 7760W        W22891  12.115   4.099   4.272  0.1369 -0.2247 -0.1261
 7761W        W22892  11.519   5.949   1.879 -0.0354 -0.0264  0.3915
 7762W        W22893  14.051  12.624  14.560 -0.2791  0.1720 -0.0676
 7763W        W22894   8.784   3.312  15.115  0.3622  0.0170 -0.2290
 7764W        W22895  12.592   0.014   3.951  0.1794 -0.4218  0.1378
 7765W        W22896   0.826  15.561  14.128  0.2848  0.1769 -0.1992
 7766W        W22897   4.197   3.907   0.367  0.2188 -0.0656  0.1707
 7767W        W22898  17.311   2.522   9.981 -0.1867 -0.0163  0.1328
 7768W        W22899   4.602  15.986   4.596 -0.0608 -0.1256 -0.0277
 7769W        W22900   6.950   0.692   5.610 -0.0586  0.3105  0.1526
 7770W        W22901  13.444   3.755   3.010  0.0056  0.0143 -0.0420
 7771W        W22902   6.778  17.109   0.366  0.5962  0.0811 -0.0113
 7772W        W22903   1.442   5.194  14.270 -0.3463 -0.0041 -0.1771
 7773W        W22904  11.477   3.329  11.554  0.0893 -0.0947 -0.1201
 7774W        W22905  18.099   5.419   0.171  0.0317 -0.3865  0.1142
 7775W        W22906  13.202  12.862  15.595 -0.0387  0.1199  0.1925
 7776W        W22907   3.516  16.692  12.632  0.1718  0.3490  0.0071
 7777W        W22908   5.145  12.552  14.063 -0.2347  0.1496  0.0804
 7778W        W22909   3.030  11.412  15.748  0.0515 -0.0098 -0.4123
 7779W        W22910   4.916   5.011  11.039  0.1460 -0.1475 -0.0789
 7780W        W22911  14.455   2.475   0.025  0.1004 -0.1696  0.0013
 7781W        W22912   6.566  12.443  11.319  0.5351  0.0884 -0.1076
 7782W        W22913  13.067  10.272  12.942 -0.0115  0.0033  0.1632
 7783W        W22914  12.530  12.352  12.589 -0.3750 -0.0899 -0.1594
 7784W        W22915   2.406   7.767   1.894 -0.0159  0.0635 -0.0508
 7785W        W22916  14.642  10.556  12.979 -0.2516  0.0530 -0.0006
 7786W        W22917   8.887   5.279   4.154  0.0951 -0.2502 -0.0934
 7787W        W22918  18.207  10.117  11.061  0.0972 -0.1049 -0.0866
 7788W        W22919  14.260  11.025   2.236  0.0322 -0.2888 -0.1319
 7789W        W22920  13.227  11.589  13.196  0.2104 -0.0950  0.1947
 7790W        W22921   2.434  10.795  11.620  0.1787 -0.0145 -0.1474
 7791W        W22922   8.652   4.222   2.862  0.1734 -0.1281 -0.2688
 7792W        W22923  12.640  10.301   1.716  0.1061  0.3104 -0.0808
 7793W        W22924  12.641  16.379  16.094 -0.0462 -0.2798 -0.0341
 7794W        W22925   8.268   1.990  12.912  0.0718 -0.0225 -0.2604
 7795W        W22926   4.972   1.483   1.167 -0.3663  0.0470  0.0233
 7796W        W22927   5.689  18.249  11.191  0.0930  0.2123 -0.1579
 7797W        W22928  16.811   5.639  13.711 -0.4723  0.1047 -0.0406
 7798W        W22929   4.331   0.065  14.776  0.0840 -0.0435 -0.0700
 7799W        W22930   0.285   7.337   2.369 -0.0664 -0.3588  0.0134
 7800W        W22931   3.451  11.406   3.467 -0.0797 -0.1087  0.0386
 7801W        W22932  17.739   8.103  10.610 -0.2560 -0.0134 -0.1120
 7802W        W22933   3.416   2.604  13.116  0.0194 -0.0865  0.2689
 7803W        W22934   3.718   6.124  14.114  0.1435  0.1501  0.0931
 7804W        W22935  17.976  16.200  12.870 -0.0023  0.1140 -0.1369
 7805W        W22936   4.928  11.422   4.716 -0.0275 -0.0547 -0.0854
 7806W        W22937  18.027  15.282   5.626 -0.0731  0.1016 -0.0184
 7807W        W22938   0.024   6.604  15.311  0.1426  0.0664  0.3722
 7808W        W22939   1.906  17.733  11.053  0.0519 -0.3776 -0.1298
 7809W        W22940   4.123   2.339   5.361  0.3184  0.1534 -0.0387
 7810W        W22941  12.014   8.764  15.376  0.2181  0.0548 -0.0071
 7811W        W22942  15.589  17.056  15.659 -0.2082  0.0997 -0.0172
 7812W        W22943   7.535  14.738   3.268  0.2861  0.2103  0.1498
 7813W        W22944   1.389  14.912  12.705 -0.1381  0.0026  0.5191
 7814W        W22945  13.994  16.403  10.503 -0.1833  0.0929  0.1810
 7815W        W22946   9.349  11.291   4.294 -0.1954  0.2288  0.1344
 7816W        W22947   5.047  15.735  14.140 -0.0283  0.1920  0.3838
 7817W        W22948   3.452  11.508   2.438 -0.1601  0.0970  0.1299
 7818W        W22949  18.289  10.708   2.340 -0.0206 -0.0028 -0.4319
 7819W        W22950  14.683  13.301   5.547 -0.0266 -0.0286 -0.0628
 7820W        W22951   0.052   9.697  10.951 -0.1882  0.1682 -0.2064
 7821W        W22952   0.683   4.295  15.436 -0.1802  0.1731  0.3306
 7822W        W22953   2.135   9.154   5.797  0.1554 -0.1367 -0.1349
 7823W        W22954  16.094   3.980   1.127 -0.1296 -0.0314 -0.0424
 7824W        W22955   9.838   3.696  15.866  0.2596  0.2835  0.0530
 7825W        W22956   5.607  16.338   0.776 -0.3441 -0.0409  0.0874
 7826W        W22957  17.358   0.826  15.672 -0.2395  0.0325 -0.2859
 7827W        W22958  17.293   5.090  12.402  0.0080  0.2363  0.1861
 7828W        W22959   9.230  14.509   3.977  0.1443  0.2968  0.1168
 7829W        W22960  11.651  14.335   0.289 -0.1222  0.0866  0.0475
 7830W        W22961   9.233   1.488  10.504  0.0688 -0.2367 -0.0488
 7831W        W22962   7.973  15.507  15.935  0.4156  0.2769 -0.2224
 7832W        W22963  11.284   1.799   1.808  0.1002  0.2148 -0.1549
 7833W        W22964  14.419  10.190  11.630  0.1292 -0.1575  0.1192
 7834W        W22965   1.076  15.972  11.772 -0.0738  0.3890 -0.0750
 7835W        W22966   3.949  17.723  11.330  0.1367  0.1541 -0.1231
 7836W        W22967  14.414   6.770   4.597 -0.1115  0.2972 -0.2889
 7837W        W22968  18.271  15.416   3.190  0.2725 -0.0512  0.2714
 7838W        W22969   2.016  10.322   1.160 -0.0291 -0.0184 -0.0571
 7839W        W22970  13.277   3.275  10.206  0.0974 -0.0639 -0.0825
 7840W        W22971  13.184   2.255  13.384 -0.2017 -0.1387 -0.0847
 7841W        W22972  18.323  17.934   5.299  0.1484  0.1748 -0.1794
 7842W        W22973  16.561  10.533   3.143  0.1572 -0.0288 -0.3779
 7843W        W22974   4.952  16.889  15.774  0.3553 -0.2218 -0.0890
 7844W        W22975   5.362  15.252   1.286  0.0821  0.0848  0.2012
 7845W        W22976   3.398  11.706  13.778  0.0645 -0.1000  0.1729
 7846W        W22977  10.977   2.049  14.187 -0.0409  0.0718  0.2271
 7847W        W22978   9.098   6.945   2.353 -0.0124  0.0660  0.0296
 7848W        W22979   0.109  16.766  14.054  0.0150 -0.0151 -0.0859
 7849W        W22980   4.003  10.243   0.405  0.0216 -0.2045  0.2200
 7850W        W22981   5.976  15.207   0.085 -0.2784 -0.1264  0.1488
 7851W        W22982   0.725  14.091   1.491  0.2066  0.0345  0.1614
 7852W        W22983   0.303  16.905  12.210 -0.0005 -0.1152 -0.0908
 7853W        W22984   2.433  17.836  16.057  0.2182  0.0078 -0.1471
 7854W        W22985   8.095   3.504  11.756  0.0292  0.0104 -0.1158
 7855W        W22986  18.218  13.267   2.662 -0.3093  0.1130 -0.2075
 7856W        W22987  10.638  12.372  10.706 -0.0747 -0.0679  0.0591
 7857W        W22988   4.833  15.254  14.127 -0.1157  0.2867  0.0281
 7858W        W22989  17.335   0.950   2.172 -0.1364 -0.0562 -0.0792
 7859W        W22990   2.231  15.430  11.089 -0.0896  0.0761  0.0481
 7860W        W22991  17.485   5.580   5.400 -0.0419 -0.0969  0.0941
 7861W        W22992   2.040   2.891  12.144 -0.1903  0.1038 -0.1759
 7862W        W22993   2.583   2.655  15.003  0.2035  0.2622  0.2210
 7863W        W22994   9.610  10.324  12.304 -0.0536  0.0507  0.1047
 7864W        W22995   7.426   8.401   0.161 -0.2500  0.1627 -0.1079
 7865W        W22996   6.467   1.225   2.330  0.1905 -0.2682 -0.1262
 7866W        W22997  16.252  17.173   1.242  0.3345  0.0389 -0.1682
 7867W        W22998   0.528  10.091  15.934  0.0326  0.1070  0.3096
 7868W        W22999  17.560  14.112   4.399 -0.1723 -0.0163  0.0215
 7869W        W23000   3.572   1.163   1.470 -0.2517 -0.0756 -0.1403
 7870W        W23001   7.504   4.278   5.636  0.0777 -0.1340  0.1844
 7871W        W23002  16.572   9.618  14.481  0.1351 -0.1789 -0.2244
 7872W        W23003   8.703  16.429   5.014  0.1185 -0.1736 -0.2315
 7873W        W23004   3.678  13.324   0.681 -0.0267  0.2260  0.2346
 7874W        W23005  14.881   7.588  15.243 -0.1481 -0.0424 -0.1034
 7875W        W23006   0.436   7.117  12.698 -0.1896  0.1875  0.1779
 7876W        W23007   0.390  14.681  11.135 -0.3007 -0.0921 -0.0704
 7877W        W23008  12.394   9.651  11.012  0.0016 -0.2602  0.0387
 7878W        W23009  17.582  14.304  12.486  0.2547  0.0020  0.3293
 7879W        W23010  15.038   5.148  14.030  0.0984  0.0373 -0.1804
 7880W        W23011  18.297  12.524  13.496 -0.0110  0.2505 -0.4029
 7881W        W23012  15.760   4.866  13.885  0.0921  0.0451  0.1197
 7882W        W23013   8.076   8.688  11.757  0.0328  0.2589  0.0329
 7883W        W23014   1.043   1.979   0.980 -0.1006  0.1213  0.2081
 7884W        W23015   6.068  17.186   3.376 -0.3057  0.1042 -0.0840
 7885W        W23016   7.932   9.150   4.212  0.0276  0.2492 -0.1733
 7886W        W23017   4.682  14.898  12.543  0.3409  0.1647 -0.0530
 7887W        W23018   0.125   5.174   0.196  0.0086  0.0796  0.2105
 7888W        W23019  11.188   1.526   2.190  0.4271 -0.0370 -0.0146
 7889W        W23020   7.592  15.414  10.698  0.1897  0.0221  0.1202
 7890W        W23021  14.786   0.755   0.471  0.0262 -0.1470  0.1858
 7891W        W23022  10.761   1.727   2.880 -0.0619  0.0606  0.0717
 7892W        W23023  17.631  14.842   1.995  0.3528 -0.0958  0.1110
 7893W        W23024  14.057   8.274  14.217  0.0180  0.1655  0.3252
 7894W        W23025  15.403  18.329  15.513  0.0322 -0.4470 -0.2851
 7895W        W23026  10.360  17.962  14.448  0.0367 -0.2321 -0.1220
 7896W        W23027  14.917  12.666   1.638  0.3597 -0.1253 -0.1570
 7897W        W23028   3.293   5.372   0.551  0.2664  0.1477 -0.1836
 7898W        W23029   7.133  12.399   4.955  0.0224  0.1081 -0.1233
 7899W        W23030  16.250  16.501  15.469  0.0111 -0.0980  0.0186
 7900W        W23031   8.594   0.023   5.255  0.2669 -0.1638 -0.2463
 7901W        W23032   5.878   3.791  12.961  0.2002  0.2397 -0.2647
 7902W        W23033   6.270   2.127  13.988 -0.1084 -0.1071 -0.4234
 7903W        W23034   8.451  14.538   2.092  0.0033  0.1453 -0.1329
 7904W        W23035   2.803   3.989   0.981  0.1060  0.0432  0.3802
 7905W        W23036  13.046  14.698  15.767  0.0608 -0.1515 -0.1301
 7906W        W23037   8.047   3.924   0.750  0.0035 -0.1268 -0.0639
 7907W        W23038  11.267   1.489   3.423 -0.0197  0.3543 -0.0451
 7908W        W23039   7.581   3.012   0.797  0.0193 -0.3397 -0.2929
 7909W        W23040  17.071   0.874  12.435  0.0518  0.1229 -0.0991
 7910W        W23041   9.108  15.928  12.285  0.0906  0.1040 -0.4355
 7911W        W23042   3.799   0.609  12.257 -0.3530  0.1148 -0.1725
 7912W        W23043   2.046   1.951  15.062 -0.1864 -0.0036  0.0992
 7913W        W23044  11.643   7.937   1.036  0.0550 -0.0363  0.0790
 7914W        W23045   2.687   0.096   4.803 -0.1346 -0.1508 -0.2407
 7915W        W23046  15.621   1.460   1.347  0.2287  0.0295 -0.1076
 7916W        W23047  18.276  10.723  13.692  0.1182 -0.1339 -0.0323
 7917W        W23048   6.267   8.393   1.643 -0.1128 -0.0960  0.1161
 7918W        W23049   1.196  14.958   3.722  0.1281 -0.0799  0.0468
 7919W        W23050  12.839  10.402  12.125  0.1020  0.0751 -0.0277
 7920W        W23051   0.229   8.386  12.721 -0.1033 -0.1318  0.2087
 7921W        W23052   2.411  13.224  15.598  0.2226  0.2553 -0.3215
 7922W        W23053  14.618   2.408  15.098 -0.1034  0.0536 -0.2287
 7923W        W23054   2.126   3.729   5.440 -0.0423 -0.0194 -0.1022
 7924W        W23055  12.727   7.860   4.187 -0.1145  0.1567  0.2433
 7925W        W23056  16.679  16.039  12.868  0.0558  0.1410  0.2720
 7926W        W23057   4.375   7.560  11.835 -0.4308 -0.1888 -0.2094
 7927W        W23058   0.598  12.793  12.651  0.2077  0.2078  0.3482
 7928W        W23059   8.891  18.083  14.787  0.0072  0.3925 -0.1091
 7929W        W23060  17.928   8.943  15.988 -0.0391 -0.0364 -0.1408
 7930W        W23061  17.698   3.091   3.921 -0.0972 -0.1411 -0.0820
 7931W        W23062   9.100  17.302   2.255 -0.3647  0.0178 -0.2963
 7932W        W23063   1.323  12.465  11.356  0.3717 -0.0189  0.7148
 7933W        W23064   2.115  11.604  12.720  0.0996 -0.1782  0.2353
 7934W        W23065  13.344   6.249  16.058  0.0566 -0.0276  0.1857
 7935W        W23066   1.597   2.549  12.203 -0.0673  0.3885 -0.2070
 7936W        W23067   0.061  17.809  11.945 -0.0254 -0.2054 -0.2544
 7937W        W23068  13.953   9.455  14.638  0.0015 -0.2568 -0.0433
 7938W        W23069   8.841  10.051   2.949 -0.2300 -0.0353  0.2862
 7939W        W23070   4.965  11.038   0.782 -0.2989 -0.0493 -0.0207
 7940W        W23071  15.033   4.128   4.505  0.2126 -0.1421 -0.1662
 7941W        W23072   5.421  11.995   0.908  0.4089  0.0443  0.0348
 7942W        W23073  13.876  14.708  13.900 -0.1198 -0.0256  0.0530
 7943W        W23074   4.324  18.014   4.498 -0.1394  0.1256 -0.1589
 7944W        W23075   2.128  12.425   6.306 -0.2864  0.0474 -0.0457
 7945W        W23076   9.089   2.920  14.497  0.1267 -0.2085 -0.3072
 7946W        W23077  11.595  15.658  16.021  0.2121  0.1210 -0.0985
 7947W        W23078  15.884   2.848   3.288  0.1831 -0.4075 -0.0305
 7948W        W23079   9.504  15.880   5.262  0.5200  0.2662  0.2178
 7949W        W23080  13.515  12.372  11.063  0.0708  0.1771 -0.0114
 7950W        W23081   8.072   9.732  14.210 -0.3325 -0.0354 -0.1412
 7951W        W23082   3.391   2.697  15.285 -0.0403  0.0740 -0.2332
 7952W        W23083  16.876   0.501  15.733  0.1160  0.0481 -0.3167
 7953W        W23084   2.206   8.204  15.944 -0.1687 -0.0427  0.0252
 7954W        W23085  11.010   4.840  13.584  0.0400 -0.0850  0.1707
 7955W        W23086   4.344  17.466  15.094 -0.2234 -0.1237 -0.3303
 7956W        W23087   4.972   1.420  13.939 -0.1118  0.6091 -0.0128
 7957W        W23088   1.813  11.407   1.973 -0.2295  0.2515  0.1465
 7958W        W23089  13.133   5.136  13.461  0.0108 -0.0647 -0.1039
 7959W        W23090  12.536   0.002  15.416  0.0385 -0.1407  0.0006
 7960W        W23091   3.896   6.600   4.075  0.0764 -0.0758 -0.2380
 7961W        W23092   7.349   4.865   5.564  0.2639  0.1064 -0.1937
 7962W        W23093   1.192  13.294  13.888 -0.0169  0.0156 -0.0623
 7963W        W23094  14.403  11.998   0.568  0.1611  0.0003 -0.1274
 7964W        W23095  16.288  12.426   1.163  0.2813  0.2691  0.2185
 7965W        W23096   9.824   5.751  14.615  0.2203  0.5065  0.3236
 7966W        W23097   3.275   8.866  13.880 -0.1759  0.2583  0.0955
 7967W        W23098  17.248   0.685  10.272 -0.3851  0.3490 -0.1576
 7968W        W23099  16.525   3.901  13.766  0.0061  0.1127 -0.2724
 7969W        W23100   6.704  14.960   3.588  0.2102 -0.0307 -0.1667
 7970W        W23101  15.822   6.436   1.165  0.2540 -0.2805 -0.2366
 7971W        W23102   5.966   9.666  15.192 -0.0792  0.1038 -0.0810
 7972W        W23103   1.960   6.437  13.252 -0.0550  0.1390 -0.2602
 7973W        W23104   6.194   2.787  12.532 -0.1488 -0.0935  0.0774
 7974W        W23105  14.232   7.698  11.198  0.0385 -0.2815 -0.2582
 7975W        W23106  17.581  11.456   2.491 -0.0103  0.4167 -0.3492
 7976W        W23107   0.852   6.979   3.483  0.1002 -0.1022 -0.1738
 7977W        W23108  14.851  15.402  11.438 -0.1059 -0.0469 -0.0666
 7978W        W23109  15.010  10.083   0.976 -0.0804 -0.1689  0.2216
 7979W        W23110   2.504   3.757  14.395 -0.1720 -0.0331  0.0586
 7980W        W23111  11.407  17.425   2.867 -0.2669 -0.2463  0.0389
 7981W        W23112   8.899  17.867   0.929 -0.1627  0.0857  0.0658
 7982W        W23113  15.432  13.252  14.135  0.2172  0.2570 -0.0269
 7983W        W23114   5.852  17.600   3.681  0.1276  0.1418  0.1160
 7984W        W23115  12.926   0.229   1.399  0.1677  0.0137 -0.0686
 7985W        W23116   9.739   0.635   4.517 -0.1267  0.1740  0.4103
 7986W        W23117  16.665  13.470  14.446  0.3149 -0.1300 -0.2706
 7987W        W23118  16.570  16.779  12.263 -0.1246 -0.0742 -0.1173
 7988W        W23119   7.596   7.156   5.079  0.1092 -0.3685 -0.3103
 7989W        W23120  11.796   8.541  13.064 -0.1295 -0.2833  0.0640
 7990W        W23121   2.756   4.172  13.605 -0.0677  0.1722 -0.0248
 7991W        W23122  13.121  11.075   5.421 -0.1707 -0.3381  0.6042
 7992W        W23123   8.899  10.541   5.259 -0.2059  0.1629 -0.2775
 7993W        W23124   5.386  11.430   0.154 -0.1983 -0.1647  0.0105
 7994W        W23125  12.670  16.885   0.197 -0.3597 -0.2579 -0.6516
 7995W        W23126   6.588   3.412  15.352  0.0363  0.0817  0.1482
 7996W        W23127   6.595   2.875   0.665 -0.0106 -0.2261  0.0533
 7997W        W23128  16.717  14.724   1.831  0.4027  0.0310  0.1288
 7998W        W23129   1.394  11.390   1.370  0.0068  0.1621  0.0869
 7999W        W23130   7.081   3.116  14.005 -0.1739 -0.2192  0.2486
 8000W        W23131   1.476  14.166   1.857  0.0745  0.2241 -0.1255
 8001W        W23132  11.575   8.470   1.032 -0.1360  0.1357  0.1390
 8002W        W23133   1.723   5.115  15.118  0.1245  0.1917 -0.1759
 8003W        W23134  15.434   6.236  10.315 -0.0625 -0.4245  0.2556
 8004W        W23135   1.468   4.527  13.191 -0.1530  0.2413  0.0291
 8005W        W23136   5.117   3.989  13.439 -0.0625 -0.2508  0.1721
 8006W        W23137   9.381   9.372   3.207 -0.1705 -0.1251 -0.0912
 8007W        W23138  13.690   9.650  13.278  0.1144  0.1420 -0.2549
 8008W        W23139   6.960  13.591   3.508 -0.2551  0.3954  0.1079
 8009W        W23140  11.509  14.820  15.475 -0.0893  0.0702  0.1625
 8010W        W23141   9.275   3.287   1.479  0.3667 -0.2014  0.1051
 8011W        W23142   3.711   7.972  15.592 -0.0491  0.0212 -0.1010
 8012W        W23143   8.807  10.487  10.759 -0.0328 -0.0704 -0.0653
 8013W        W23144  13.200  14.192   0.352 -0.0424 -0.1071 -0.0660
 8014W        W23145   2.885   5.924   2.511  0.2054  0.1299 -0.2139
 8015W        W23146   3.177  16.690  10.811 -0.1274 -0.2192 -0.0530
 8016W        W23147  15.676   0.046  12.292  0.1312  0.0060 -0.1416
 8017W        W23148   9.006   2.537  15.944 -0.1010  0.2387  0.0993
 8018W        W23149  15.411   7.850  15.579  0.0238 -0.0631 -0.0983
 8019W        W23150   8.430   2.353   5.415 -0.1097 -0.0232  0.1439
 8020W        W23151  10.172   8.952  13.401 -0.2700 -0.3320 -0.0651
 8021W        W23152   7.931   2.813  15.570  0.1071  0.2243 -0.2741
 8022W        W23153  13.879   4.823  11.277 -0.0765  0.0419  0.1176
 8023W        W23154   8.074   0.819   2.284 -0.1965 -0.0652  0.2609
 8024W        W23155  12.622  10.787  15.071 -0.1265 -0.2202 -0.3303
 8025W        W23156   3.283   2.003   0.168 -0.2810  0.0771  0.0341
 8026W        W23157  17.834  17.076   4.756  0.2451 -0.4707  0.1588
 8027W        W23158   5.208  14.125  13.120  0.1950  0.1321  0.0451
 8028W        W23159  10.381   9.016   3.499  0.2178  0.2253 -0.0932
 8029W        W23160   0.999   3.238  15.273  0.1504  0.0776 -0.3218
 8030W        W23161   6.537  18.304  14.954 -0.0659  0.0709 -0.0745
 8031W        W23162   3.737  18.176  15.027 -0.0070 -0.0706  0.0354
 8032W        W23163   1.363  14.336  11.786 -0.2376  0.3449 -0.0083
 8033W        W23164  18.012   5.462   4.692  0.0855 -0.4210  0.2152
 8034W        W23165  13.237   5.532  14.571 -0.2933 -0.0872 -0.0192
 8035W        W23166  17.056  15.432   1.259  0.0631  0.3998  0.1981
 8036W        W23167  16.775   0.300   3.225  0.3158  0.2611 -0.3155
 8037W        W23168   0.412  12.964   5.094  0.1140 -0.3024  0.0623
 8038W        W23169  12.356   7.433   2.807 -0.2094  0.0407  0.3616
 8039W        W23170   4.916  17.793  13.644 -0.1900  0.2856 -0.0657
 8040W        W23171   0.715  13.541   5.813  0.2560 -0.1920 -0.0200
 8041W        W23172   5.258   3.113  11.623  0.2954  0.1820  0.4017
 8042W        W23173  17.165  13.009   1.627  0.0791 -0.2232 -0.0755
 8043W        W23174  14.045   6.503  14.911  0.1458  0.3527  0.0213
 8044W        W23175  15.697   6.727  13.410  0.3090 -0.0845 -0.1270
 8045W        W23176  17.942   6.321   2.997  0.0711 -0.2230  0.2616
 8046W        W23177   6.694  17.509  10.353 -0.0842  0.0569 -0.3126
 8047W        W23178   5.382   7.733   0.811  0.1445  0.2277  0.2411
 8048W        W23179   4.134   5.410   3.697  0.2584 -0.0082 -0.1830
 8049W        W23180   1.603  13.495  13.593 -0.3324 -0.0059  0.4727
 8050W        W23181   4.715  18.331   3.365  0.0030  0.4169 -0.2606
 8051W        W23182   8.096   3.914   6.158  0.1232  0.2438  0.0447
 8052W        W23183  14.011  16.295  10.028  0.4173 -0.3545  0.0321
 8053W        W23184   8.923   2.279  14.362 -0.2108  0.0043  0.2598
 8054W        W23185   5.782   6.605  13.749 -0.1027  0.4035 -0.0328
 8055W        W23186   0.517   7.578   1.494 -0.0554  0.0205  0.1874
 8056W        W23187  16.723   5.299   1.066 -0.2218  0.3021 -0.3132
 8057W        W23188   4.966   2.051  14.417  0.1977 -0.0022  0.1603
 8058W        W23189   7.652   1.183  13.602 -0.0257  0.0642 -0.0050
 8059W        W23190  15.155   7.829   1.897  0.1868 -0.0070 -0.1253
 8060W        W23191  17.551   9.108  12.280 -0.1499  0.0998 -0.0271
 8061W        W23192   3.047   7.356  13.363  0.0195 -0.0532  0.0404
 8062W        W23193  12.208   5.359   0.623  0.1658 -0.2100 -0.0188
 8063W        W23194  17.124   4.648   4.969 -0.2503 -0.0861  0.0440
 8064W        W23195  10.222   1.066   5.788  0.1043  0.1859 -0.0071
 8065W        W23196  16.297   6.658  14.827  0.1442  0.0189 -0.1791
 8066W        W23197   5.688   6.670  12.906  0.0057  0.2625  0.2965
 8067W        W23198  10.246  12.551  10.890  0.1898 -0.0459 -0.0552
 8068W        W23199  17.986  17.185   3.575 -0.0370 -0.2028 -0.0542
 8069W        W23200   9.871   1.022  11.622  0.0885 -0.0429  0.3029
 8070W        W23201  12.852  10.716  13.094  0.0596  0.0356  0.1859
 8071W        W23202   7.588  12.386   4.329 -0.0116  0.3564  0.2881
 8072W        W23203  17.092  17.368   1.944 -0.1057 -0.1171 -0.2790
 8073W        W23204  13.855   5.901   3.432 -0.0501 -0.0992  0.0150
 8074W        W23205  15.002  13.907   2.799  0.1645  0.0796  0.0808
 8075W        W23206   0.961  11.841  15.070 -0.1148  0.1385 -0.0176
 8076W        W23207  14.593   7.216  12.888  0.0505  0.1530 -0.0519
 8077W        W23208   0.488  16.486  12.408 -0.4788  0.0300 -0.3117
 8078W        W23209   5.569  16.662   3.923 -0.1975 -0.0762 -0.2611
 8079W        W23210  12.194   0.410  10.068  0.0674  0.1376  0.0337
 8080W        W23211   0.880  10.232  13.659 -0.1498 -0.1037 -0.0713
 8081W        W23212   6.992  15.928   5.613 -0.3396  0.0026 -0.3766
 8082W        W23213  13.902   3.558   0.630 -0.2672 -0.0384 -0.1064
 8083W        W23214   1.077   3.214   6.009 -0.1141 -0.0047  0.2975
 8084W        W23215  10.438   7.678   3.808 -0.3605  0.0032  0.0069
 8085W        W23216  13.846  16.609  12.629 -0.2435  0.0092  0.0670
 8086W        W23217  12.243  17.135   2.185  0.2804 -0.3772  0.1681
 8087W        W23218  16.802   8.148  12.937 -0.0140 -0.2013  0.1251
 8088W        W23219  11.766  14.315   1.619  0.1572  0.1671  0.0579
 8089W        W23220  12.902   6.033  13.663 -0.1301  0.2915 -0.0473
 8090W        W23221  10.012  15.837   0.693 -0.2141 -0.0843  0.1861
 8091W        W23222  12.650   6.766  13.196  0.3296 -0.0890 -0.5001
 8092W        W23223   8.785  13.821   2.443 -0.0941 -0.3382  0.1508
 8093W        W23224  14.601  16.391   1.897  0.1455  0.0313  0.2713
 8094W        W23225   3.828  17.450  10.793  0.1516  0.0949  0.0423
 8095W        W23226   7.028  15.833  14.475 -0.1758  0.0392  0.2086
 8096W        W23227   9.954   9.263   1.519  0.1225  0.1790 -0.0135
 8097W        W23228   8.571   1.801   3.596  0.0594 -0.2369  0.1557
 8098W        W23229   5.775   2.153   3.072  0.0321  0.1008  0.1078
 8099W        W23230  18.232   5.008  14.114 -0.0665  0.0225  0.0582
 8100W        W23231  18.181   7.774   2.642  0.3059 -0.2830  0.0531
 8101W        W23232  17.102  16.169  12.572 -0.3000  0.3280 -0.0248
 8102W        W23233   5.583  14.447   5.190  0.0419 -0.1193  0.0428
 8103W        W23234  11.436   7.113  14.948  0.0600  0.0275 -0.1701
 8104W        W23235   0.267   8.390   2.240 -0.0845  0.3925 -0.0692
 8105W        W23236   7.858  14.305  12.590  0.2426 -0.1052 -0.0167
 8106W        W23237   2.531   4.284   0.527 -0.1657  0.0602  0.0332
 8107W        W23238   1.559   5.715  14.668  0.1138 -0.1430  0.0371
 8108W        W23239  18.176   5.951  10.689  0.0177 -0.1247  0.1883
 8109W        W23240   2.312  16.999  11.534 -0.0986  0.4129  0.4007
 8110W        W23241  14.780  13.470  13.940  0.0647  0.1031 -0.1096
 8111W        W23242  17.077  15.719   6.228 -0.3061  0.1204 -0.0837
 8112W        W23243  10.356  18.036  15.035 -0.0551 -0.3558 -0.1978
 8113W        W23244   7.852   3.032  14.453 -0.0064  0.2087 -0.0985
 8114W        W23245   9.205   0.196   2.561  0.1791 -0.1255 -0.0649
 8115W        W23246  11.561   4.970  12.151  0.1792 -0.0905 -0.2816
 8116W        W23247  15.099   2.233   0.557  0.2583 -0.1207 -0.3244
 8117W        W23248   8.164  13.869  16.137  0.1239 -0.2274 -0.2520
 8118W        W23249  17.813  12.002  11.585  0.3410 -0.1067  0.0150
 8119W        W23250  17.733   4.907   9.839 -0.0648 -0.0796  0.2478
 8120W        W23251   4.885   6.352   4.170 -0.0911  0.0976 -0.1160
 8121W        W23252   8.044  15.324  15.115 -0.2699 -0.1019 -0.1971
 8122W        W23253  10.039  13.056  11.109  0.1379 -0.0138 -0.2770
 8123W        W23254   2.003  16.476   4.585  0.0239  0.2392 -0.0359
 8124W        W23255  10.404  14.224  13.889 -0.2240 -0.1110 -0.1512
 8125W        W23256   8.813  17.549  13.286 -0.3251 -0.1453  0.0750
 8126W        W23257   6.617  14.407  12.205  0.1295  0.1830  0.2882
 8127W        W23258  16.525  13.124   2.683  0.1035  0.0368  0.0906
 8128W        W23259  13.085   2.751  12.153 -0.0437 -0.2234  0.1298
 8129W        W23260  17.590   4.095  12.625 -0.1669 -0.1035  0.1743
 8130W        W23261   1.703   4.806  12.839 -0.2091 -0.0996 -0.2065
 8131W        W23262   4.036   1.148   4.650 -0.0981 -0.0560 -0.5105
 8132W        W23263  12.247  14.534   1.648 -0.3313 -0.1503  0.1969
 8133W        W23264  15.285  14.251  15.174  0.1942  0.2531  0.1117
 8134W        W23265   6.598   6.397   0.756 -0.0470  0.1144  0.1649
 8135W        W23266   3.558   2.743  14.411 -0.3197 -0.0888  0.0900
 8136W        W23267   0.269   8.062   0.636 -0.4277 -0.0735 -0.0513
 8137W        W23268   3.687  13.194  12.342  0.3515  0.1477  0.1519
 8138W        W23269   2.824   0.316  13.695 -0.0572 -0.1122 -0.0226
 8139W        W23270  16.626   9.304  12.526 -0.0276 -0.0563 -0.1416
 8140W        W23271   8.274  15.657   2.965 -0.1816 -0.0891  0.1847
 8141W        W23272  11.495   2.716   2.300 -0.1314  0.1383  0.0078
 8142W        W23273   2.106  17.523  14.448 -0.0628 -0.2687 -0.2022
 8143W        W23274   5.835   0.198  10.214 -0.0687 -0.2296 -0.1813
 8144W        W23275  12.033  13.760  14.016  0.0063  0.0616  0.0021
 8145W        W23276  17.484  12.903  15.426  0.1842  0.2118  0.0717
 8146W        W23277   0.288   8.213  11.284 -0.1277 -0.2493  0.1337
 8147W        W23278   7.582   9.071  13.999  0.3625 -0.0114  0.2024
 8148W        W23279   7.264  17.204  10.980 -0.0207  0.2285  0.0677
 8149W        W23280   4.276   0.154  13.296  0.0479  0.2399  0.1197
 8150W        W23281  17.920  13.374  12.480 -0.2234 -0.0017 -0.1075
 8151W        W23282  17.138   3.856  12.837 -0.3009 -0.0355 -0.2163
 8152W        W23283   8.680  17.348  11.347 -0.1358  0.0139 -0.0003
 8153W        W23284  17.250   2.094   3.931  0.2798  0.1328 -0.1012
 8154W        W23285   5.979   1.039   0.983 -0.1378 -0.0221  0.2751
 8155W        W23286  15.780  12.722  16.059 -0.2882  0.0426 -0.0251
 8156W        W23287  17.004   3.998   4.068  0.0573  0.0638  0.1252
 8157W        W23288  10.036   6.151  14.222  0.1590 -0.2767  0.1475
 8158W        W23289   1.038  15.420  12.645 -0.0156  0.1647 -0.0307
 8159W        W23290  13.836  17.023   1.952 -0.0765 -0.1584  0.1150
 8160W        W23291   1.944  13.083   2.900  0.0754  0.2774  0.1165
 8161W        W23292   4.650   8.305  10.950  0.4460  0.0977  0.1049
 8162W        W23293  13.268  10.090   3.596  0.1979 -0.2890  0.2901
 8163W        W23294   5.170   4.218   3.792 -0.0180  0.0557 -0.0626
 8164W        W23295  13.341  10.180   1.397 -0.0552  0.1221 -0.0776
 8165W        W23296  16.865  11.405  13.923  0.1936 -0.2544  0.0008
 8166W        W23297   7.268  16.511  13.536 -0.0108 -0.1620 -0.0331
 8167W        W23298   2.112   1.017   4.731  0.3915  0.1033 -0.0926
 8168W        W23299   8.646   7.691   0.056  0.1045  0.0550  0.0231
 8169W        W23300  17.721  18.322  12.217 -0.1641 -0.2188 -0.0570
 8170W        W23301  10.867   1.882  15.819  0.1383 -0.0881  0.1228
 8171W        W23302   6.545  11.491  11.773 -0.0205 -0.0607 -0.0668
 8172W        W23303  14.218  14.308  11.772 -0.1696  0.1014 -0.0090
 8173W        W23304  15.687   6.104  14.345  0.4040 -0.1283  0.1332
 8174W        W23305  15.689   0.726   5.403 -0.1652 -0.0222  0.0218
 8175W        W23306   1.546  16.244  12.989  0.0812  0.2795  0.0804
 8176W        W23307   1.777  16.042  12.258 -0.1359 -0.2022 -0.1980
 8177W        W23308   6.206   4.861   1.309  0.2656 -0.2270 -0.0287
 8178W        W23309  14.177   4.762   2.629 -0.0757  0.1162  0.1408
 8179W        W23310  15.981   3.043   5.518 -0.0680 -0.1810  0.0227
 8180W        W23311   4.007   3.439   2.335 -0.0429  0.1829  0.0337
 8181W        W23312   0.677  16.799  10.774 -0.0097  0.2585  0.1477
 8182W        W23313  17.926   6.939  12.970 -0.0529 -0.0031  0.1464
 8183W        W23314  17.873   6.225  14.742 -0.3756  0.4049 -0.2625
 8184W        W23315   8.801   8.589  10.662 -0.0670 -0.0261  0.0254
 8185W        W23316  13.458   1.918   4.818 -0.2024  0.4196 -0.1284
 8186W        W23317  13.189   3.978  14.626 -0.2271 -0.2699  0.0768
 8187W        W23318  10.443  16.119   0.553 -0.1644  0.2644 -0.1290
 8188W        W23319  16.417   4.086  15.278 -0.0101  0.0275 -0.0757
 8189W        W23320   4.706  16.077  14.157  0.0301  0.0313  0.0004
 8190W        W23321  13.442   0.860  10.374 -0.3237  0.2231  0.2195
 8191W        W23322   4.330   6.585  11.197 -0.1556 -0.0831  0.3733
 8192W        W23323   4.989   9.057  11.054 -0.2326 -0.1388  0.0840
 8193W        W23324  18.079   7.998  15.886  0.3588  0.3950 -0.2761
 8194W        W23325   1.915  17.888  16.027 -0.1340  0.0391 -0.1764
 8195W        W23326   5.004   9.130   2.176  0.3356 -0.0773 -0.0725
 8196W        W23327   5.421   7.840  10.790 -0.0860  0.0239  0.0900
 8197W        W23328  14.391  12.435   4.209 -0.0617  0.2844 -0.1079
 8198W        W23329  14.707  18.062   4.928  0.2344 -0.1971 -0.1579
 8199W        W23330  15.845   5.819   2.846 -0.3549  0.2680 -0.1564
 8200W        W23331  17.959   9.257  12.526 -0.0902  0.0342  0.1649
 8201W        W23332   8.576  16.607  14.774  0.0836  0.0197  0.4877
 8202W        W23333  14.622   8.704   3.032 -0.1199  0.2791  0.0796
 8203W        W23334  12.858   0.256   2.289 -0.1478  0.0208  0.1357
 8204W        W23335   0.300   0.837  15.060 -0.2990  0.0517  0.3439
 8205W        W23336   8.905   1.162   1.081  0.0077  0.1890  0.2240
 8206W        W23337  13.374  14.560   3.973  0.1484 -0.1834  0.3642
 8207W        W23338   9.150   9.687   2.858  0.1005  0.0575  0.0097
 8208W        W23339   2.870   0.802  16.010 -0.2800  0.1094  0.2070
 8209W        W23340   3.393   7.408   4.708 -0.1756  0.0580 -0.0226
 8210W        W23341   2.427   2.531   1.237  0.0787 -0.0017 -0.1050
 8211W        W23342   8.400  13.343   2.022  0.0405  0.2336  0.1547
 8212W        W23343  18.277   2.373   3.233 -0.2660  0.1289 -0.2549
 8213W        W23344  16.632   0.083  15.079 -0.0814  0.2162  0.1876
 8214W        W23345   9.928  17.660  13.421 -0.0181  0.1095  0.0700
 8215W        W23346  15.597  11.866   5.102 -0.2034 -0.0948  0.0096
 8216W        W23347  10.031   7.537  11.565 -0.2158  0.0898 -0.0435
 8217W        W23348  10.471  18.055  11.663 -0.2471  0.0409 -0.0476
 8218W        W23349  18.277   5.382  10.943 -0.0163 -0.3505  0.4163
 8219W        W23350  10.452   8.747   1.322  0.1019  0.1470 -0.0376
 8220W        W23351  12.396  15.432   4.543 -0.0782  0.0242 -0.1913
 8221W        W23352   8.629   0.684  12.675  0.1356 -0.0254 -0.1008
 8222W        W23353   5.239  16.489   3.454  0.1141 -0.1162  0.0668
 8223W        W23354  14.373   5.417   0.432  0.0597 -0.1016  0.0639
 8224W        W23355   8.223  14.633   2.634  0.0671  0.0133 -0.1409
 8225W        W23356  15.491   7.848  10.214  0.1068 -0.0191 -0.2922
 8226W        W23357  15.742   9.384   4.332 -0.3788  0.2019 -0.2707
 8227W        W23358   4.407  10.432   3.020 -0.1515 -0.3487 -0.0243
 8228W        W23359   4.454   1.037   5.006  0.1615 -0.4633 -0.0797
 8229W        W23360   4.145  14.748   4.072 -0.2680  0.0820  0.2736
 8230W        W23361   0.607  11.139  11.446 -0.0288 -0.0123  0.4299
 8231W        W23362  11.141   8.475   3.512 -0.3910  0.2830 -0.0604
 8232W        W23363   5.173   6.858  16.115  0.1378  0.4115 -0.0383
 8233W        W23364  10.989  15.799   4.136  0.0015  0.1912 -0.2425
 8234W        W23365  16.926   4.478  11.430 -0.3878 -0.1411  0.0506
 8235W        W23366  17.505  16.830   0.045 -0.4597  0.3130 -0.0220
 8236W        W23367   2.186   2.771   3.265  0.1986 -0.1829 -0.2585
 8237W        W23368   0.676   6.081   2.433 -0.0414  0.3001 -0.1399
 8238W        W23369   1.497  11.985  13.400  0.0839  0.0696  0.1130
 8239W        W23370   9.287  18.074   2.621  0.1492 -0.0691  0.0887
 8240W        W23371   7.658   7.960  12.831 -0.2005 -0.1080  0.0642
 8241W        W23372   7.191   1.158   3.850 -0.0495  0.2432 -0.1841
 8242W        W23373   6.479   0.082  12.910  0.1272 -0.2232  0.0761
 8243W        W23374   0.007   6.360  12.682 -0.1443 -0.0564 -0.1133
 8244W        W23375   0.390   8.988   1.764  0.0384  0.1652 -0.0425
 8245W        W23376  11.322  16.940  16.122 -0.4695 -0.0651  0.1837
 8246W        W23377  13.710   0.774   5.450 -0.0761 -0.0507  0.3629
 8247W        W23378  11.097  14.849  13.627  0.2792  0.1736  0.1031
 8248W        W23379  15.213   6.257  15.209  0.0280  0.0598 -0.1647
 8249W        W23380   6.632   1.131  15.377  0.2883 -0.2112 -0.1212
 8250W        W23381  14.989  12.752   3.831  0.1227  0.1452  0.3783
 8251W        W23382   6.397  14.750   0.129 -0.0701 -0.1010 -0.1030
 8252W        W23383   7.621  10.243   5.892 -0.0068  0.1722  0.0020
 8253W        W23384  14.536  16.416   3.280  0.2616  0.1472 -0.0028
 8254W        W23385   2.753  16.883  13.082 -0.2376  0.0226 -0.1736
 8255W        W23386   8.852  18.129   3.727 -0.0273 -0.0627 -0.0735
 8256W        W23387   8.138   1.762  14.709 -0.0631  0.1353 -0.0823
 8257W        W23388   6.607   7.791   0.507 -0.1108 -0.0073 -0.2868
 8258W        W23389  11.436  17.270   4.941  0.0103 -0.0807 -0.2308
 8259W        W23390   3.541  13.830  13.922 -0.0954 -0.1650  0.0739
 8260W        W23391   7.996   4.071  13.659 -0.0863 -0.4451 -0.1995
 8261W        W23392   8.278   1.642  12.403  0.0438 -0.2345 -0.0400
 8262W        W23393   4.695  11.633  13.740 -0.1404 -0.0129 -0.2186
 8263W        W23394   0.561   2.050   4.234  0.2116 -0.0522 -0.1450
 8264W        W23395  17.060  17.320   1.398 -0.3303 -0.2117 -0.1714
 8265W        W23396  11.500   0.550   3.553  0.1134 -0.0989 -0.3284
 8266W        W23397   7.488   6.226  12.167 -0.0035 -0.4401 -0.1268
 8267W        W23398   0.784  15.112  13.805  0.1480  0.2651 -0.2544
 8268W        W23399   5.303   8.389   2.157 -0.0868  0.5256 -0.0925
 8269W        W23400   0.487   5.987   4.891  0.0575  0.3739  0.2463
 8270W        W23401  12.771  13.248   4.348 -0.2299 -0.1819  0.3245
 8271W        W23402   4.445   3.311  14.495  0.0249 -0.1000  0.2381
 8272W        W23403  10.896   5.428  14.799  0.3687 -0.1539 -0.0980
 8273W        W23404   7.333  14.045  13.980 -0.3680 -0.2850 -0.2333
 8274W        W23405   8.601   0.565   5.183  0.1007 -0.2701 -0.0343
 8275W        W23406  10.618   9.828  12.363 -0.2607  0.1227 -0.0637
 8276W        W23407   6.221   4.676   0.544  0.1669 -0.1752 -0.0307
 8277W        W23408  15.795   8.049   2.191  0.1355 -0.2829 -0.0602
 8278W        W23409  12.176   4.580  14.125  0.1159  0.4469 -0.1954
 8279W        W23410  11.119   6.126  14.262  0.0551  0.0234  0.0170
 8280W        W23411  16.545   7.308   1.926 -0.1032  0.3218  0.0988
 8281W        W23412   7.531  11.998  11.141  0.1832  0.0120 -0.0729
 8282W        W23413   0.671   4.708   0.207 -0.0648 -0.1015  0.3463
 8283W        W23414   6.218  12.414  12.270 -0.3642 -0.0184  0.2148
 8284W        W23415   9.575   8.900   3.396  0.0800 -0.1444  0.0043
 8285W        W23416   2.404   7.505   2.941  0.0418  0.0767  0.1482
 8286W        W23417   8.436  10.348  11.463  0.2784  0.0425  0.1366
 8287W        W23418  11.881  13.602   4.709  0.1929 -0.2372  0.2018
 8288W        W23419   2.593   1.805  11.100 -0.1689  0.0519  0.1962
 8289W        W23420   7.321  18.063  13.406  0.0666 -0.0338  0.2199
 8290W        W23421  18.226  12.253   3.179 -0.2477 -0.2395 -0.0440
 8291W        W23422   5.633   7.361  12.197 -0.0048 -0.2221  0.0001
 8292W        W23423  10.695  11.570   1.296  0.1503 -0.0710 -0.3789
 8293W        W23424   0.757  17.746   4.841  0.0173  0.1521  0.1026
 8294W        W23425  11.099   2.755  12.340 -0.0004 -0.0004  0.1984
 8295W        W23426   5.168   0.192   4.787 -0.3100 -0.0222  0.0967
 8296W        W23427   1.293  12.711   4.291  0.1675 -0.1288  0.1095
 8297W        W23428   5.078   7.490  11.622 -0.2856 -0.0431  0.0302
 8298W        W23429  18.348  11.541   3.822 -0.0147  0.0140  0.1307
 8299W        W23430  15.429   9.025  13.881  0.2848 -0.2801 -0.1976
 8300W        W23431   2.864   1.553  14.913 -0.0984  0.2161 -0.0416
 8301W        W23432  11.152  12.456   1.776 -0.1949 -0.4207  0.2034
 8302W        W23433   8.502  12.300   2.502 -0.1749 -0.1651  0.2455
 8303W        W23434  17.969   8.933  14.028  0.0994  0.0848  0.1672
 8304W        W23435  11.605   8.134  12.628  0.0928  0.1541 -0.0179
 8305W        W23436  13.121  13.357   0.950  0.1138 -0.0892  0.0720
 8306W        W23437   5.080   0.373  12.670  0.0968  0.2943  0.0891
 8307W        W23438   7.311   3.015   2.819  0.0606 -0.2837 -0.0148
 8308W        W23439   0.646  12.993   0.830  0.0033 -0.2092 -0.1971
 8309W        W23440  16.520  11.009   2.276 -0.1827 -0.2595 -0.2107
 8310W        W23441  14.320   1.790  15.248  0.0757 -0.0094 -0.0095
 8311W        W23442   8.262   3.111   6.645 -0.1748 -0.3919  0.2793
 8312W        W23443   4.746   5.866   0.300 -0.1352 -0.3304 -0.1614
 8313W        W23444  10.889   7.184   2.908 -0.0212  0.2630  0.1703
 8314W        W23445  14.568   2.767  11.627 -0.0619 -0.2618  0.1323
 8315W        W23446  13.095   1.775   5.082  0.0934  0.0249  0.0498
 8316W        W23447   2.160   5.789  15.375 -0.0633 -0.2024 -0.1887
 8317W        W23448   0.818   5.275   3.686  0.1144 -0.0092 -0.0097
 8318W        W23449  11.220   4.482   2.556  0.3739 -0.1339  0.0167
 8319W        W23450   6.633   9.065   0.699 -0.2725 -0.0744  0.0207
 8320W        W23451  13.332  13.782   3.461  0.0448 -0.1278 -0.0311
 8321W        W23452  17.225   9.996  13.427  0.1460 -0.1198  0.0229
 8322W        W23453   3.023   2.830   2.757  0.3667  0.0768  0.0963
 8323W        W23454  13.046   0.777   0.646  0.2854  0.1900  0.2868
 8324W        W23455  15.021  13.795  13.516 -0.1111 -0.3894 -0.0707
 8325W        W23456   5.654   3.469   3.934 -0.3204  0.0364 -0.2171
 8326W        W23457   9.301  10.583  14.958  0.1988 -0.2163 -0.0018
 8327W        W23458   5.374   3.852   1.767 -0.0218  0.1251  0.0719
 8328W        W23459  14.262  17.719   4.243 -0.2360 -0.0464  0.1107
 8329W        W23460   8.255   6.487   5.482  0.0002  0.1007  0.0142
 8330W        W23461  18.165   0.445   1.203 -0.2427 -0.0437  0.0666
 8331W        W23462   7.127  10.410   3.391 -0.0898 -0.1208 -0.1573
 8332W        W23463   7.348   1.411   4.357  0.2967  0.1866  0.0124
 8333W        W23464   2.522   4.675  10.769 -0.0062 -0.1419 -0.0401
 8334W        W23465   1.682   8.375   1.992 -0.0494 -0.2406 -0.1387
 8335W        W23466   5.842  11.348  14.541 -0.2082  0.0057 -0.0134
 8336W        W23467  17.144   2.795  13.590  0.0741  0.4526 -0.2816
 8337W        W23468   9.170  13.330  10.712 -0.0595 -0.0165  0.1188
 8338W        W23469   3.512   4.829   2.024 -0.2889 -0.1528 -0.3439
 8339W        W23470  13.675   3.778   5.308  0.3886  0.1553  0.1453
 8340W        W23471   5.591  17.040  12.552  0.0390 -0.0771  0.2542
 8341W        W23472   5.577   1.330   0.519  0.2917 -0.0269  0.3962
 8342W        W23473   3.714  13.639   1.156  0.0320  0.0238 -0.1472
 8343W        W23474   7.994  17.428   2.255 -0.0480  0.2122 -0.1172
 8344W        W23475  15.481   5.121  14.213  0.1882 -0.1335  0.1334
 8345W        W23476  11.238   6.662  11.011  0.2631 -0.0136  0.0457
 8346W        W23477  13.486   1.237  14.320  0.1237  0.1135  0.1169
 8347W        W23478  10.563  13.373   5.355 -0.2620 -0.1601 -0.0599
 8348W        W23479   8.260  16.620   2.405 -0.0488 -0.0759 -0.2566
 8349W        W23480  12.950  18.146  15.174  0.1319 -0.2180 -0.0918
 8350W        W23481   1.401   9.641  11.074 -0.2000  0.1057  0.0390
 8351W        W23482   8.657   2.814  11.667 -0.1293 -0.1890  0.2581
 8352W        W23483  12.350   1.735  12.595  0.0074 -0.0164  0.1916
 8353W        W23484   1.370  15.634   0.186  0.2626  0.3588 -0.2057
 8354W        W23485   5.509   5.078   0.227 -0.0886 -0.0185  0.1379
 8355W        W23486   5.902   7.898   3.745  0.3730  0.0460  0.0932
 8356W        W23487   7.274   8.521  15.522  0.2455 -0.0920 -0.0380
 8357W        W23488  13.577  11.109  15.274 -0.0215 -0.0258 -0.0402
 8358W        W23489  13.323  12.165   0.040  0.0309 -0.1690  0.5462
 8359W        W23490  16.040   6.382   2.805 -0.0113  0.0934 -0.1062
 8360W        W23491   0.725   8.335  13.887  0.1453  0.1735  0.0469
 8361W        W23492   0.739  15.182   2.511 -0.3395  0.1346  0.0173
 8362W        W23493  18.075   5.286   9.961 -0.1069  0.0588  0.1774
 8363W        W23494   2.230   9.838   5.060 -0.0819  0.0955 -0.2009
 8364W        W23495   2.997   5.103  13.978  0.0090 -0.1925  0.1073
 8365W        W23496   9.394   7.202  11.623  0.2221 -0.0332  0.1091
 8366W        W23497  14.765  12.094  14.955 -0.1041 -0.2124 -0.1977
 8367W        W23498   6.173   4.162   1.237 -0.0047 -0.2382 -0.1754
 8368W        W23499  16.911  12.638  13.678  0.1838 -0.1467 -0.1732
 8369W        W23500   5.624  11.842   5.448  0.1043 -0.1768 -0.0015
 8370W        W23501  15.034  12.698   2.569  0.0924  0.0525 -0.1362
 8371W        W23502   7.721   5.519   0.911  0.0018 -0.1448  0.2747
 8372W        W23503   0.182  10.804  14.920  0.0369  0.1742  0.3514
 8373W        W23504  10.207  11.228  14.328 -0.0490 -0.1449  0.0135
 8374W        W23505   1.996   5.297   3.067  0.1704  0.0243  0.3837
 8375W        W23506   2.757   6.282  16.015 -0.0550 -0.2979  0.1755
 8376W        W23507  14.494  12.846  11.709 -0.4606  0.0795  0.0694
 8377W        W23508  14.626  17.124   5.382 -0.0532  0.3081  0.0692
 8378W        W23509   9.961   6.801   4.160  0.4699  0.0626 -0.4177
 8379W        W23510  18.245   5.317  11.507 -0.1673  0.0087  0.1476
 8380W        W23511   9.823  11.410   4.438 -0.0623  0.3026  0.2179
 8381W        W23512   5.665   4.663   2.849 -0.1502  0.2107 -0.0873
 8382W        W23513  12.943   6.138   0.134 -0.0072 -0.0841  0.0021
 8383W        W23514   8.704  14.894   9.208  0.0004  0.4364  0.1470
 8384W        W23515  14.849   5.725  13.074  0.0073 -0.2599  0.3031
 8385W        W23516  13.545   7.253   2.205  0.1801  0.4107  0.1645
 8386W        W23517   0.121   2.913  10.964 -0.2623 -0.4763  0.1040
 8387W        W23518  10.585  13.423   0.577  0.1437  0.0142 -0.0910
 8388W        W23519  13.269   8.802   3.283  0.1609  0.0265 -0.1152
 8389W        W23520  12.776   3.133   0.123 -0.2026 -0.1340  0.1987
 8390W        W23521  12.942   1.254   2.697 -0.0663  0.1813 -0.0082
 8391W        W23522  14.338   7.245   3.873  0.1487 -0.0378  0.2235
 8392W        W23523  14.771  13.641   1.098 -0.2835  0.2222  0.0490
 8393W        W23524   2.502   9.808   4.683  0.4218  0.0035  0.1592
 8394W        W23525  14.609  14.077   4.327 -0.0486  0.1150  0.0559
 8395W        W23526   3.149   3.774  15.475 -0.0109 -0.1472 -0.2076
 8396W        W23527   9.430  15.133  10.963 -0.0196  0.0460  0.0914
 8397W        W23528  17.752   8.194  15.615  0.2731  0.3222 -0.1955
 8398W        W23529  12.285   3.805  12.069 -0.1223 -0.2543  0.0831
 8399W        W23530  11.355   0.698   3.035 -0.0147 -0.1227 -0.1175
 8400W        W23531  12.192   7.883  12.631  0.2319 -0.2843  0.0352
 8401W        W23532   3.694   8.616  16.129  0.1655  0.1988 -0.0647
 8402W        W23533  17.043   7.464   5.552  0.0882  0.3709 -0.0182
 8403W        W23534  17.465  13.346  10.234  0.0560 -0.0250 -0.0952
 8404W        W23535   0.325   1.599   2.563  0.1839  0.2019 -0.2323
 8405W        W23536  17.843   6.553   3.747 -0.2678  0.1655  0.0340
 8406W        W23537  13.924   8.831   0.921  0.0597  0.2253  0.0748
 8407W        W23538   5.466   8.902   4.171  0.0745  0.0589  0.0786
 8408W        W23539   2.125   8.344   3.255 -0.1791  0.3061  0.2450
 8409W        W23540  11.980   7.422   2.488 -0.0444 -0.1524 -0.0978
 8410W        W23541  17.718   8.726   1.932 -0.0147 -0.1443  0.0473
 8411W        W23542   3.835  11.952  15.990 -0.1167 -0.1229 -0.2290
 8412W        W23543   1.122   2.414  12.384  0.2949 -0.1355  0.2125
 8413W        W23544  12.448  17.719  13.294  0.5130  0.1236 -0.2515
 8414W        W23545  12.289   9.555   4.273 -0.0873 -0.1748  0.2313
 8415W        W23546  14.951   5.858   0.974 -0.0137  0.0308 -0.2502
 8416W        W23547   6.826   8.824   2.413 -0.4019  0.1229  0.2033
 8417W        W23548  14.864  10.088  13.387 -0.0163 -0.1191 -0.1952
 8418W        W23549  10.980   9.386  13.508 -0.2451 -0.0141  0.0324
 8419W        W23550   6.094   3.764   3.774 -0.0514  0.1102 -0.2264
 8420W        W23551   5.577   0.358   1.677  0.0789 -0.2732  0.0505
 8421W        W23552   0.827   4.616   1.265 -0.1318 -0.0711  0.0341
 8422W        W23553  18.041  17.480  12.196 -0.1835 -0.1143 -0.1978
 8423W        W23554  13.956   3.729  14.428  0.2666 -0.0213 -0.2225
 8424W        W23555  13.546   2.860  11.965  0.0248 -0.3041  0.1218
 8425W        W23556  11.853   4.084  11.476  0.2345  0.3267  0.1665
 8426W        W23557   0.745   9.713   2.062  0.2768  0.1016 -0.1816
 8427W        W23558   6.658  18.293   3.900  0.1634  0.1963  0.2058
 8428W        W23559  14.070  10.861  11.816  0.0665 -0.1572 -0.0045
 8429W        W23560  12.859   1.862  14.653 -0.0627  0.3990 -0.3450
 8430W        W23561  12.405  14.462   5.039  0.0901 -0.0064 -0.0612
 8431W        W23562   5.182  10.373  15.548  0.2140 -0.1377  0.0833
 8432W        W23563   0.110   1.420   2.050  0.0752  0.2407 -0.1138
 8433W        W23564   9.984   3.877  14.207 -0.4070 -0.3076  0.1111
 8434W        W23565  10.768  12.182  12.753 -0.4932  0.1131  0.0596
 8435W        W23566  14.844  15.206  11.927 -0.1254  0.3328 -0.1903
 8436W        W23567   8.474   0.260  15.667 -0.2139  0.3276  0.0665
 8437W        W23568   2.371  15.146  13.434  0.2046  0.0838  0.0730
 8438W        W23569   5.698  17.271  11.921 -0.0544  0.0677  0.1378
 8439W        W23570   5.824   2.784   4.803 -0.1730 -0.0831 -0.1071
 8440W        W23571   2.688   4.386   0.091  0.0722  0.2529  0.1618
 8441W        W23572  15.073  16.305  11.427  0.2193  0.1515  0.0109
 8442W        W23573   9.395  11.335   0.280  0.2197  0.1363 -0.1251
 8443W        W23574   0.391   5.408  11.189 -0.3968  0.0763  0.2338
 8444W        W23575  14.234   8.360   2.487 -0.2248  0.0720  0.2255
 8445W        W23576   4.138  17.042   1.698  0.1859 -0.1788  0.4243
 8446W        W23577   7.835   6.367  11.801  0.3706 -0.0865 -0.1633
 8447W        W23578  14.728  17.858  16.112  0.2553  0.1432 -0.1724
 8448W        W23579  10.341  17.499   4.800  0.0902  0.0381  0.2123
 8449W        W23580   5.913   5.352  12.199 -0.1227  0.1963  0.0871
 8450W        W23581  17.279   9.398   6.125  0.0553  0.4504  0.1726
 8451W        W23582  13.534   4.627  12.475 -0.0993  0.1305 -0.2008
 8452W        W23583  12.042   2.222   4.789  0.0995 -0.0677  0.0244
 8453W        W23584  11.746   2.602   1.388 -0.0747  0.0500  0.0570
 8454W        W23585  17.116  13.374   1.123  0.1745 -0.2743 -0.1434
 8455W        W23586  13.204  11.529  15.148 -0.2521  0.2038 -0.0183
 8456W        W23587   0.283   5.079  11.901 -0.4385 -0.5363 -0.0313
 8457W        W23588  11.034   5.094  11.302 -0.2014 -0.1233  0.3113
 8458W        W23589  14.230   9.620   6.094 -0.1716 -0.1175  0.1454
 8459W        W23590  13.095   9.871  14.108  0.1089  0.0963  0.3797
 8460W        W23591   9.097   1.480   1.442 -0.1762 -0.1505  0.0650
 8461W        W23592   1.926   4.970   4.520 -0.2266  0.2606 -0.0998
 8462W        W23593   7.355  17.461   3.085 -0.2174 -0.0358  0.0642
 8463W        W23594   0.858   6.182   1.713 -0.1504 -0.1202  0.0309
 8464W        W23595  14.182  16.789  15.975 -0.2400  0.1594 -0.1791
 8465W        W23596   6.426  13.023   0.898 -0.3258 -0.3991  0.0489
 8466W        W23597  12.550   6.955  11.761  0.1898  0.1421 -0.0382
 8467W        W23598  12.785  14.753   2.370 -0.1876  0.0367 -0.0938
 8468W        W23599   5.121   0.616  14.910 -0.0837 -0.0128 -0.2295
 8469W        W23600  13.035  16.346  13.632  0.4435  0.2275 -0.0524
 8470W        W23601  18.110   9.301  13.653  0.0685 -0.0284 -0.0146
 8471W        W23602  17.759  17.898  12.699  0.0450 -0.2434 -0.2969
 8472W        W23603   1.517  17.988   5.766 -0.0196  0.0696 -0.0943
 8473W        W23604  10.163   4.271  15.087  0.1282 -0.0783 -0.3224
 8474W        W23605   8.809   4.558  13.723  0.1844 -0.1484 -0.0934
 8475W        W23606   9.914   9.026  12.199  0.2030  0.1829 -0.1040
 8476W        W23607  10.460  16.446  14.344 -0.1314  0.3402 -0.3983
 8477W        W23608  10.849  10.672  14.665 -0.0577 -0.0526 -0.2805
 8478W        W23609  13.560  14.473   2.346  0.3700 -0.0670  0.0017
 8479W        W23610  14.723   6.184  15.026  0.0409  0.2312  0.1143
 8480W        W23611  18.079   2.406  13.520  0.0529 -0.0209 -0.0784
 8481W        W23612   5.916  13.370  12.490 -0.0420 -0.1592  0.4397
 8482W        W23613  11.408   4.856  10.882 -0.5582 -0.0244  0.0265
 8483W        W23614   7.024   4.836  10.360  0.3363  0.1533 -0.2875
 8484W        W23615  10.624   2.548   0.327 -0.0024  0.0145  0.2326
 8485W        W23616  11.802   9.549   4.621 -0.4340  0.2090 -0.0322
 8486W        W23617   5.994   1.204  13.300 -0.1256  0.1410  0.0093
 8487W        W23618  10.634   8.498   1.751 -0.1190  0.0381  0.1258
 8488W        W23619  17.801  15.582  15.737 -0.1926  0.1690  0.1179
 8489W        W23620   8.680   8.184  14.348 -0.0137  0.0191  0.4341
 8490W        W23621   2.954   9.773   4.758  0.1777  0.2735  0.0364
 8491W        W23622  12.031   3.921   1.681 -0.0780  0.6444 -0.1151
 8492W        W23623   4.459  16.234  14.587 -0.3052  0.0106  0.2134
 8493W        W23624   6.445  13.379  11.905  0.0137  0.0162 -0.1040
 8494W        W23625   7.686  18.089  12.102  0.0143 -0.3033 -0.1182
 8495W        W23626  12.843  11.357  13.941 -0.0206 -0.0140 -0.0718
 8496W        W23627   6.624   1.696   0.128 -0.1789 -0.0474 -0.2263
 8497W        W23628   9.102  14.294   4.893 -0.3878  0.1361  0.3887
 8498W        W23629  15.324  12.821  13.927 -0.1096  0.2947  0.3481
 8499W        W23630  16.918  13.505   2.891 -0.0315 -0.1341 -0.0375
 8500W        W23631   4.511   3.529   4.763  0.0199 -0.1614 -0.2544
 8501W        W23632  11.367   1.187   1.327 -0.1075  0.0627  0.0455
 8502W        W23633  16.404  16.041  14.581  0.1824 -0.0573 -0.1702
 8503W        W23634   3.005   2.769  14.346  0.2874  0.0363 -0.2301
 8504W        W23635   0.448   6.979   0.425  0.1979  0.1328  0.0101
 8505W        W23636   4.440   4.828  10.889  0.0026  0.0329 -0.0377
 8506W        W23637  11.491   5.078  13.510 -0.0715  0.2224  0.3099
 8507W        W23638   1.921   7.357  11.304  0.1807  0.2635  0.3373
 8508W        W23639   7.650   2.321  12.600 -0.1162 -0.4896 -0.0566
 8509W        W23640   1.662  15.282  16.084  0.0132 -0.0004 -0.1326
 8510W        W23641   2.647  16.477   2.591  0.0731 -0.2151  0.0091
 8511W        W23642  17.073  15.122  13.980 -0.0691  0.1384 -0.1360
 8512W        W23643   4.338   4.119   2.104 -0.1953  0.4254 -0.1926
 8513W        W23644  14.024  14.577   2.206  0.1186 -0.3537 -0.2461
 8514W        W23645  11.177  11.417   0.259 -0.0795 -0.0758 -0.1500
 8515W        W23646   3.877   4.721   1.098 -0.4809  0.3111 -0.0262
 8516W        W23647   3.348   3.640   0.150  0.0630  0.1301 -0.1594
 8517W        W23648  10.878   2.709  15.428 -0.1396  0.1183  0.0854
 8518W        W23649  14.880  14.930  15.926 -0.1047 -0.0766 -0.0074
 8519W        W23650  16.358  10.686  13.685  0.1032  0.1106 -0.1089
 8520W        W23651   6.153  11.827   4.502  0.1480 -0.0428  0.2417
 8521W        W23652   9.704  17.580   2.577 -0.0644 -0.3085  0.0274
 8522W        W23653   8.945   4.950   1.582  0.1197  0.0425  0.0245
 8523W        W23654   5.678  13.605  14.468 -0.1099 -0.0323 -0.2010
 8524W        W23655  14.905  12.069   5.621  0.0199 -0.3242 -0.0206
 8525W        W23656  17.129   9.861  11.213  0.2407  0.0096 -0.1202
 8526W        W23657   5.432  16.687  12.231 -0.0243  0.2533 -0.1738
 8527W        W23658  10.114   9.473   1.135 -0.1205 -0.1643  0.0148
 8528W        W23659  17.468  16.303  11.459  0.0404  0.5086 -0.2393
 8529W        W23660   4.594  16.392   2.248 -0.0641 -0.1653  0.2132
 8530W        W23661  13.748   1.825  15.477  0.2141  0.1923  0.1327
 8531W        W23662  17.129  11.543  13.345  0.0405 -0.2522 -0.2116
 8532W        W23663   4.784   6.909   5.497  0.1085 -0.2862  0.2609
 8533W        W23664  10.580   3.968   4.564 -0.0803  0.0101  0.1682
 8534W        W23665  10.303  14.261   1.768 -0.3852  0.2308  0.2561
 8535W        W23666  14.133   8.586  11.903  0.1229 -0.3060 -0.0580
 8536W        W23667   4.432  10.935  11.074 -0.3740 -0.0607 -0.3323
 8537W        W23668   7.262   4.546   5.997  0.1613  0.2322 -0.1364
 8538W        W23669   9.056   0.699  14.836 -0.1908  0.3068  0.0624
 8539W        W23670  17.178   9.429   2.079  0.0776  0.2274 -0.0499
 8540W        W23671  10.657   8.636   2.661 -0.2507 -0.0326 -0.1032
 8541W        W23672   7.211   1.627  15.085  0.0640  0.1137  0.0362
 8542W        W23673  14.459   3.418  15.022  0.2277 -0.2820 -0.4447
 8543W        W23674  11.467  11.533  13.514 -0.1373  0.0408 -0.2547
 8544W        W23675  10.263  15.160  10.410 -0.1932  0.1018 -0.0934
 8545W        W23676  18.152   1.133   4.863  0.0783  0.2224  0.3731
 8546W        W23677   5.616  15.805  15.258 -0.2385  0.0638  0.0041
 8547W        W23678   4.435   6.178  10.786  0.2211  0.0532 -0.1715
 8548W        W23679  11.149   8.049   1.158 -0.0666  0.1258  0.3440
 8549W        W23680   4.200   3.138  13.208  0.0463 -0.3217 -0.2303
 8550W        W23681   2.266  14.605  12.022  0.4359  0.0694 -0.1524
 8551W        W23682   7.975  10.929   1.666  0.3376 -0.1147 -0.3888
 8552W        W23683  12.620  18.365  12.276  0.2021 -0.1180  0.0252
 8553W        W23684  15.760  12.295   1.924 -0.2481 -0.0277 -0.0885
 8554W        W23685  14.078  11.622  10.510  0.1660  0.1363  0.1177
 8555W        W23686   4.214   8.667   3.119  0.0477 -0.3124 -0.0043
 8556W        W23687   3.000   9.161  11.934 -0.0267 -0.0563  0.1489
 8557W        W23688  16.725   0.727   4.184  0.2261 -0.1040  0.4886
 8558W        W23689   8.509  10.277   1.676 -0.1183 -0.1591 -0.0242
 8559W        W23690  13.342  15.309   5.031 -0.2196  0.1214  0.2137
 8560W        W23691  14.113  14.457  15.833  0.0485  0.0197 -0.2749
 8561W        W23692   2.333   6.991  12.249  0.1680 -0.1044 -0.0618
 8562W        W23693  10.448   7.693   1.623 -0.0198 -0.2392  0.0061
 8563W        W23694   0.419   0.833  11.832  0.4127 -0.2114  0.0623
 8564W        W23695   0.397  10.175  12.009  0.4524 -0.1413  0.0975
 8565W        W23696  12.113  13.883  14.465  0.1412  0.0921 -0.1202
 8566W        W23697   9.554   2.121   5.732  0.0167  0.0240 -0.0420
 8567W        W23698  12.082   0.531   2.225  0.1327 -0.1179  0.1616
 8568W        W23699  17.161  17.594   4.465  0.0428 -0.0329  0.1381
 8569W        W23700  15.163   4.055  12.313  0.1094  0.2508 -0.0183
 8570W        W23701   9.514   8.960   3.956  0.4646  0.3655 -0.3546
 8571W        W23702   4.695   0.806  12.293  0.0614  0.1977 -0.0489
 8572W        W23703   0.487   3.906  10.962 -0.2702 -0.0470  0.1235
 8573W        W23704  13.887   6.189   5.036 -0.0436  0.0484 -0.0366
 8574W        W23705  11.245   9.688   2.076 -0.3345 -0.0086 -0.2167
 8575W        W23706   8.496   1.248  12.247  0.1642  0.1470 -0.1342
 8576W        W23707  15.618   3.273   4.130  0.0906  0.1760 -0.0945
 8577W        W23708   5.833  13.407   4.909  0.1847  0.1216  0.0811
 8578W        W23709  15.404   5.382   3.176  0.1528  0.0361 -0.3647
 8579W        W23710  11.251   4.542  12.107 -0.1262 -0.1766  0.0993
 8580W        W23711  11.656  15.572   5.333 -0.2616  0.0953 -0.0015
 8581W        W23712  10.096  10.099   0.883 -0.0220  0.0679 -0.1026
 8582W        W23713  14.097   2.234  11.627 -0.2305  0.1577  0.1141
 8583W        W23714   6.728   5.618   0.110 -0.1085  0.1650  0.1455
 8584W        W23715  16.570  13.344   1.247  0.0194 -0.3507 -0.0224
 8585W        W23716   2.758   5.645   5.564 -0.3228  0.1420  0.2884
 8586W        W23717  10.088  12.862  14.480  0.2411 -0.0795 -0.0032
 8587W        W23718   7.187   0.145   2.613 -0.2566  0.0559 -0.1430
 8588W        W23719  13.386   9.907   4.832 -0.3929 -0.3492 -0.0704
 8589W        W23720   4.239  10.063  14.373 -0.2602  0.1038 -0.0065
 8590W        W23721  13.898  15.794  16.118 -0.4981 -0.1733 -0.2206
 8591W        W23722   3.327  16.132   1.747  0.0061  0.1035 -0.1178
 8592W        W23723   0.020   8.901  12.409  0.2731 -0.0744 -0.2769
 8593W        W23724  17.063  10.523   3.683 -0.1283  0.1171 -0.0199
 8594W        W23725  17.326   2.698   0.016  0.2703  0.0188  0.0736
 8595W        W23726  10.121   6.047  15.458 -0.1430 -0.0808 -0.0447
 8596W        W23727  12.858  17.885  11.176  0.0913 -0.0423 -0.3195
 8597W        W23728  11.319  16.922  15.541  0.0947 -0.1610 -0.1751
 8598W        W23729  15.981   7.307   4.634 -0.2446  0.0334  0.2973
 8599W        W23730   7.503   1.088   0.541  0.0107 -0.0745  0.2782
 8600W        W23731   3.678  17.924  15.807  0.0731  0.1757 -0.2275
 8601W        W23732  14.832  17.855   4.240 -0.2256 -0.2271 -0.0981
 8602W        W23733   1.037  13.222  16.024 -0.2529  0.0015 -0.3137
 8603W        W23734   4.852   7.038   2.357  0.3117 -0.2201 -0.0377
 8604W        W23735  18.357  17.209   5.904 -0.1662 -0.1521  0.0958
 8605W        W23736  12.569   1.215   1.871 -0.3261  0.0073 -0.0079
 8606W        W23737   5.531   0.831  11.739  0.1822 -0.0059  0.1354
 8607W        W23738  17.585  10.190   2.529 -0.1648 -0.3890  0.0832
 8608W        W23739   5.779  16.583  10.687 -0.1244  0.2042  0.0567
 8609W        W23740  18.059  11.531   1.526 -0.1002 -0.0519  0.2039
 8610W        W23741   8.403   4.823  14.606  0.0103 -0.1061 -0.0231
 8611W        W23742   4.548  14.846  10.876  0.1997  0.2628  0.2742
 8612W        W23743  13.703   2.768  14.127  0.1888  0.0265  0.1878
 8613W        W23744   4.833  13.302   3.690 -0.0824 -0.2460 -0.1886
 8614W        W23745  15.625  13.739   3.488 -0.2705  0.0564  0.0011
 8615W        W23746   2.587   8.964   0.431  0.0067  0.3088 -0.1859
 8616W        W23747   9.125   8.973   4.419  0.2398  0.1890  0.3526
 8617W        W23748  14.805   0.971   3.817 -0.2339 -0.1827  0.2312
 8618W        W23749  11.530  13.002   2.920 -0.0992  0.0595  0.3011
 8619W        W23750   1.642  15.794   4.173  0.4050  0.0453 -0.4337
 8620W        W23751   7.595  16.932  10.753  0.0101 -0.0523  0.2930
 8621W        W23752   9.460   4.856   1.604  0.0496 -0.0999  0.0240
 8622W        W23753   4.915   1.904   5.156 -0.1926 -0.0823  0.2749
 8623W        W23754  14.548  15.612   0.896 -0.0296 -0.2376  0.0960
 8624W        W23755   9.037  10.716   1.534  0.1245 -0.4158  0.2172
 8625W        W23756   3.168  12.462  13.457  0.1078  0.1021 -0.0504
 8626W        W23757   0.593  15.908   5.280  0.2141  0.1244  0.1126
 8627W        W23758   4.119   3.608  13.387  0.2474  0.1084 -0.0655
 8628W        W23759  16.749   8.419   2.056 -0.1194 -0.1095  0.0163
 8629W        W23760  11.024   0.348  13.164  0.2169 -0.0708 -0.0030
 8630W        W23761  10.879   4.013  12.787  0.1416 -0.1820 -0.0883
 8631W        W23762   3.972   2.382   2.970  0.0267  0.0169  0.0767
 8632W        W23763   5.909  16.893  12.171  0.0862 -0.0961  0.4190
 8633W        W23764  15.272   2.887  12.071  0.1368  0.2329  0.2388
 8634W        W23765   5.970  17.439  11.099  0.0783  0.0713  0.1998
 8635W        W23766  18.039  15.001   3.072  0.0746 -0.0442  0.1725
 8636W        W23767  12.347   2.266  11.167  0.1065 -0.1509 -0.0679
 8637W        W23768   8.050   1.149   1.256 -0.0388 -0.0206  0.1796
 8638W        W23769  15.846   7.581   2.337  0.4415  0.2665  0.2241
 8639W        W23770  13.146  10.635   4.358  0.3022 -0.2161 -0.0960
 8640W        W23771   0.517   2.283  13.227  0.0171 -0.0860  0.0181
 8641W        W23772   2.911   5.951  14.106  0.0453  0.0237 -0.1636
 8642W        W23773   1.949  12.065  15.808 -0.1986 -0.0096  0.2131
 8643W        W23774  16.973  12.903   0.265  0.2813  0.1769  0.0350
 8644W        W23775  17.918   9.130  10.980  0.0935  0.0265  0.2681
 8645W        W23776   7.741  17.382   3.371 -0.2229  0.2835 -0.5127
 8646W        W23777  13.651  18.330  14.785  0.1436 -0.0330  0.1286
 8647W        W23778  14.373   2.070   4.604 -0.0803  0.0574  0.0227
 8648W        W23779   8.479   2.904   4.676  0.1018 -0.2098  0.3246
 8649W        W23780  14.042  14.125   3.118  0.1021 -0.3911  0.0154
 8650W        W23781   3.431   0.852   4.291 -0.0319  0.1010  0.4604
 8651W        W23782   2.610   9.805   0.126  0.0468 -0.0590  0.0576
 8652W        W23783   2.453   7.307   1.497  0.1560  0.1103  0.0650
 8653W        W23784  16.816  13.890  12.402  0.3443  0.1627 -0.0934
 8654W        W23785  11.322  11.700   2.798  0.2685 -0.2307  0.0084
 8655W        W23786   1.175   8.778   2.654  0.0264  0.1522 -0.2810
 8656W        W23787   7.896  14.805  13.754 -0.0111 -0.2400  0.0129
 8657W        W23788  16.710  13.153   0.820 -0.0219 -0.2007  0.2489
 8658W        W23789   9.813   8.552  12.362  0.1896  0.0868  0.1174
 8659W        W23790   7.593  11.690  13.187 -0.0735 -0.0731  0.0912
 8660W        W23791  15.790   5.864   1.718  0.2089 -0.5031 -0.0375
 8661W        W23792   5.204  13.642   6.157  0.0105  0.1419 -0.1846
 8662W        W23793  15.339   4.397   4.147  0.2818  0.1315 -0.1921
 8663W        W23794   0.655   1.544  15.735 -0.0960  0.0663  0.1989
 8664W        W23795   1.347   0.013   4.065 -0.2186  0.2228 -0.0659
 8665W        W23796   0.931  11.122  12.977 -0.0045  0.1910  0.0562
 8666W        W23797   6.634   5.782  15.330  0.0313  0.0362  0.1530
 8667W        W23798   1.050  12.775  15.061 -0.2435  0.1980 -0.1030
 8668W        W23799   0.589  15.077  11.384 -0.0175 -0.0505  0.3634
 8669W        W23800   0.951  14.272   0.402  0.3523  0.3374 -0.0572
 8670W        W23801  13.972  11.641   5.290  0.1399  0.1618 -0.0220
 8671W        W23802  15.381  15.355  15.392 -0.1441  0.1120 -0.2252
 8672W        W23803  17.003   7.295  14.856  0.0280 -0.1358 -0.0115
 8673W        W23804   8.121  10.597   6.079 -0.0563  0.2778  0.2310
 8674W        W23805   0.470  11.432  15.796  0.0264 -0.0707 -0.5138
 8675W        W23806  17.137  16.902  12.097  0.0156  0.3037 -0.2655
 8676W        W23807  15.774  16.687  14.351 -0.0723  0.3630  0.0969
 8677W        W23808   9.029   1.365   4.882 -0.0584  0.3983  0.3125
 8678W        W23809  18.206  15.013   4.085  0.1342  0.1085  0.2544
 8679W        W23810   1.703   0.306  15.194 -0.0608 -0.0231 -0.0817
 8680W        W23811  12.613   8.044  15.525 -0.1056  0.0547  0.0286
 8681W        W23812   7.407  12.728  11.697  0.0999 -0.4283 -0.1509
 8682W        W23813   7.020  13.154   3.220 -0.1455 -0.1346 -0.3216
 8683W        W23814   9.722   4.188  11.600  0.0464 -0.2525  0.3397
 8684W        W23815  11.882  14.521   4.837 -0.0402 -0.1023 -0.0927
 8685W        W23816  16.734   6.505  13.951 -0.1801 -0.0502  0.1142
 8686W        W23817  16.709  15.693   4.179  0.0744  0.0411  0.0356
 8687W        W23818  17.467   4.474  13.467  0.4155  0.4823 -0.2123
 8688W        W23819   5.743  13.121   3.763  0.0861  0.1924 -0.2057
 8689W        W23820  17.799  10.561  11.395 -0.1670  0.0381 -0.0003
 8690W        W23821   3.856  17.409   6.179  0.1115 -0.2272  0.1148
 8691W        W23822   2.007  15.662   2.406 -0.3061  0.1854  0.0855
 8692W        W23823  13.886   8.043   1.039 -0.0582 -0.1664 -0.5178
 8693W        W23824   3.889  10.838  14.837 -0.1199 -0.0137 -0.1823
 8694W        W23825  12.983  14.474   5.151 -0.0574 -0.1312 -0.3878
 8695W        W23826  10.166  17.519  13.991  0.0298  0.0199 -0.1663
 8696W        W23827  17.146  15.240  11.111 -0.0272  0.3560  0.1611
 8697W        W23828   1.127  11.272  11.193  0.1515  0.0420 -0.0779
 8698W        W23829   0.672   5.670   5.637 -0.0151  0.0533  0.1845
 8699W        W23830   4.436  11.279   4.882  0.2822 -0.4981 -0.2033
 8700W        W23831   2.410   0.243  12.632 -0.1757  0.1673 -0.1683
 8701W        W23832   0.277  11.529  10.515 -0.2120 -0.0413  0.2701
 8702W        W23833   2.860   8.192   4.260  0.0135 -0.2143  0.1838
 8703W        W23834   7.230   1.324   2.864 -0.0413 -0.0933  0.0397
 8704W        W23835  17.601   5.150  12.828  0.0360  0.3447  0.1913
 8705W        W23836   9.470  14.039  14.275  0.2321  0.0070 -0.1556
 8706W        W23837   2.560   0.237   2.863 -0.3640 -0.2426 -0.1393
 8707W        W23838   4.294   2.937  14.044 -0.2063  0.1044 -0.0040
 8708W        W23839   0.928  14.869  12.449 -0.0853  0.0863 -0.0975
 8709W        W23840  17.669   7.641   2.808  0.0365 -0.0277  0.3741
 8710W        W23841  18.081   0.448   2.291  0.1468 -0.0338 -0.1093
 8711W        W23842   3.067   4.267   5.262 -0.1269 -0.2895 -0.2352
 8712W        W23843  10.076   7.803  14.012  0.2012  0.0473  0.2014
 8713W        W23844  17.619  17.463  11.453 -0.0132  0.1208  0.1995
 8714W        W23845  17.569   5.641  14.323 -0.1129 -0.1300  0.0730
 8715W        W23846   4.133   4.865   4.460 -0.2571 -0.3605  0.5038
 8716W        W23847  12.387   9.156   5.235 -0.2681 -0.2112 -0.1346
 8717W        W23848   6.013   7.736   1.573 -0.1314  0.1312 -0.1742
 8718W        W23849   9.042   5.861  12.558 -0.0393 -0.1329  0.0971
 8719W        W23850   7.777   6.113  11.211  0.1405  0.2038  0.1773
 8720W        W23851   3.745   0.100  12.217 -0.2557  0.1598 -0.0906
 8721W        W23852   2.550  13.295   3.757  0.1314  0.3355  0.0690
 8722W        W23853   6.178   9.921   4.913 -0.0268  0.1594 -0.1044
 8723W        W23854  11.954  18.354   2.401 -0.0097 -0.0692 -0.0511
 8724W        W23855   7.288   2.675   1.827 -0.1389 -0.0063  0.0957
 8725W        W23856   6.462  14.185   3.949  0.1365 -0.0307 -0.0019
 8726W        W23857  12.289   7.422   1.846  0.0144 -0.1014  0.1284
 8727W        W23858  17.191   1.471  12.318  0.1272  0.1264  0.3889
 8728W        W23859   6.313   9.226   1.461  0.1235  0.0347  0.0012
 8729W        W23860  14.391  13.502  15.790 -0.0889  0.1925  0.0112
 8730W        W23861   7.980   6.435   3.417 -0.1355  0.0151 -0.3281
 8731W        W23862  12.783  11.201  13.157 -0.1111 -0.0657 -0.0499
 8732W        W23863   0.467  14.587   2.944  0.0140 -0.2416 -0.1701
 8733W        W23864   0.847  14.273  14.036  0.2108 -0.4006 -0.1085
 8734W        W23865   4.708   9.437  15.452 -0.3366 -0.1249  0.1239
 8735W        W23866   8.565   6.740  11.182  0.0387  0.0564 -0.1984
 8736W        W23867  12.751  11.410   0.398  0.3545  0.1608 -0.0592
 8737W        W23868   9.413   4.972   2.485 -0.2041  0.1414 -0.0562
 8738W        W23869   7.508  10.519   1.170  0.0822  0.1789  0.3103
 8739W        W23870  15.537  10.296   5.354  0.0844  0.0507  0.0737
 8740W        W23871   7.398   7.203   3.658 -0.0632 -0.0263 -0.2750
 8741W        W23872   5.347   7.151   4.689 -0.1108  0.0082  0.0722
 8742W        W23873   3.316   3.704   5.645  0.0605  0.1087 -0.0428
 8743W        W23874   8.456   4.495   4.220  0.0049  0.1884  0.1121
 8744W        W23875   9.913   1.637  14.820 -0.0635  0.0080  0.1355
 8745W        W23876   3.394  16.006   0.726 -0.2738 -0.1296  0.4865
 8746W        W23877   0.576   8.985   2.565 -0.1028 -0.1826 -0.0337
 8747W        W23878  16.721   8.476  15.975  0.0778 -0.1358 -0.0993
 8748W        W23879   2.868   9.163  13.732  0.1187 -0.0899 -0.3623
 8749W        W23880  16.814   6.878   2.806  0.1109 -0.1192 -0.0657
 8750W        W23881  14.375   4.364  13.731  0.0520  0.0162  0.0897
 8751W        W23882   7.551   6.055   1.581  0.2738 -0.2428  0.0187
 8752W        W23883   2.544  12.627   5.407 -0.1130 -0.3378 -0.1187
 8753W        W23884  15.126  12.760   4.813 -0.0444 -0.1499 -0.0356
 8754W        W23885   0.887   9.880   9.937  0.1825  0.2826 -0.5257
 8755W        W23886  13.890   3.838   4.191  0.3755  0.0207  0.3875
 8756W        W23887  17.776  14.833  13.526 -0.2821 -0.2392  0.3511
 8757W        W23888  17.222   8.553  10.927 -0.0505 -0.5101  0.2725
 8758W        W23889  12.458   8.235  13.150  0.2369 -0.1734  0.0134
 8759W        W23890   6.779  10.761   0.334 -0.0674 -0.4712  0.0301
 8760W        W23891  17.757  10.661   2.472  0.0426 -0.1595 -0.2124
 8761W        W23892   1.538   2.132  10.394 -0.0359 -0.1138  0.2685
 8762W        W23893  11.368   0.702   5.391  0.3604 -0.2307 -0.2790
 8763W        W23894   8.370   1.119  15.254 -0.1700 -0.2702 -0.1536
 8764W        W23895   6.863  12.743  15.937  0.2811 -0.1034 -0.0063
 8765W        W23896   1.903  13.830   0.431  0.0568 -0.1186 -0.0397
 8766W        W23897   8.124   1.655  13.938  0.0030 -0.0621  0.1519
 8767W        W23898   4.682   5.779  13.825 -0.1650 -0.3562 -0.0396
 8768W        W23899   8.572   3.422  11.009  0.0095  0.0305  0.0902
 8769W        W23900  15.522   7.617   3.351 -0.0065 -0.3817  0.2847
 8770W        W23901  17.851   2.846  15.949 -0.1088 -0.1849  0.2318
 8771W        W23902   7.470  11.049   1.792  0.0247  0.1108 -0.1743
 8772W        W23903   2.045   2.323   5.453  0.0125 -0.1227 -0.4283
 8773W        W23904   1.398   2.805   1.080 -0.1678 -0.0170  0.1254
 8774W        W23905   5.566   9.932   1.130 -0.1638 -0.0639 -0.1058
 8775W        W23906   8.163  17.636   4.122 -0.0143  0.0394  0.1435
 8776W        W23907   0.648   6.076  10.573 -0.1556  0.4431 -0.1328
 8777W        W23908  15.102   8.456  12.097 -0.1506 -0.2046  0.0222
 8778W        W23909  17.966  18.273  13.129 -0.1943  0.1115 -0.1000
 8779W        W23910  17.335  14.359  10.661 -0.2245 -0.2358  0.0233
 8780W        W23911  11.428   2.262  13.319  0.1642 -0.1808  0.2543
 8781W        W23912  16.527  17.559  11.012 -0.1199  0.0504 -0.1686
 8782W        W23913   9.226   5.328   1.760 -0.0226 -0.1068  0.1337
 8783W        W23914   1.669  12.014   1.225  0.1229  0.1441  0.1767
 8784W        W23915   1.117   2.481  13.927 -0.2266 -0.2726  0.1898
 8785W        W23916  13.404  12.248  12.437  0.2758  0.1671  0.1721
 8786W        W23917   5.167   2.539   3.676 -0.2104 -0.0917  0.0581
 8787W        W23918   0.351   3.553  11.869 -0.0959  0.3894  0.3563
 8788W        W23919  17.885  16.725   3.415  0.1195 -0.0028 -0.2387
 8789W        W23920   3.445  11.012  12.624  0.0161  0.1428  0.0194
 8790W        W23921   9.597   2.989  14.569  0.0163 -0.1326  0.3561
 8791W        W23922  12.072  13.695  11.666  0.1014 -0.0966  0.1418
 8792W        W23923  14.013  13.905  12.130 -0.4524  0.1136 -0.1446
 8793W        W23924   3.662  14.034   4.589  0.1415  0.1359 -0.1356
 8794W        W23925   1.809   5.661  13.267  0.1430 -0.0228 -0.4461
 8795W        W23926   1.978   8.779  12.680 -0.2491 -0.0739  0.2089
 8796W        W23927   3.944   3.033   5.084 -0.2653  0.3541 -0.2917
 8797W        W23928  18.203  11.794   0.243 -0.4979 -0.3532 -0.1107
 8798W        W23929   6.779   7.552   1.761 -0.1386  0.1524  0.0165
 8799W        W23930   5.918   6.458  11.575  0.0295  0.1944  0.3470
 8800W        W23931   1.234  12.912  12.938 -0.2824 -0.1051 -0.2475
 8801W        W23932  10.797   9.199   4.627  0.1499  0.0022 -0.0157
 8802W        W23933  12.049   4.232  14.834 -0.5252 -0.1927 -0.1527
 8803W        W23934   7.735  11.781  10.699 -0.0316  0.3966  0.0985
 8804W        W23935   7.832  16.054   2.999  0.1481 -0.1923 -0.1008
 8805W        W23936  10.573  14.973   9.627  0.1482  0.1539 -0.1006
 8806W        W23937   7.122   0.768  12.589  0.0760 -0.0186  0.2887
 8807W        W23938  14.232  14.602   5.553  0.0955  0.3846 -0.1430
 8808W        W23939   8.753  18.356   2.699  0.1391 -0.0033 -0.1421
 8809W        W23940  18.277  10.968  12.583  0.2037 -0.2059  0.1462
 8810W        W23941  16.523  18.256  10.377  0.3961  0.1478 -0.3650
 8811W        W23942   3.337   1.431   2.699  0.1081  0.2273 -0.0025
 8812W        W23943  14.593  11.042  13.297  0.3997  0.3626  0.2005
 8813W        W23944  10.326  10.258   2.472 -0.1304 -0.2560  0.2958
 8814W        W23945   0.925   0.294  10.983  0.1626  0.0468  0.4435
 8815W        W23946   8.300  12.027   3.675  0.0526  0.0775  0.1952
 8816W        W23947   6.883   8.466   0.079  0.1337 -0.0023  0.3112
 8817W        W23948  13.739   8.535  13.876 -0.0355 -0.0940 -0.2002
 8818W        W23949  10.635  10.719   2.188  0.1176 -0.0963  0.1722
 8819W        W23950  12.502  17.963   4.228  0.2438 -0.2891 -0.2262
 8820W        W23951   3.664   4.863   4.614  0.0630 -0.1099 -0.0170
 8821W        W23952   7.027   4.801   2.068  0.1682 -0.0747 -0.1007
 8822W        W23953  11.379   8.594  12.473 -0.1621  0.0064 -0.1065
 8823W        W23954  11.473  14.013  10.979  0.0956 -0.2409  0.1563
 8824W        W23955   4.636   0.610   4.807  0.3320 -0.2427  0.1065
 8825W        W23956   6.676  11.420  13.473 -0.2176 -0.3539 -0.2683
 8826W        W23957  17.766  12.714  14.373 -0.0414  0.0014 -0.1480
 8827W        W23958   1.046   8.980   0.019 -0.2489  0.5469 -0.1284
 8828W        W23959   7.007  10.710  12.864 -0.4231 -0.1625  0.0970
 8829W        W23960   8.093   3.018   0.724  0.4134  0.0433 -0.3034
 8830W        W23961   5.192  11.966  11.662 -0.0184  0.0536 -0.4174
 8831W        W23962   1.290  17.235  14.913 -0.0976 -0.0693 -0.1320
 8832W        W23963   8.291  17.103  13.318 -0.0491 -0.1320 -0.2473
 8833W        W23964  10.490   5.668   1.068  0.3656 -0.1663  0.1875
 8834W        W23965  11.279   3.916   2.377  0.0769 -0.0779  0.1767
 8835W        W23966   3.303  11.171  13.701 -0.0930 -0.1714 -0.2341
 8836W        W23967  14.512   1.041  15.193  0.0590 -0.0585  0.1220
 8837W        W23968   5.351   4.170   1.328 -0.3494 -0.1363  0.0246
 8838W        W23969  13.964  12.807   1.921 -0.2238 -0.1893 -0.0307
 8839W        W23970   8.045  14.175   2.885 -0.2892  0.0873 -0.0594
 8840W        W23971  11.613  16.008  10.063  0.2140 -0.0373 -0.0572
 8841W        W23972   7.780   2.117  13.064 -0.0261 -0.1022 -0.0557
 8842W        W23973  14.987  12.988   3.391  0.3848  0.0740 -0.0166
 8843W        W23974  11.586  14.956   1.887 -0.1839  0.1691  0.2589
 8844W        W23975  17.379   2.141   4.930 -0.0325  0.1936 -0.0824
 8845W        W23976  17.678   3.492   5.745 -0.1624 -0.1860 -0.0627
 8846W        W23977   7.194   5.682   5.776 -0.2012  0.1121  0.3797
 8847W        W23978   4.938   9.651   1.998 -0.0011  0.2025  0.1995
 8848W        W23979  13.504   1.318  13.823  0.0931  0.1659  0.3311
 8849W        W23980  16.246  12.990   1.663 -0.1876  0.2832  0.0360
 8850W        W23981  17.868   3.626   3.217 -0.2080  0.0347  0.0096
 8851W        W23982  17.753   2.869   0.344  0.1364  0.2292  0.3578
 8852W        W23983  12.537  17.080  11.245 -0.1135 -0.1321  0.3450
 8853W        W23984   6.764  17.243  12.216 -0.1461  0.3132 -0.0530
 8854W        W23985   2.430   3.290   4.019  0.0381  0.0763 -0.0347
 8855W        W23986  13.660   9.504   3.773 -0.0070 -0.0602  0.1836
 8856W        W23987  16.389  14.597   5.677  0.2060  0.2204 -0.1560
 8857W        W23988  11.738   0.553   5.063  0.3023  0.1777 -0.0744
 8858W        W23989  12.318  17.720  11.297 -0.2968 -0.1120 -0.0788
 8859W        W23990   4.884  17.301   3.877 -0.2602 -0.1262  0.0087
 8860W        W23991  15.205   5.309   0.362 -0.1281 -0.0509 -0.3519
 8861W        W23992   1.086  16.622   1.509 -0.2351  0.1513  0.3818
 8862W        W23993  10.416  11.756   1.852  0.0771  0.1167 -0.1099
 8863W        W23994   6.411   2.697   0.175  0.1220  0.0123 -0.0183
 8864W        W23995  17.590   9.976  13.853  0.0480 -0.0814  0.1616
 8865W        W23996  11.118   1.070   0.912  0.4306 -0.0534  0.2339
 8866W        W23997  17.090   0.748   3.798  0.4548  0.1736 -0.0768
 8867W        W23998   0.719  15.147   4.779 -0.1804  0.0958  0.0756
 8868W        W23999   8.802   7.204   3.361  0.1447  0.0173 -0.3285
 8869W        W24000   0.616   4.546  13.550  0.3876 -0.2058 -0.0057
 8870W        W24001   1.259  12.678  15.964 -0.0416 -0.1486  0.1236
 8871W        W24002   7.108  14.019   4.866 -0.0596 -0.0686  0.3118
 8872W        W24003  15.580   5.807   5.469  0.3780 -0.0571 -0.0011
 8873W        W24004  15.187  12.104  11.969 -0.0715  0.1108  0.0493
 8874W        W24005   5.752  13.390  11.288  0.1113  0.0529 -0.0630
 8875W        W24006  14.630   1.330  11.412 -0.2075 -0.2401 -0.1990
 8876W        W24007  15.106  14.142   4.227 -0.1780 -0.1061 -0.0375
 8877W        W24008  10.943   5.181  12.800 -0.1740 -0.0978 -0.2419
 8878W        W24009  10.752  15.457  13.925 -0.2863  0.4336 -0.0351
 8879W        W24010  17.982  10.559  12.222  0.2012 -0.2375  0.1749
 8880W        W24011  13.135   7.775   2.197 -0.1539  0.0225 -0.2834
 8881W        W24012   5.742  15.396   0.562  0.1182 -0.2946  0.0167
 8882W        W24013  13.116   3.580  14.171  0.1175 -0.1160  0.0118
 8883W        W24014  16.685  17.415  13.746  0.0446  0.2730 -0.2163
 8884W        W24015   9.949  13.456  15.925  0.2606 -0.1063 -0.4067
 8885W        W24016   3.799  14.257   1.976 -0.0395  0.2935 -0.0326
 8886W        W24017   1.322  15.240   4.829 -0.3592 -0.0729 -0.1025
 8887W        W24018  10.028  10.610   4.050 -0.2621 -0.1861  0.2248
 8888W        W24019  15.405  14.180   2.531 -0.0261 -0.0864 -0.4274
 8889W        W24020  12.115   6.768  13.647  0.0489  0.1566 -0.3417
 8890W        W24021  10.927  12.081   4.093  0.2973 -0.3138 -0.0060
 8891W        W24022   5.626   1.315  14.244 -0.3128  0.0464 -0.4769
 8892W        W24023   0.401  16.274  11.879 -0.0605 -0.0255  0.3194
 8893W        W24024  12.831   5.160  14.127 -0.0231 -0.0260 -0.1901
 8894W        W24025   0.713   9.311  14.514  0.2710  0.5135  0.1124
 8895W        W24026  12.586   7.344  14.302  0.1234  0.0742  0.3332
 8896W        W24027  11.243   4.350   1.516  0.0432  0.0402  0.0438
 8897W        W24028  13.164  13.826  15.597  0.2723 -0.3077  0.1575
 8898W        W24029   1.536   6.857   1.735 -0.2480 -0.1627  0.1888
 8899W        W24030   2.221  13.391   0.363  0.2713 -0.0918 -0.2193
 8900W        W24031   2.127   4.621  13.114 -0.1083  0.2832  0.0741
 8901W        W24032   5.583   9.370   3.938 -0.0330 -0.0380 -0.0303
 8902W        W24033   7.311   7.388  13.618 -0.0164  0.3286 -0.1397
 8903W        W24034   6.528   4.652  13.499 -0.1758 -0.0188 -0.0435
 8904W        W24035  12.121   2.058  12.952 -0.0979  0.0024  0.1277
 8905W        W24036  11.828  13.676   5.463  0.3288  0.1511 -0.0585
 8906W        W24037  14.357   6.349   4.392  0.1553  0.3290 -0.0438
 8907W        W24038  16.776  14.759   4.882  0.0103  0.0975  0.2419
 8908W        W24039   4.550   9.813  15.115 -0.2191 -0.1691 -0.0838
 8909W        W24040   9.125   0.745   5.382  0.2388  0.2714 -0.0243
 8910W        W24041   3.508   7.423   0.315 -0.3050  0.0369 -0.3390
 8911W        W24042  14.063  12.530  13.811  0.3723  0.2572  0.1286
 8912W        W24043   4.495   5.274   4.064  0.1294  0.1868  0.3227
 8913W        W24044   1.622   4.014   3.933 -0.1067  0.2085  0.0751
 8914W        W24045   8.152   0.751  11.234  0.2226  0.1980  0.2503
 8915W        W24046  10.851   9.592   1.427 -0.2688 -0.0589  0.0913
 8916W        W24047   9.992   3.388  12.837  0.1792  0.3960 -0.2283
 8917W        W24048  16.754   9.846  15.040  0.0608  0.4234  0.1388
 8918W        W24049   3.388   0.315   3.405 -0.1319 -0.1525  0.1039
 8919W        W24050   3.411   9.840   3.652 -0.0572  0.1393 -0.1592
 8920W        W24051   0.283  14.910  13.074  0.5213 -0.0022  0.0142
 8921W        W24052   4.558  17.799  15.490  0.2520  0.1165 -0.1041
 8922W        W24053  13.478   9.176   5.597  0.1006  0.0420  0.0663
 8923W        W24054   1.881   2.209   2.659  0.0599  0.2353  0.0844
 8924W        W24055   7.914  17.152   9.942 -0.3210 -0.0149  0.1700
 8925W        W24056  15.756   7.274  13.558 -0.2346  0.2562  0.0021
 8926W        W24057  16.017  17.840  15.909  0.5141  0.0463  0.0416
 8927W        W24058   9.524  11.017  15.085  0.1801 -0.1445 -0.0268
 8928W        W24059   9.745  10.049  13.075 -0.0055  0.0012 -0.4878
 8929W        W24060   1.230  16.813   4.363 -0.0329 -0.2915 -0.0486
 8930W        W24061   4.448   5.463  11.811 -0.0642 -0.0205 -0.0950
 8931W        W24062   7.130   3.139  12.919  0.0835 -0.2521 -0.2223
 8932W        W24063   1.444   1.072  12.560  0.0010 -0.0694 -0.2182
 8933W        W24064   0.767   3.513  12.157 -0.1341 -0.0844  0.1309
 8934W        W24065   0.182  12.138   0.416 -0.0166  0.0270  0.0697
 8935W        W24066   7.456  11.742  14.956  0.1500 -0.0166 -0.0270
 8936W        W24067  16.088   8.991   2.314 -0.0083  0.0117  0.0076
 8937W        W24068  16.688   7.221   4.134  0.0246 -0.1883 -0.0051
 8938W        W24069  15.374   9.504  13.607  0.1462  0.4621 -0.0765
 8939W        W24070   1.213   1.414  15.956 -0.2113 -0.0440 -0.0234
 8940W        W24071  13.141   4.734   5.799  0.0990 -0.0231  0.1580
 8941W        W24072   0.437  18.098  12.944 -0.1971 -0.0723  0.0375
 8942W        W24073   0.372   9.752   2.415 -0.0407  0.3257  0.3351
 8943W        W24074   9.716  14.346  13.074  0.4062 -0.0296  0.2300
 8944W        W24075   7.500   6.380  14.178  0.0160 -0.1937  0.4127
 8945W        W24076   1.136   0.378  13.522  0.1551  0.4492  0.4454
 8946W        W24077   4.444   3.544   2.915  0.1741  0.0963 -0.3681
 8947W        W24078   7.082   9.246  11.507 -0.2558 -0.0071  0.0908
 8948W        W24079  12.630   3.439  14.152  0.3276  0.2175 -0.1979
 8949W        W24080  13.767  12.057  14.633  0.1714  0.1470  0.0508
 8950W        W24081  17.305   9.886   3.842  0.0258  0.0315  0.0706
 8951W        W24082   9.575   6.953  14.155 -0.1206 -0.1562  0.0118
 8952W        W24083   9.410  18.292   5.576  0.0833 -0.1190  0.1409
 8953W        W24084   8.571  16.845  12.248 -0.0530  0.0659  0.3422
 8954W        W24085   7.832   5.200  15.261 -0.1772 -0.2489  0.0499
 8955W        W24086   4.536   3.440  15.797 -0.0693  0.1191  0.0547
 8956W        W24087   6.035   3.520   1.125  0.2337 -0.1926 -0.4241
 8957W        W24088   5.466  11.817   4.237 -0.0736  0.1533 -0.1953
 8958W        W24089   2.378  10.767   4.856 -0.1224  0.1075  0.0952
 8959W        W24090   8.295   2.603   2.479 -0.1907 -0.1460  0.1518
 8960W        W24091   1.125   1.963  13.459  0.4366 -0.1228 -0.0092
 8961W        W24092  16.630  10.066  12.186  0.2230  0.2871  0.3824
 8962W        W24093   1.853   0.041   4.096  0.1041 -0.4190 -0.1290
 8963W        W24094  12.784  13.623   2.614 -0.2855  0.1145 -0.0118
 8964W        W24095   6.620   5.695  12.543 -0.1505 -0.2280 -0.1072
 8965W        W24096  13.305   7.070  12.366  0.0028 -0.1413 -0.0727
 8966W        W24097   8.292   7.461  12.448  0.0890  0.1024 -0.0542
 8967W        W24098   8.624  10.904   0.641 -0.1658 -0.2015 -0.0835
 8968W        W24099   9.563   7.536   0.094  0.2137  0.1545  0.1130
 8969W        W24100  11.373   9.672  15.723 -0.0440  0.2015  0.2648
 8970W        W24101   3.066   3.746  14.214  0.0659  0.3662  0.1935
 8971W        W24102  10.952  10.272  15.000  0.1497  0.2963  0.0033
 8972W        W24103  13.681   0.963   5.946  0.1369 -0.0669 -0.0192
 8973W        W24104  13.927   7.573   4.684 -0.3291 -0.1572  0.0625
 8974W        W24105  12.651  13.504  13.523 -0.1588  0.1397 -0.3201
 8975W        W24106   2.567  11.354  11.851  0.0221 -0.0156  0.0177
 8976W        W24107   2.564  13.449   4.714  0.0318 -0.2070 -0.1946
 8977W        W24108  16.817   7.689   1.881  0.0253  0.0101 -0.0340
 8978W        W24109   3.313   4.172   0.913  0.1975 -0.0571  0.3501
 8979W        W24110  16.140  10.179   3.487  0.1265  0.2973 -0.1443
 8980W        W24111   9.946  17.043   3.172  0.0767  0.0538 -0.0114
 8981W        W24112  10.833  16.603   0.572 -0.0077  0.1343 -0.1047
 8982W        W24113   9.966  13.038  12.921 -0.0138  0.2017 -0.3186
 8983W        W24114  11.710   5.677   1.499  0.0170  0.2164 -0.3973
 8984W        W24115  18.256   6.155  15.528  0.2922 -0.2047 -0.1450
 8985W        W24116   4.455   1.907   4.416  0.1386  0.2110 -0.4523
 8986W        W24117   8.452   1.585   1.247 -0.0870 -0.0584  0.0732
 8987W        W24118  18.163   5.726  12.252 -0.2269 -0.0912  0.1679
 8988W        W24119  15.231   2.273   5.070  0.1026 -0.1142  0.1612
 8989W        W24120   9.903  15.852   4.912  0.1894 -0.0397  0.1438
 8990W        W24121  14.445   0.367   2.749 -0.0334 -0.3163  0.1530
 8991W        W24122   5.720   1.828   0.591 -0.0845 -0.2131 -0.3583
 8992W        W24123  16.273   2.544  12.846 -0.1809 -0.3227  0.1242
 8993W        W24124  13.974  13.507  15.555 -0.1194  0.1092 -0.0464
 8994W        W24125  11.886   8.625  14.855  0.0862  0.1305  0.0620
 8995W        W24126  13.186  14.224  14.892 -0.0295 -0.2149 -0.1887
 8996W        W24127  12.763  15.605  12.579  0.0094  0.1284 -0.4220
 8997W        W24128  17.682   5.056   4.608 -0.0952  0.0507 -0.0634
 8998W        W24129  11.788   7.479  14.964  0.0119  0.0302  0.1900
 8999W        W24130  17.602  12.060  12.422 -0.4569 -0.0163 -0.0955
 9000W        W24131   9.622   8.867   0.220 -0.0259  0.3058 -0.1180
 9001W        W24132   5.876  14.918   3.331 -0.2771 -0.0633 -0.3277
 9002W        W24133   2.722   1.470  13.089 -0.0650  0.0738  0.4072
 9003W        W24134  15.604  11.719  13.681 -0.2598  0.2947  0.0193
 9004W        W24135   2.533   3.440  15.638  0.0989 -0.1480 -0.0224
 9005W        W24136   0.376  16.606   2.754  0.1104 -0.0932  0.3666
 9006W        W24137   3.070   2.976  14.833 -0.0118  0.1427 -0.0232
 9007W        W24138  12.860  12.321   0.643 -0.0440  0.0826  0.2849
 9008W        W24139   5.634   1.029  13.006  0.2715 -0.0581  0.0448
 9009W        W24140   0.121   2.586   2.241  0.4351  0.1102 -0.0733
 9010W        W24141   0.328   9.655   4.543 -0.0181  0.3687 -0.2101
 9011W        W24142  10.278  12.236  12.900  0.1117  0.0643 -0.2226
 9012W        W24143  15.753  12.992  15.533 -0.2611 -0.2043 -0.0406
 9013W        W24144  11.505   5.565   1.042 -0.2504  0.3590  0.6196
 9014W        W24145  14.404  10.249  13.277  0.0765 -0.2501 -0.1771
 9015W        W24146  13.781  14.135   1.175 -0.1519 -0.1486 -0.1443
 9016W        W24147   0.190  12.052   2.180  0.1139 -0.0183 -0.0634
 9017W        W24148  14.768   5.067   4.191  0.0377  0.2743 -0.3784
 9018W        W24149   3.439  15.962  13.679  0.2612  0.1030 -0.1413
 9019W        W24150   6.261   9.503   3.484  0.1068  0.0974 -0.0460
 9020W        W24151   0.082   8.669   0.879 -0.1575  0.1380  0.1408
 9021W        W24152   0.721   0.889   4.885 -0.0548 -0.2267  0.0101
 9022W        W24153  15.328   8.505  13.501 -0.0102 -0.1416 -0.0374
 9023W        W24154   2.965   5.089   0.848 -0.1165  0.1980 -0.0107
 9024W        W24155  13.419  13.374   3.758 -0.0093 -0.0795  0.0249
 9025W        W24156   0.505   1.374   5.974  0.2908  0.1440 -0.2205
 9026W        W24157  11.450  18.195  12.766  0.0479 -0.0015  0.2673
 9027W        W24158  15.590  10.009   2.836 -0.0977 -0.2294 -0.0080
 9028W        W24159   7.558   9.824   6.063 -0.1418  0.2008 -0.2091
 9029W        W24160  12.170   3.214  16.002 -0.3635 -0.1231 -0.0609
 9030W        W24161   5.965  16.185  13.181 -0.0950  0.0817 -0.1557
 9031W        W24162  16.099   2.916   1.770  0.3630 -0.2480 -0.1223
 9032W        W24163   2.545  15.717  15.724 -0.0015 -0.4703 -0.0422
 9033W        W24164  12.849  11.742   3.072 -0.2885  0.0419 -0.1401
 9034W        W24165  14.111  11.033  12.316 -0.0980  0.1240 -0.1115
 9035W        W24166   3.263   0.169  12.996 -0.0462 -0.1540 -0.1412
 9036W        W24167  17.854   2.751   3.145  0.1289  0.2684  0.0596
 9037W        W24168  11.146   7.048   4.574 -0.1815 -0.2488 -0.2253
 9038W        W24169  15.937  15.620   2.168 -0.2754  0.0589 -0.0850
 9039W        W24170   6.060  14.424   4.033  0.0688 -0.1194 -0.3001
 9040W        W24171  13.676  10.023   5.809 -0.0788 -0.2018 -0.1178
 9041W        W24172   4.598  12.663  13.501 -0.2965  0.1161 -0.3010
 9042W        W24173   8.591  15.575   0.542  0.1442  0.1258  0.3873
 9043W        W24174  14.419  10.740   0.076  0.2816 -0.3270 -0.1304
 9044W        W24175  15.451  18.185  11.920 -0.0628  0.0597 -0.0549
 9045W        W24176   4.871   5.266  15.741 -0.0155 -0.1227  0.3558
 9046W        W24177  17.078   6.858   4.113  0.1615  0.1059  0.0360
 9047W        W24178  13.550   8.937  13.490  0.0623  0.0648 -0.1892
 9048W        W24179  12.631   3.877  13.801 -0.3279 -0.1487 -0.0942
 9049W        W24180   5.272  12.591  11.885 -0.0276  0.0147  0.2207
 9050W        W24181  11.949   6.285   3.840  0.0685  0.3001  0.1830
 9051W        W24182   1.605   3.226  14.449  0.0095 -0.0075  0.1305
 9052W        W24183  11.450   7.835   4.669 -0.0787  0.1465 -0.0915
 9053W        W24184  12.788   5.534   2.693 -0.0730  0.3020  0.2695
 9054W        W24185  10.215   9.031   0.873 -0.2921 -0.1425 -0.1403
 9055W        W24186   1.211  17.336  14.063  0.0456  0.2425 -0.1880
 9056W        W24187   3.208  18.029  12.668  0.0039  0.1775 -0.0969
 9057W        W24188   1.906  15.758  13.632  0.1974  0.0369 -0.0489
 9058W        W24189  14.898   9.277  13.753 -0.0254 -0.0710  0.1650
 9059W        W24190  18.285   8.059  10.924 -0.1149 -0.3918  0.0012
 9060W        W24191  17.392  16.902   1.854 -0.2888 -0.1055 -0.1816
 9061W        W24192  16.629   0.670   2.380 -0.0727 -0.2304 -0.1368
 9062W        W24193  17.033   3.868  13.663 -0.0946  0.1525  0.0124
 9063W        W24194  16.634   1.028  13.644  0.0236  0.0722  0.3102
 9064W        W24195   5.115   0.400   3.844 -0.3575 -0.2741  0.4313
 9065W        W24196   8.633   7.436   2.911 -0.0233 -0.4423  0.0260
 9066W        W24197   9.671   1.153   3.650  0.0073 -0.1629 -0.1523
 9067W        W24198   5.262   5.361   3.079  0.1325 -0.2230 -0.2613
 9068W        W24199   0.398  15.034  15.185  0.0520 -0.2624  0.0274
 9069W        W24200  13.981   7.764  15.773 -0.2094 -0.0981 -0.0914
 9070W        W24201  12.431   0.030   3.269 -0.0734  0.0999  0.0883
 9071W        W24202  17.917  17.255  15.349 -0.4968 -0.2482 -0.1782
 9072W        W24203  17.099   1.192  13.765 -0.0001 -0.1107 -0.2527
 9073W        W24204  14.811   8.689   3.962  0.2625 -0.0471  0.0842
 9074W        W24205  10.304  13.291  13.650 -0.0415  0.0908 -0.1480
 9075W        W24206  12.267   8.513   5.494  0.0808  0.2485 -0.0619
 9076W        W24207   5.400  14.220  12.622 -0.3179 -0.3582  0.1256
 9077W        W24208   5.901  14.482   3.592 -0.0410  0.0304  0.2917
 9078W        W24209  13.075   0.286  12.082  0.1439 -0.3247  0.2621
 9079W        W24210   6.306  16.482  15.292 -0.2053  0.2706  0.1513
 9080W        W24211   3.218   5.741  15.456  0.3307 -0.0451 -0.1804
 9081W        W24212   0.810  16.779  15.437  0.3314  0.1540 -0.0783
 9082W        W24213   6.756   1.695  14.712  0.0178 -0.0807  0.2062
 9083W        W24214   2.420  12.804   3.728 -0.1137 -0.5222 -0.1093
 9084W        W24215  18.031   2.764   2.005  0.0669 -0.1527 -0.0346
 9085W        W24216  18.136  16.213   3.413 -0.1166  0.1887  0.2965
 9086W        W24217  13.646   1.363  15.711 -0.4131 -0.1208 -0.1650
 9087W        W24218   8.052   7.733   1.296  0.4246 -0.0412 -0.1577
 9088W        W24219   9.071   9.929   1.076 -0.0485 -0.1486  0.0417
 9089W        W24220   4.274  15.385  13.477  0.1997  0.2443 -0.2967
 9090W        W24221   0.198   2.573  13.555  0.2197 -0.0422  0.0465
 9091W        W24222  14.244   1.394  12.715 -0.2934 -0.3381  0.1484
 9092W        W24223  17.452   4.883  11.979 -0.1631 -0.1129 -0.1095
 9093W        W24224   0.538   9.698  10.928 -0.1550  0.2039  0.0658
 9094W        W24225   2.247  10.349   5.303  0.1453  0.3105  0.0575
 9095W        W24226   0.835  13.821  11.385 -0.1050  0.0344 -0.1913
 9096W        W24227   3.722   1.316  11.306  0.1536  0.0804 -0.0133
 9097W        W24228   1.158  11.806   5.451  0.2727  0.0334  0.0902
 9098W        W24229  16.295  10.783   5.214 -0.1801 -0.1442 -0.1059
 9099W        W24230  13.120   2.557   4.259  0.0774 -0.1214 -0.0820
 9100W        W24231   3.658  15.295  15.297  0.1792  0.3039 -0.1887
 9101W        W24232   1.515  17.108  11.396 -0.1209 -0.1470  0.1313
 9102W        W24233   9.436  10.558   3.030  0.0428  0.2808 -0.4751
 9103W        W24234   0.070   5.602   0.609  0.0607 -0.2154 -0.1210
 9104W        W24235   3.789  10.642  12.729 -0.1785  0.1769  0.2023
 9105W        W24236   6.102   8.106   2.107  0.2717  0.0329 -0.4070
 9106W        W24237   7.280   1.431  13.740 -0.3112 -0.1623 -0.0084
 9107W        W24238   7.077  15.476   3.664  0.0972  0.1852 -0.2939
 9108W        W24239  17.554   7.255   3.250  0.1921 -0.0285  0.1618
 9109W        W24240  17.141   8.286  15.775  0.0752 -0.1615  0.1200
 9110W        W24241   5.267   1.793   4.435  0.3071 -0.1850 -0.0722
 9111W        W24242   9.638  11.352   1.184 -0.0339 -0.0302 -0.0188
 9112W        W24243  16.352   3.319  13.973 -0.0977 -0.1828  0.0449
 9113W        W24244   8.074   0.357  13.301  0.1517 -0.0100  0.1502
 9114W        W24245  15.555  11.915   1.648 -0.0032  0.1249 -0.1148
 9115W        W24246  13.334   7.183   0.715  0.2122 -0.2622 -0.0618
 9116W        W24247   1.768  18.355   5.024 -0.3612 -0.2248 -0.1003
 9117W        W24248  17.307  17.937  12.448 -0.0006 -0.5121  0.1339
 9118W        W24249   2.824   7.157   2.481  0.1122  0.1420  0.0687
 9119W        W24250   8.473   5.016   3.568 -0.2632  0.1393 -0.1809
 9120W        W24251  15.316   0.201   2.854  0.4924 -0.0066  0.0479
 9121W        W24252   1.729   6.359  13.748  0.1517  0.3719  0.1308
 9122W        W24253  13.935  16.029   0.418  0.1550  0.1589 -0.3382
 9123W        W24254  10.196   6.945  15.754  0.1665  0.2267  0.2367
 9124W        W24255  12.155   2.966  14.642  0.3523  0.0396  0.0217
 9125W        W24256   0.597   1.173  13.971 -0.2935 -0.0546  0.1034
 9126W        W24257   0.972  13.385   3.697  0.0428 -0.0098  0.0265
 9127W        W24258   6.926   3.707   4.640  0.1423  0.0872 -0.0259
 9128W        W24259  16.859   9.617   2.508  0.0831  0.2247 -0.0561
 9129W        W24260   6.959  16.955  13.805  0.0164 -0.1254  0.1373
 9130W        W24261  13.936   7.504  13.887 -0.2498  0.0021 -0.3224
 9131W        W24262   9.025   5.839   3.802  0.5037 -0.0143  0.0456
 9132W        W24263  12.444   3.511   3.111  0.0997  0.0585  0.0842
 9133W        W24264   2.444  12.036  13.751 -0.2361  0.1812 -0.3679
 9134W        W24265  14.012   9.931  16.143 -0.3106  0.2260 -0.0247
 9135W        W24266  16.052   9.479   1.346  0.1078  0.2587  0.0731
 9136W        W24267   9.671  14.996  12.460 -0.1157  0.2505 -0.0511
 9137W        W24268  12.818   6.237  10.351  0.1162 -0.3096  0.1753
 9138W        W24269   8.766  10.384   0.350  0.0172 -0.0290  0.2345
 9139W        W24270   0.606   0.102   5.165 -0.3375 -0.1958  0.0219
 9140W        W24271   6.440  10.539   1.812  0.0225 -0.2552  0.1860
 9141W        W24272  18.014   8.324   0.984  0.0820 -0.1406 -0.1153
 9142W        W24273  16.248  13.913   0.213 -0.1840  0.0480 -0.1513
 9143W        W24274   4.042   0.339  10.594 -0.0116 -0.0777  0.1926
 9144W        W24275   4.210  11.306   5.478 -0.2806 -0.0798 -0.1244
 9145W        W24276  17.917  11.657  14.395 -0.0585 -0.2003  0.0720
 9146W        W24277   9.873   2.487  12.975  0.1160  0.1429  0.2560
 9147W        W24278   8.030  16.552  11.538 -0.2684 -0.0650 -0.0150
 9148W        W24279  15.743  10.370  13.614 -0.1348  0.2445 -0.3951
 9149W        W24280  12.792  13.719   3.450 -0.0460  0.2371  0.2569
 9150W        W24281   2.196   5.870   4.900 -0.3507 -0.2055 -0.1166
 9151W        W24282   0.548  11.548  14.823 -0.0592 -0.3715 -0.1206
 9152W        W24283  15.194   0.837  14.667 -0.2430  0.0315 -0.0702
 9153W        W24284  11.720   0.488  11.480 -0.2311 -0.1321  0.3024
 9154W        W24285   2.352   8.333  13.424  0.0391 -0.2819  0.2415
 9155W        W24286   6.134  14.395   0.483 -0.2071 -0.1760  0.2602
 9156W        W24287   8.618   8.607  15.510  0.0293 -0.3550 -0.0830
 9157W        W24288  16.250   6.266  12.889 -0.1896  0.0193 -0.0325
 9158W        W24289   0.971  11.274   2.836  0.0313  0.1315 -0.2246
 9159W        W24290  16.616  18.112   0.818 -0.4158  0.1060  0.0810
 9160W        W24291   3.395  15.067  12.615 -0.0275 -0.0817 -0.0499
 9161W        W24292  12.001  17.675   4.192  0.0945 -0.0071 -0.1247
 9162W        W24293  16.526  16.636   5.797 -0.2379  0.2104  0.0594
 9163W        W24294   8.125  14.154  11.272  0.0985  0.1797  0.2497
 9164W        W24295  17.466  13.523  11.142  0.0486  0.0916  0.2308
 9165W        W24296  10.719   4.600  12.051 -0.1426  0.0972  0.1475
 9166W        W24297  16.889   4.490  11.963  0.2065  0.0791 -0.1230
 9167W        W24298  10.890   2.976   1.549 -0.1138  0.1194 -0.0552
 9168W        W24299  11.299  16.475  14.135  0.0603 -0.0399  0.0062
 9169W        W24300  10.543  14.644   0.902 -0.1094 -0.0653 -0.1246
 9170W        W24301   6.405   9.344  14.514  0.1931  0.1522  0.2547
 9171W        W24302  13.836  12.112  15.885 -0.1374 -0.2552  0.0694
 9172W        W24303   3.396   6.680   3.842  0.0947 -0.0706  0.1401
 9173W        W24304   8.523  17.305   3.297 -0.0821 -0.1837 -0.2097
 9174W        W24305   4.591  14.060   4.606 -0.0141  0.2742  0.1146
 9175W        W24306  11.627  14.735   2.922 -0.1531 -0.2552 -0.0903
 9176W        W24307   8.547   2.922   3.192  0.1020  0.0000  0.0392
 9177W        W24308   9.798   0.539  12.534 -0.2106  0.0263 -0.3554
 9178W        W24309  12.953  10.485  15.291  0.1702  0.2617 -0.3078
 9179W        W24310   4.125  16.798   3.394  0.1854 -0.1426  0.3023
 9180W        W24311   8.470  16.147  16.010  0.0277 -0.0813  0.1301
 9181W        W24312   1.483  16.511   1.129 -0.0378 -0.0033  0.1159
 9182W        W24313   7.462  11.938  10.331  0.1943 -0.0248  0.0767
 9183W        W24314   3.095  16.102   2.174  0.0360 -0.2248  0.1327
 9184W        W24315   0.250   4.718  12.738  0.1182 -0.1265  0.2309
 9185W        W24316  12.081   1.494   4.911  0.0696  0.2319  0.2223
 9186W        W24317   4.874  17.169   9.913  0.0395  0.0604 -0.1835
 9187W        W24318   4.861   4.282   5.133  0.1983  0.0109 -0.0802
 9188W        W24319   9.237   9.687   5.044 -0.0936 -0.3501  0.1966
 9189W        W24320  12.058  13.894  10.195  0.0098 -0.5105 -0.0940
 9190W        W24321   2.029  18.110   0.924  0.0623 -0.1201  0.0774
 9191W        W24322  13.972   1.183  13.848  0.0587  0.0804  0.0917
 9192W        W24323  16.325  16.589  12.746 -0.2008 -0.1276 -0.1733
 9193W        W24324  17.431  17.403   5.869 -0.0711  0.2780 -0.0506
 9194W        W24325   3.380  12.923   3.544  0.0838  0.3313  0.1642
 9195W        W24326  17.511   0.425   4.125 -0.3630 -0.0225 -0.0391
 9196W        W24327  14.363   3.378   3.622 -0.0944  0.1773  0.6646
 9197W        W24328   3.444  12.253  12.471 -0.1912  0.0216  0.3238
 9198W        W24329   5.306   5.678  10.683 -0.2573 -0.1516  0.0072
 9199W        W24330  12.641  14.922   2.839 -0.1685  0.2491 -0.1631
 9200W        W24331   8.784  13.804   0.891  0.2441  0.0159  0.1113
 9201W        W24332  13.033  10.685  15.788  0.0331 -0.1170 -0.0963
 9202W        W24333  10.790   2.658  15.931  0.2964 -0.0328 -0.0617
 9203W        W24334   1.046  12.302  10.694  0.2230 -0.1616 -0.3631
 9204W        W24335  10.282   7.552  15.570  0.0074  0.1986  0.0240
 9205W        W24336   4.654  15.345  11.496 -0.0946 -0.0624  0.2312
 9206W        W24337  13.834  11.980  12.487 -0.0888  0.1537 -0.1168
 9207W        W24338   9.586   9.344   3.659 -0.0204 -0.0276 -0.1654
 9208W        W24339   8.180  16.966   0.358  0.0522  0.0099 -0.1064
 9209W        W24340  17.095   5.619  10.813 -0.1688  0.0651 -0.0821
 9210W        W24341   9.080  12.202  13.706 -0.0739  0.0678  0.0240
 9211W        W24342   7.674   7.312   3.268 -0.5447  0.3728  0.0151
 9212W        W24343   9.187  11.670   2.304  0.0402  0.1724 -0.1787
 9213W        W24344   0.400   1.287  13.387  0.1255 -0.4392  0.3186
 9214W        W24345   7.669  11.395   0.820 -0.0061  0.3952 -0.3093
 9215W        W24346  11.448  13.132   4.007  0.3542  0.0254 -0.0209
 9216W        W24347  16.153   1.212  13.856  0.1247 -0.1159  0.0264
 9217W        W24348   8.584  17.216  12.906  0.0490  0.2578 -0.3020
 9218W        W24349  12.117   9.751  13.482  0.1517  0.0327  0.0968
 9219W        W24350   2.820  12.134   0.633  0.0494  0.0543 -0.0483
 9220W        W24351   6.556  16.132   4.786  0.0286  0.6938  0.1253
 9221W        W24352   6.067  10.994  15.837 -0.0492  0.2035 -0.2774
 9222W        W24353  10.148   7.537   3.402 -0.2286 -0.0711 -0.0261
 9223W        W24354   1.683   3.263  12.049 -0.1640 -0.0709  0.3468
 9224W        W24355   1.293   7.292   3.391 -0.0363 -0.0524 -0.0801
 9225W        W24356   1.927  11.100   4.245 -0.0372 -0.0933 -0.1510
 9226W        W24357  13.927   7.520  10.526  0.0244  0.0932 -0.0725
 9227W        W24358   3.151   0.623  11.046  0.2161 -0.3524 -0.4015
 9228W        W24359   9.480   2.772  12.906 -0.3318  0.0349 -0.0090
 9229W        W24360  10.997   6.144   3.464 -0.0571  0.0047 -0.3547
 9230W        W24361   1.802  13.902  13.805  0.2588 -0.0319  0.3022
 9231W        W24362   6.461   7.096  14.572 -0.3029 -0.0568  0.0745
 9232W        W24363  12.645   9.170   1.118 -0.1055 -0.2450 -0.0074
 9233W        W24364  14.224  16.500   3.733 -0.0013  0.4461  0.0179
 9234W        W24365  13.126   3.854   5.998  0.1593 -0.2237  0.1415
 9235W        W24366   3.948   7.242  15.577  0.0678  0.1390  0.0701
 9236W        W24367   8.932   1.732  14.436 -0.0399 -0.0513 -0.1934
 9237W        W24368  10.689   4.309  10.574 -0.1033  0.0681 -0.1182
 9238W        W24369   9.871   3.017  13.112 -0.0789  0.3413  0.0596
 9239W        W24370  13.036   3.159  15.838  0.1537 -0.0792  0.0497
 9240W        W24371  17.429  12.418  15.653 -0.0683  0.0550  0.1000
 9241W        W24372   6.113  17.456   2.302 -0.0389  0.3062 -0.0819
 9242W        W24373  16.868  15.756  12.244  0.1732 -0.0782 -0.1627
 9243W        W24374   8.350  12.736   0.820 -0.1987  0.1212  0.4231
 9244W        W24375   3.532  13.508   4.403 -0.1435  0.1790 -0.1780
 9245W        W24376   6.283  15.085  14.003 -0.2125  0.0393  0.0141
 9246W        W24377   3.816  12.859   0.834 -0.0594  0.1836 -0.4262
 9247W        W24378   2.658   7.644   4.986  0.2174  0.1639  0.1351
 9248W        W24379  13.089  15.628   4.735 -0.0769  0.0670  0.0090
 9249W        W24380  13.470   7.619   3.329  0.1010  0.2045  0.1245
 9250W        W24381   7.738  15.691  14.947  0.0388 -0.0129  0.0350
 9251W        W24382   7.279  11.231  14.044 -0.2977 -0.0632 -0.2215
 9252W        W24383  17.136  15.884   1.627  0.0567 -0.4551 -0.0294
 9253W        W24384   3.557   8.930   4.402 -0.2037 -0.0680  0.2303
 9254W        W24385   7.929  11.375   1.886 -0.1526 -0.5300  0.1650
 9255W        W24386  13.039   1.042   4.702 -0.1343  0.0326  0.4425
 9256W        W24387  10.856   1.996  11.072 -0.0302 -0.1027 -0.0031
 9257W        W24388   5.939   5.464   1.051 -0.2034 -0.1285 -0.0205
 9258W        W24389  12.695   4.469   1.716  0.2462  0.1503  0.0193
 9259W        W24390   1.458  17.050   1.517 -0.3241  0.0061 -0.1067
 9260W        W24391  12.374  18.045   2.594  0.0846 -0.1284 -0.2950
 9261W        W24392  10.374   2.755   6.588  0.0998 -0.1075 -0.1047
 9262W        W24393  13.407  12.329  10.303  0.0571  0.3629 -0.3149
 9263W        W24394   6.192  15.264   0.792  0.2090 -0.0383 -0.1359
 9264W        W24395   3.725   8.905   3.903  0.3828  0.1019  0.2319
 9265W        W24396  13.466  11.022   1.041  0.3838 -0.1116  0.0093
 9266W        W24397   6.930   8.904  13.222  0.0204  0.1576 -0.1133
 9267W        W24398  12.933  14.311  12.966  0.1604 -0.2358  0.2419
 9268W        W24399  10.755   2.023   0.544  0.0816  0.1147 -0.2097
 9269W        W24400   1.775  13.725   2.256 -0.0728  0.0670  0.1715
 9270W        W24401  11.494   9.055   2.491 -0.0486  0.0263  0.2430
 9271W        W24402  14.076  11.908  10.912  0.0345  0.0700 -0.3122
 9272W        W24403   1.028   4.111  14.087  0.1329 -0.0039 -0.1190
 9273W        W24404   3.881   4.325  10.996 -0.2242 -0.0363 -0.0502
 9274W        W24405  18.117  11.548   3.325 -0.1135 -0.0557  0.0613
 9275W        W24406  17.260  11.822   0.680 -0.0059  0.0139  0.0222
 9276W        W24407  18.347   3.808   4.008 -0.2990  0.0557  0.1534
 9277W        W24408   6.256   6.283   2.393  0.2921  0.2298 -0.2367
 9278W        W24409  15.940  12.977   3.907  0.1617 -0.4853  0.2863
 9279W        W24410   7.060   2.900   3.571  0.2387  0.0535  0.1903
 9280W        W24411  13.138  14.867  15.288 -0.0831 -0.4315  0.0556
 9281W        W24412   5.083   7.348   0.172 -0.0749  0.2984 -0.1053
 9282W        W24413   3.950  12.266  12.255 -0.0465  0.0137  0.0846
 9283W        W24414  16.693  12.187  13.726 -0.0840 -0.0055 -0.1335
 9284W        W24415  15.726   9.794   5.139 -0.2399 -0.1084 -0.1992
 9285W        W24416   7.726  16.276   0.925 -0.1087  0.0493 -0.1054
 9286W        W24417   4.423   4.476  13.497 -0.1313  0.3531 -0.0381
 9287W        W24418  11.618  15.974   2.776 -0.2072  0.1519 -0.0602
 9288W        W24419  10.086   4.475   0.736 -0.2212 -0.0645  0.1595
 9289W        W24420  14.516   5.326  13.888  0.1200 -0.0255  0.1686
 9290W        W24421   0.113  17.105  11.423 -0.3612 -0.0947 -0.3825
 9291W        W24422   9.774  15.066  14.990 -0.0792 -0.0266  0.1377
 9292W        W24423   5.604  14.152  14.577  0.0720  0.2631  0.2557
 9293W        W24424  14.138  17.109  11.336 -0.0684 -0.1899  0.1312
 9294W        W24425   0.315  18.015   2.109  0.0035 -0.0721  0.1063
 9295W        W24426  13.838  17.723   2.634 -0.1341  0.4453 -0.0485
 9296W        W24427   2.158   2.316  16.047  0.0028 -0.1763  0.2608
 9297W        W24428   0.717  16.414   4.481  0.1796 -0.0828 -0.1725
 9298W        W24429   5.938   0.018   2.659 -0.0864  0.1529  0.0954
 9299W        W24430   6.515  11.905   2.205 -0.0296 -0.2118  0.0692
 9300W        W24431   9.105   0.266   5.263 -0.2142 -0.3959 -0.1515
 9301W        W24432   0.031  15.859  10.905  0.2465 -0.1103  0.0449
 9302W        W24433  11.893   7.561  11.278  0.0883 -0.2292  0.0299
 9303W        W24434   2.180  13.645  11.621 -0.1293  0.2096 -0.0305
 9304W        W24435  11.166  14.852  12.232 -0.0809  0.1603 -0.2754
 9305W        W24436  15.596  10.648   0.972  0.0367 -0.2738  0.2335
 9306W        W24437   2.745  17.635  13.580 -0.0815 -0.0692  0.2185
 9307W        W24438   7.605   5.744  13.117 -0.2561 -0.0836 -0.0235
 9308W        W24439   6.700   9.258  12.880  0.1190 -0.1695  0.1830
 9309W        W24440   7.109  11.134  10.240 -0.2090  0.1601  0.1103
 9310W        W24441  10.449   9.031  13.834 -0.2751 -0.2803  0.2127
 9311W        W24442   1.624  10.494   3.405 -0.2376  0.3819 -0.0714
 9312W        W24443  13.694  11.333   0.689 -0.0227  0.1561  0.3146
 9313W        W24444   4.641   5.496  12.623 -0.4375  0.0953  0.2661
 9314W        W24445   5.507  10.773   1.464 -0.0758 -0.0523 -0.2829
 9315W        W24446  10.508  13.019  10.891  0.0618 -0.1322 -0.2636
 9316W        W24447   2.911   0.123  14.452  0.1425  0.1340  0.1336
 9317W        W24448  16.571   7.276  15.567 -0.2934 -0.2494 -0.1814
 9318W        W24449   1.381  13.692   2.618 -0.1016  0.1278 -0.0811
 9319W        W24450  11.113   0.731   1.277  0.1248  0.1182  0.3007
 9320W        W24451   8.459   0.663   1.753  0.1798 -0.0481 -0.0385
 9321W        W24452   4.968   9.941   3.399  0.1373  0.0701  0.0990
 9322W        W24453  11.904   5.731  13.618 -0.2085 -0.1694 -0.0707
 9323W        W24454  12.513  15.359  12.001 -0.1980  0.1776 -0.0555
 9324W        W24455   6.276  15.118   5.587  0.2594 -0.2552  0.0730
 9325W        W24456   5.732   0.794  14.157 -0.1109  0.1363 -0.1811
 9326W        W24457   0.189  14.395  13.015 -0.2806  0.1619  0.0832
 9327W        W24458  16.596  13.455  15.086 -0.1462  0.0222 -0.0324
 9328W        W24459   3.599   3.768  13.387 -0.1739  0.2123 -0.2684
 9329W        W24460   5.109  16.220  11.125 -0.1202  0.0753  0.0548
 9330W        W24461  18.019   3.217   1.086  0.0714  0.3754 -0.1949
 9331W        W24462  16.887  12.112  11.167 -0.1399  0.1630  0.0869
 9332W        W24463   7.289   6.005   5.370 -0.4011 -0.0266 -0.1606
 9333W        W24464  11.061  12.601  11.433 -0.0166 -0.1373 -0.3221
 9334W        W24465   3.761  12.414   0.528  0.1118  0.2320  0.1072
 9335W        W24466   3.890   9.731   4.856 -0.0109  0.0208  0.4845
 9336W        W24467   6.227   6.376  14.583  0.1708 -0.0550 -0.1858
 9337W        W24468   2.313   8.855   3.239  0.4613  0.1043 -0.0740
 9338W        W24469   1.716   9.865   0.488 -0.0314  0.3104 -0.1828
 9339W        W24470   6.814  16.652  13.448 -0.1531 -0.1029 -0.0724
 9340W        W24471  14.605  17.657   4.666  0.3643 -0.1162 -0.0169
 9341W        W24472  15.908   5.372   3.620 -0.0365 -0.3511 -0.2728
 9342W        W24473   1.706  16.241  15.574  0.2393  0.0050  0.1030
 9343W        W24474  17.233   9.787  15.248 -0.0622  0.0173  0.1247
 9344W        W24475   1.498  14.270   4.337  0.1476  0.1287  0.1701
 9345W        W24476   1.476   0.624  12.335 -0.0594  0.1300  0.0924
 9346W        W24477   6.068  15.539  14.127  0.0167  0.0287  0.0783
 9347W        W24478  11.240   9.276  12.167  0.2945 -0.3373  0.0889
 9348W        W24479  17.934  17.943   2.794 -0.0816  0.0314  0.0842
 9349W        W24480  14.385   0.307   5.879  0.0816 -0.1827 -0.2464
 9350W        W24481   0.215  10.477  15.777 -0.2096  0.1970 -0.1462
 9351W        W24482   9.760  14.061  15.212 -0.0432  0.0927  0.1745
 9352W        W24483  17.265  10.329  11.434  0.0752  0.3851  0.2542
 9353W        W24484  16.613   7.939  14.873 -0.0421  0.0669 -0.2680
 9354W        W24485  11.632   9.920  15.357  0.0515 -0.2074  0.2220
 9355W        W24486   9.888  13.969   3.914  0.0919 -0.0696  0.0027
 9356W        W24487   5.044  10.097   0.288 -0.1521  0.1633  0.2419
 9357W        W24488   3.961   0.870   4.115 -0.1091 -0.0302  0.1183
 9358W        W24489   8.190   0.016   1.757 -0.0486  0.0387  0.1135
 9359W        W24490  17.952   8.719  13.416 -0.0012  0.2044 -0.1073
 9360W        W24491  13.942   0.245  11.091  0.0448  0.1255  0.0861
 9361W        W24492   2.549   0.544  15.456 -0.1468  0.0258 -0.0875
 9362W        W24493  17.959  15.813   3.916  0.0967 -0.2777 -0.1882
 9363W        W24494  14.401   7.156  13.360 -0.1242 -0.1637 -0.3173
 9364W        W24495   6.675   3.166  15.730  0.3309  0.0309 -0.0913
 9365W        W24496  10.233   3.813   0.055 -0.0221 -0.1178  0.2236
 9366W        W24497  12.286  16.168   5.035 -0.0792  0.2717 -0.2317
 9367W        W24498   4.004  11.598   2.296 -0.0895 -0.2296  0.1200
 9368W        W24499  11.144  17.903   0.525  0.2455  0.2336  0.2303
 9369W        W24500  15.664   1.568   1.888  0.0267  0.2919  0.2808
 9370W        W24501   6.324   9.676  13.523 -0.1781 -0.1510 -0.1229
 9371W        W24502  15.699   4.000  11.827 -0.0663 -0.1201  0.1276
 9372W        W24503   1.036  10.717  13.932  0.0953 -0.1613  0.2921
 9373W        W24504   2.740  18.339  16.026  0.1535 -0.2015 -0.1745
 9374W        W24505  14.471   0.603   5.205  0.0743  0.0572  0.1254
 9375W        W24506  15.341  10.166   2.335  0.0303 -0.0637  0.1143
 9376W        W24507   7.142  13.055   2.584  0.4007  0.1000  0.2244
 9377W        W24508  13.778  16.663   3.821  0.0451 -0.0186 -0.2142
 9378W        W24509  16.138   5.416   4.606 -0.0788 -0.2328  0.3411
 9379W        W24510   2.099  15.518  15.571 -0.0396  0.1140  0.2786
 9380W        W24511   1.442   4.270  13.616  0.3602 -0.4423  0.1472
 9381W        W24512   0.348  11.866  12.549  0.0487 -0.1739  0.0219
 9382W        W24513   5.237  12.375  13.013 -0.1131  0.1221  0.2218
 9383W        W24514  12.046  14.057  12.746  0.0732 -0.0728  0.1968
 9384W        W24515  10.664   8.949  13.329 -0.4282 -0.2392  0.1548
 9385W        W24516  17.698   1.342  14.328 -0.2337  0.0142  0.3537
 9386W        W24517  15.836   6.761  12.897 -0.1295  0.1798 -0.1262
 9387W        W24518  16.052   5.945  11.101 -0.0198 -0.1436 -0.1538
 9388W        W24519  14.647   2.024   3.496 -0.1082 -0.2131  0.0716
 9389W        W24520  10.673  10.431   1.612 -0.2546  0.1476  0.1885
 9390W        W24521   3.318  14.715   4.720  0.0170  0.4139  0.0745
 9391W        W24522  13.943  13.743   1.479 -0.3358 -0.0728  0.3246
 9392W        W24523   4.194  12.411  13.863  0.2964  0.1723  0.4779
 9393W        W24524   3.746   6.028   2.720 -0.0434  0.2820 -0.0804
 9394W        W24525   6.029   6.723  15.726 -0.0846 -0.0818 -0.1075
 9395W        W24526  14.947   8.647  15.225 -0.0142  0.2941  0.0370
 9396W        W24527  13.637   6.339   4.318 -0.1182  0.1757 -0.3453
 9397W        W24528  14.852  17.515   5.097  0.2511  0.0456 -0.2816
 9398W        W24529   2.624   5.676  14.653 -0.0022 -0.0430 -0.1676
 9399W        W24530   8.924  13.339   0.962 -0.1212 -0.4674 -0.0711
 9400W        W24531   0.898   4.247  11.432 -0.2236 -0.0179 -0.3302
 9401W        W24532   3.085   4.620  14.100  0.0535 -0.0806  0.0268
 9402W        W24533  16.904   3.570  11.857 -0.0305 -0.0574  0.1853
 9403W        W24534  10.047  13.490  13.213 -0.0770  0.1118  0.1892
 9404W        W24535   7.384  10.587   0.354  0.2540 -0.0776 -0.0359
 9405W        W24536   2.469   0.629   0.621 -0.3452  0.0248  0.1048
 9406W        W24537   6.664  15.142  10.640  0.0495  0.0063 -0.0404
 9407W        W24538  10.123  11.035  15.002  0.1510  0.0805  0.2560
 9408W        W24539   8.502  17.971  10.879  0.2318  0.3138 -0.1495
 9409W        W24540  13.329   6.023  12.891 -0.0002 -0.1605  0.1838
 9410W        W24541  16.883  18.185  10.804  0.2890  0.3229  0.0892
 9411W        W24542  10.758  11.175   3.027  0.1300  0.0105 -0.1113
 9412W        W24543  16.573  14.686  11.779  0.2253  0.0116 -0.0046
 9413W        W24544  17.382   5.958  10.588  0.0602 -0.4125  0.0019
 9414W        W24545  17.880   1.365   2.784  0.1257  0.0965 -0.2542
 9415W        W24546   7.075   6.648  13.427 -0.1020 -0.0094 -0.0538
 9416W        W24547  12.251   7.275   6.051 -0.2517  0.0377 -0.2490
 9417W        W24548   4.407   7.981   1.873 -0.1621 -0.3166  0.2752
 9418W        W24549   8.653   4.987  11.667  0.1137 -0.0315 -0.3187
 9419W        W24550   0.297   7.072  15.247  0.3247 -0.0685 -0.0218
 9420W        W24551  11.439  14.352  14.997  0.1219 -0.0900 -0.1167
 9421W        W24552   3.906  15.614  14.902  0.4022  0.2588 -0.2105
 9422W        W24553  17.759   4.469  14.048  0.2175 -0.2570 -0.3169
 9423W        W24554  12.618   1.113   0.547  0.0205  0.0713  0.1628
 9424W        W24555   2.011  14.908  11.641 -0.0841 -0.0053  0.0620
 9425W        W24556   7.451   3.473   5.570 -0.5551  0.1381  0.0263
 9426W        W24557  12.282   4.061   0.440 -0.0332  0.0571 -0.0958
 9427W        W24558  11.462  18.208   0.903  0.1176  0.0338 -0.1201
 9428W        W24559  10.903  13.400  12.816 -0.0086 -0.0236  0.5687
 9429W        W24560  10.656   3.468   0.056 -0.1207  0.1405 -0.3982
 9430W        W24561  17.207   2.923   1.029  0.0301  0.2655  0.0368
 9431W        W24562   2.515   7.947   2.724 -0.2681 -0.0102 -0.0701
 9432W        W24563  12.648  17.596   3.468 -0.0270 -0.1701  0.1841
 9433W        W24564   7.224  10.595   1.689  0.0648  0.0850 -0.2503
 9434W        W24565  16.704   7.688  11.816  0.2064  0.1344  0.1219
 9435W        W24566  13.254  16.393  12.136  0.0839  0.0161 -0.5111
 9436W        W24567  12.437   4.615   2.998 -0.0631  0.1738 -0.3053
 9437W        W24568   1.029   6.185   0.349  0.1916 -0.0527 -0.2163
 9438W        W24569  17.576  15.882  13.009  0.0269 -0.0004  0.2514
 9439W        W24570  10.736  13.430  11.004 -0.2097 -0.2922  0.0600
 9440W        W24571  12.004  15.165  10.980 -0.3762 -0.1689 -0.2205
 9441W        W24572  11.349   2.253  13.893 -0.0406 -0.0033 -0.0647
 9442W        W24573   2.330  17.017   0.409  0.0431 -0.0895 -0.1326
 9443W        W24574  11.379   0.638  15.356 -0.2056  0.1483  0.0507
 9444W        W24575  11.238   6.668   0.678  0.2007 -0.1008  0.3745
 9445W        W24576  11.654  17.794  14.269 -0.1817  0.2365 -0.0952
 9446W        W24577   1.657   2.246  15.400  0.0587  0.0044 -0.0112
 9447W        W24578   5.896  13.244  11.748  0.0556 -0.2428  0.0772
 9448W        W24579  15.293  16.644  15.777 -0.1722  0.1987  0.0731
 9449W        W24580   1.888  10.364   0.247 -0.0467  0.1235  0.1503
 9450W        W24581  11.046  13.665   3.540 -0.1595  0.1188  0.4125
 9451W        W24582  13.451  17.035  14.766  0.0733 -0.0367  0.0066
 9452W        W24583   2.733   7.210   3.175  0.2379  0.1565 -0.1851
 9453W        W24584   1.201  18.178  10.315  0.0364 -0.1134 -0.3994
 9454W        W24585   1.430   6.709   0.338 -0.0949  0.2860  0.0518
 9455W        W24586  12.729  12.516  11.457  0.3453 -0.0314 -0.0640
 9456W        W24587   0.823  10.397   3.668 -0.1512 -0.2739  0.0130
 9457W        W24588   7.404   0.208  12.500 -0.0089  0.2205  0.1876
 9458W        W24589   1.971   0.603   0.937  0.2778 -0.0076  0.0419
 9459W        W24590  16.081   9.183   2.805 -0.1855 -0.0357 -0.0599
 9460W        W24591   6.310  17.518  10.764  0.0104  0.2910  0.1849
 9461W        W24592   4.643   1.384  13.529  0.0373 -0.0316  0.2500
 9462W        W24593   0.326  16.905  12.727 -0.0147 -0.0778  0.0165
 9463W        W24594   1.394   4.427  14.588  0.1719  0.0942 -0.1510
 9464W        W24595   9.968  17.006  15.568 -0.0264 -0.0372  0.1348
 9465W        W24596   7.481   0.935   3.051 -0.0306 -0.1742  0.1400
 9466W        W24597  12.746  16.809   2.842 -0.1126  0.0065  0.1283
 9467W        W24598   7.053  15.126   0.976  0.1146  0.2392 -0.1676
 9468W        W24599   4.800   2.216  15.205  0.1307  0.0864  0.1066
 9469W        W24600  11.159  11.258   4.877  0.2199  0.4048  0.0366
 9470W        W24601   5.998  15.745   4.578  0.1591 -0.2512  0.0878
 9471W        W24602   3.063   6.631  14.486  0.5107 -0.1928 -0.0622
 9472W        W24603  17.057   5.452   2.899 -0.0681  0.0346 -0.1056
 9473W        W24604   9.256  16.989   5.236 -0.0854  0.4269 -0.3360
 9474W        W24605  10.834  17.352  14.617  0.0803 -0.1311  0.0344
 9475W        W24606  17.148   3.313  13.925 -0.2179  0.2393 -0.1074
 9476W        W24607   8.677   8.995   3.995  0.2981 -0.0803 -0.1068
 9477W        W24608  12.990   9.522   4.765  0.1586 -0.1390  0.1633
 9478W        W24609   1.648  10.206   0.820 -0.1149  0.1910 -0.1447
 9479W        W24610  12.722   4.614  11.534 -0.0293 -0.1296  0.1578
 9480W        W24611   6.856  11.084   4.270  0.2010  0.2573  0.0016
 9481W        W24612   6.556  17.467   4.263  0.0925 -0.0435 -0.0306
 9482W        W24613   7.425  13.281  15.485  0.0119 -0.4239  0.1708
 9483W        W24614  16.963   0.203   4.246  0.1125 -0.2043  0.1462
 9484W        W24615   9.959   8.413  13.368 -0.0711  0.0656 -0.0270
 9485W        W24616  10.667   1.512  11.916  0.0278 -0.1353 -0.2291
 9486W        W24617   7.016  11.667  10.339 -0.1470 -0.0708 -0.0361
 9487W        W24618   2.713   5.507   3.720 -0.2037  0.3358  0.2554
 9488W        W24619   0.880  18.265  12.281 -0.2937  0.0504 -0.1533
 9489W        W24620  14.246  10.047   4.223 -0.0734 -0.4159  0.0562
 9490W        W24621   1.744  15.346   0.393  0.0585  0.1839  0.0242
 9491W        W24622   9.336  14.721   9.891  0.2230  0.3720 -0.2395
 9492W        W24623  10.338   5.753   0.159  0.0601 -0.0603 -0.0477
 9493W        W24624   8.713   8.208  10.348  0.1414 -0.3667  0.2041
 9494W        W24625   7.090   6.076  14.005  0.1260  0.1604  0.0924
 9495W        W24626   7.902  12.141  14.975  0.2562  0.0730  0.0428
 9496W        W24627   0.490   7.754  12.016  0.1415 -0.0499 -0.0390
 9497W        W24628   4.083   3.984   3.032  0.4217 -0.4605  0.2670
 9498W        W24629  10.737   5.974   4.504 -0.3686 -0.1339 -0.0148
 9499W        W24630   6.135   9.164  13.731  0.0370  0.1950 -0.0887
 9500W        W24631   8.974  17.522   4.588 -0.1467 -0.0350  0.0681
 9501W        W24632   7.714   9.974  14.491  0.1611 -0.1639  0.2840
 9502W        W24633   6.215  10.082   5.372  0.2119  0.0803  0.0826
 9503W        W24634  11.908   5.526   0.111 -0.1324  0.2670  0.0616
 9504W        W24635   5.849   3.875  12.433 -0.1124  0.0963 -0.3972
 9505W        W24636   5.968  14.996   1.971  0.0279 -0.0052  0.3976
 9506W        W24637  16.175  16.910   3.658 -0.1925  0.1514  0.3234
 9507W        W24638  13.324   7.966  11.167 -0.1020  0.2671  0.2805
 9508W        W24639  14.007   4.327   4.451 -0.0658 -0.1199  0.4797
 9509W        W24640   5.558  13.264   4.241  0.0429  0.0295  0.2751
 9510W        W24641  13.227   1.377  14.897 -0.3520  0.0223  0.2501
 9511W        W24642   3.335   0.991   5.149  0.2108 -0.2423 -0.0240
 9512W        W24643   7.633   1.995   5.790 -0.0472 -0.3780  0.1114
 9513W        W24644   9.406   2.817   1.335 -0.0462 -0.0494 -0.1209
 9514W        W24645   2.862  12.965   5.208 -0.0191  0.1176  0.1329
 9515W        W24646  14.687  11.202  10.920  0.0723 -0.1873 -0.1901
 9516W        W24647   6.191  12.776   2.380 -0.3673 -0.3339 -0.0535
 9517W        W24648   0.934  10.844   5.389  0.1153  0.2017 -0.1858
 9518W        W24649  15.368   3.382   2.789  0.0174 -0.0706  0.0480
 9519W        W24650  17.966  14.550   5.091  0.2907 -0.4246 -0.3142
 9520W        W24651  12.909   4.030  15.934 -0.0103  0.3043  0.1826
 9521W        W24652   0.379   5.890   4.350  0.1622 -0.1897 -0.1397
 9522W        W24653   9.661   0.766   3.310 -0.2003 -0.0546 -0.1438
 9523W        W24654   6.197   7.618   4.111  0.0724  0.1143  0.1387
 9524W        W24655   8.211  10.961  10.886  0.1484 -0.1607 -0.4027
 9525W        W24656   9.807  10.681  13.299  0.0400 -0.0725  0.0795
 9526W        W24657  12.280  11.448   3.187  0.0479  0.3508 -0.1878
 9527W        W24658   6.858  15.171  11.336 -0.1140  0.4170 -0.0912
 9528W        W24659  17.010   1.976   0.991 -0.1695 -0.0247 -0.2774
 9529W        W24660  14.669   8.274  15.563  0.2192  0.0468 -0.3777
 9530W        W24661   8.952  11.502   1.007  0.2305  0.2009 -0.3102
 9531W        W24662  15.888  10.748  15.672 -0.0350  0.0033  0.2951
 9532W        W24663   7.100   2.795   0.875 -0.0349  0.0118  0.0775
 9533W        W24664  17.076   0.301  13.722  0.3762  0.1258  0.0886
 9534W        W24665  16.758  11.955  15.132 -0.1419 -0.0146  0.2759
 9535W        W24666   3.484   5.319  13.775  0.2547  0.0690 -0.3104
 9536W        W24667   1.625   6.200   2.383  0.0448  0.2172 -0.3708
 9537W        W24668   9.691  13.185  15.577 -0.0151 -0.0346  0.0956
 9538W        W24669   9.188   8.154   0.689 -0.1547 -0.4781  0.0675
 9539W        W24670  16.365   1.149   0.645 -0.2961 -0.1777  0.2159
 9540W        W24671   0.019   1.625  15.051  0.3651  0.0122 -0.4174
 9541W        W24672   9.995   0.526  14.773 -0.0421 -0.2143  0.1261
 9542W        W24673  12.927   8.422   4.052 -0.1231  0.2579  0.0594
 9543W        W24674  18.273   6.182   1.402 -0.0349  0.1764  0.0542
 9544W        W24675  13.397  12.041   1.532  0.0559  0.0182  0.1693
 9545W        W24676  10.956   8.680  13.877  0.0926 -0.1669  0.0832
 9546W        W24677  15.530   0.174   4.257 -0.2848  0.1793 -0.0664
 9547W        W24678  12.054   7.567  12.205 -0.4299 -0.0187 -0.0876
 9548W        W24679   5.176  18.049  14.812 -0.1117 -0.1060  0.0615
 9549W        W24680   8.342  11.473  15.052 -0.1552 -0.1373  0.2059
 9550W        W24681   4.048   9.997  11.569 -0.0603  0.0515  0.1411
 9551W        W24682  17.089   8.194  14.441 -0.0675  0.2518  0.1271
 9552W        W24683  13.563   6.367  14.162 -0.0200  0.2609  0.0363
 9553W        W24684   2.333  15.680   9.695  0.3469  0.0159  0.0158
 9554W        W24685   3.381   0.365  15.566  0.0291 -0.0577  0.0230
 9555W        W24686  16.695   6.372   2.211 -0.1795 -0.1154  0.0092
 9556W        W24687   4.670   8.671  15.504 -0.0314 -0.2823 -0.0235
 9557W        W24688   8.072  16.455   4.788  0.0882  0.2196  0.0818
 9558W        W24689   7.263  12.472   0.050  0.0976 -0.0057  0.2203
 9559W        W24690   7.708   4.851   5.213 -0.0269 -0.3307 -0.0548
 9560W        W24691   8.121  13.338  12.427  0.0111  0.0003 -0.1330
 9561W        W24692   0.577   0.713   4.364  0.0652 -0.3129  0.0316
 9562W        W24693   0.877   4.244   0.146 -0.2202 -0.0579  0.2394
 9563W        W24694   3.858   7.242  14.338 -0.1404  0.1233  0.1599
 9564W        W24695   2.924  14.182  14.225  0.4810  0.0759 -0.1169
 9565W        W24696   3.410  17.992   0.743  0.0296 -0.0136  0.2317
 9566W        W24697   6.637  18.141   3.349  0.2245 -0.0314 -0.2074
 9567W        W24698  10.571  13.659  14.470  0.1867 -0.0564  0.2909
 9568W        W24699  15.828   5.484  14.397 -0.0153 -0.0691 -0.1244
 9569W        W24700   1.203   2.714  15.343  0.0928 -0.4032 -0.0422
 9570W        W24701  13.418  17.913   4.154 -0.1790 -0.0797  0.3380
 9571W        W24702   3.498   3.566  15.800  0.1565 -0.1068  0.1739
 9572W        W24703   9.359   6.216  11.499  0.2064 -0.0093 -0.1491
 9573W        W24704  13.432   6.728   4.048  0.0082  0.1835 -0.0157
 9574W        W24705   5.580  16.846  11.695 -0.0876  0.2373 -0.0838
 9575W        W24706  15.053   8.889  13.268  0.1078 -0.1414  0.1906
 9576W        W24707   5.183   0.267   2.172  0.1947 -0.2150 -0.4317
 9577W        W24708  14.035  11.595  14.512 -0.0971  0.0270 -0.1849
 9578W        W24709   3.409  15.497   0.735 -0.0744 -0.2093 -0.3218
 9579W        W24710   2.758   2.667   2.042 -0.0782 -0.0979 -0.1389
 9580W        W24711  18.262  11.128   1.117 -0.0766  0.1185 -0.0768
 9581W        W24712   7.210   7.290   1.092  0.2281 -0.0685 -0.1804
 9582W        W24713   6.216   4.272   2.387  0.2110 -0.0980 -0.1036
 9583W        W24714   7.531  14.085  14.969  0.3315 -0.3922  0.1097
 9584W        W24715   9.857   2.782   2.273 -0.0654  0.3463  0.0734
 9585W        W24716  10.974   7.999  15.562 -0.1819  0.0110 -0.0394
 9586W        W24717  17.180  16.087  14.043 -0.1535  0.1951  0.1377
 9587W        W24718  11.130   4.708   0.206  0.0442 -0.1149 -0.2044
 9588W        W24719  18.362  15.353   1.541 -0.1768  0.2081  0.0533
 9589W        W24720   9.082  17.246  13.595  0.3615  0.0533  0.2852
 9590W        W24721   8.716   6.357  14.567 -0.2224  0.2792  0.0739
 9591W        W24722  14.064  15.158   3.068  0.3299 -0.1038 -0.0696
 9592W        W24723   5.859   1.313  12.648 -0.1261  0.2775  0.1225
 9593W        W24724   6.605  17.828   3.736  0.3402 -0.1487  0.2956
 9594W        W24725   8.495   1.446   2.213 -0.0597 -0.0517 -0.3462
 9595W        W24726   3.149   2.850   4.050  0.3636 -0.1075  0.0642
 9596W        W24727  12.593  10.355   5.845 -0.1594  0.2448  0.1207
 9597W        W24728  13.795  16.895   4.261  0.1689  0.3163  0.2721
 9598W        W24729  13.753   9.411  15.506  0.3463 -0.0652 -0.2239
 9599W        W24730   5.462   0.206  13.668  0.2229  0.0446  0.1329
 9600W        W24731  17.673  11.336  14.700  0.1512 -0.2657 -0.1487
 9601W        W24732   2.767   7.380   3.682 -0.2186  0.2312 -0.0030
 9602W        W24733   8.708  13.142  15.928 -0.0471 -0.1620 -0.0785
 9603W        W24734   9.527  13.690   4.498 -0.1949  0.0510 -0.0180
 9604W        W24735   4.178  12.266  12.884 -0.2832 -0.1232 -0.3088
 9605W        W24736   4.985   8.957  13.594 -0.1075 -0.1848  0.1190
 9606W        W24737   2.695   8.491   0.131  0.1276 -0.1147 -0.3547
 9607W        W24738   2.570  15.515  11.918 -0.0714  0.1819  0.1625
 9608W        W24739  18.061  15.746   4.481 -0.0061 -0.3257 -0.0866
 9609W        W24740  15.268  11.593  15.224 -0.3504  0.1649 -0.0630
 9610W        W24741  12.735   3.378   1.291 -0.0230  0.2288 -0.0961
 9611W        W24742   6.981  16.761   5.091 -0.1326  0.1815 -0.0030
 9612W        W24743  18.046   0.773   1.670 -0.2624  0.1781  0.1143
 9613W        W24744  15.523  16.214   6.076  0.0965  0.3417  0.2496
 9614W        W24745  12.877   8.121  13.481  0.1282  0.1936 -0.1138
 9615W        W24746   8.010   2.066  15.990  0.3458 -0.0351  0.1832
 9616W        W24747  12.094  10.051  13.994 -0.3814 -0.0018  0.0982
 9617W        W24748  17.316   2.636   5.048 -0.4154  0.1701  0.0682
 9618W        W24749   9.796   9.888  14.174  0.2176 -0.1283 -0.2060
 9619W        W24750   4.192   1.751   2.529 -0.0015  0.0078  0.1169
 9620W        W24751   4.624  11.730   4.207 -0.1190 -0.0808  0.1122
 9621W        W24752  13.180  12.092  11.633 -0.1154 -0.0181 -0.1859
 9622W        W24753   9.085  16.270  11.685  0.2386 -0.2377  0.0906
 9623W        W24754   3.983  11.517   3.526 -0.1413 -0.0306  0.1611
 9624W        W24755  12.837  18.122   1.323  0.1556 -0.0235 -0.0624
 9625W        W24756  10.403   2.170  14.199  0.0994 -0.0481 -0.3126
 9626W        W24757   9.062   7.576  13.203 -0.0456 -0.2513  0.3751
 9627W        W24758   5.857  10.094  13.051  0.1948 -0.0373 -0.2695
 9628W        W24759  14.938  18.057  15.743 -0.2271  0.1122 -0.1900
 9629W        W24760  15.252   3.333   5.152 -0.3636 -0.0212 -0.0206
 9630W        W24761  14.547   8.478   4.282 -0.1207  0.2238  0.0561
 9631W        W24762   0.159  15.892  12.293  0.1601  0.0195 -0.3254
 9632W        W24763  11.645   1.164  15.296 -0.3018  0.0664 -0.0639
 9633W        W24764   3.355  13.310   0.300  0.0605  0.0381  0.2735
 9634W        W24765   8.871  11.203   0.262 -0.1639 -0.3139  0.1068
 9635W        W24766   3.732   2.173  13.034 -0.1149  0.0394  0.0786
 9636W        W24767  10.074  15.288  12.318 -0.0578  0.0443  0.1638
 9637W        W24768   6.964  10.282  10.746  0.0159 -0.1115  0.2378
 9638W        W24769  14.526   1.992   5.108  0.1991 -0.2022 -0.2508
 9639W        W24770  16.319   9.196  14.312 -0.1924  0.1638  0.0827
 9640W        W24771  15.366   1.415   5.515 -0.0063 -0.2508  0.3612
 9641W        W24772  17.214  14.844   0.290 -0.0354  0.3345 -0.3257
 9642W        W24773  17.236   5.009   3.204  0.1133 -0.1099  0.1464
 9643W        W24774   7.436   7.904   4.185  0.0516  0.2287  0.0877
 9644W        W24775  14.417  10.180   0.528 -0.2442 -0.1041 -0.0526
 9645W        W24776   9.611   5.267  15.260 -0.1419  0.0876  0.1466
 9646W        W24777  10.979   9.316   0.655  0.0255  0.3643  0.0071
 9647W        W24778   6.402   7.810   0.987  0.2013  0.2786  0.0619
 9648W        W24779   7.966  18.059   3.016 -0.2841  0.1413 -0.0338
 9649W        W24780   3.771   2.798  13.850  0.2978  0.1256  0.0358
 9650W        W24781   5.878   2.595  10.990  0.0575  0.3762 -0.1398
 9651W        W24782  11.353  13.741   2.139  0.1350  0.2605  0.0466
 9652W        W24783  11.720   6.217   2.253  0.1470 -0.0816 -0.0778
 9653W        W24784   3.940   4.048   0.744 -0.0330 -0.0209 -0.0724
 9654W        W24785   2.272   1.372  13.367  0.0445 -0.3963 -0.1235
 9655W        W24786   8.624  11.358  11.608 -0.0009 -0.0979 -0.1302
 9656W        W24787  17.744   9.772  14.763 -0.2320 -0.2523  0.1043
 9657W        W24788   6.547   9.666   4.399  0.0446  0.0899 -0.0520
 9658W        W24789   0.748   4.722  11.630 -0.0406  0.0404  0.1868
 9659W        W24790   6.835  17.454   0.900  0.1619 -0.0725 -0.0509
 9660W        W24791  12.085   7.290  15.759  0.1645 -0.1622  0.1704
 9661W        W24792   1.552   8.058   3.931  0.1101 -0.1561  0.1084
 9662W        W24793  10.387   6.907  13.796  0.0200  0.1356  0.2956
 9663W        W24794   1.359  17.258   3.538 -0.0091  0.3380  0.1328
 9664W        W24795  16.348  13.192  15.477  0.3273 -0.2132 -0.1133
 9665W        W24796   9.668   5.513   5.367 -0.0283  0.1628 -0.1108
 9666W        W24797  11.331  15.801  11.311 -0.3734 -0.1748 -0.1565
 9667W        W24798  13.785   8.189   2.258 -0.0635  0.1786 -0.0913
 9668W        W24799  17.956   0.104   1.540 -0.0950  0.4080 -0.0853
 9669W        W24800  16.455   4.197   0.624  0.1124 -0.3790 -0.2214
 9670W        W24801   7.574   0.977   4.116  0.2766 -0.3045  0.0789
 9671W        W24802   7.856   7.016  13.020 -0.3274 -0.3086 -0.1814
 9672W        W24803  10.160   0.041   4.297 -0.0578  0.0341 -0.1603
 9673W        W24804  17.831   6.772   1.420 -0.2010 -0.0261  0.1362
 9674W        W24805   9.640  11.426  12.674 -0.2173 -0.1945 -0.0333
 9675W        W24806  13.951   3.555   5.006  0.3126  0.4802 -0.0948
 9676W        W24807  14.450   8.041  14.656  0.1960  0.1458  0.1284
 9677W        W24808   6.925   7.816   1.251  0.0227  0.0502 -0.0944
 9678W        W24809   9.911   5.047  15.654  0.2064  0.1256 -0.0914
 9679W        W24810   2.754  14.588   1.573 -0.1277 -0.2565 -0.1620
 9680W        W24811  15.043  16.198   5.904 -0.0025 -0.1345  0.1285
 9681W        W24812   7.274  15.906   3.489 -0.3821 -0.2621  0.1076
 9682W        W24813   2.579  11.309  12.507  0.3646  0.0251  0.1333
 9683W        W24814  15.529  11.695  11.343 -0.1007 -0.0732 -0.1398
 9684W        W24815   6.235   4.200   0.740 -0.2646 -0.0349  0.0042
 9685W        W24816   8.737   6.090  12.229  0.0916  0.0633 -0.1303
 9686W        W24817   7.341   6.727   2.498 -0.3497  0.1776  0.1762
 9687W        W24818   3.695   4.103  13.765  0.1345  0.1177  0.2475
 9688W        W24819  16.947   6.262   4.226  0.2048  0.1051  0.0120
 9689W        W24820   4.187   7.681   1.482  0.1253  0.1004  0.0987
 9690W        W24821   7.686   7.506   0.961  0.3438 -0.3806 -0.0408
 9691W        W24822   2.952  14.507  14.632 -0.0525 -0.3057 -0.4222
 9692W        W24823   3.937  15.653   3.241 -0.2033 -0.0101  0.0348
 9693W        W24824   5.235   9.100   1.719  0.3470 -0.1512 -0.3424
 9694W        W24825  13.973   8.054   4.066 -0.0036 -0.2034 -0.2494
 9695W        W24826   1.789  10.161   4.436 -0.1592 -0.1473 -0.3039
 9696W        W24827   8.371   4.807   1.585  0.0039 -0.3878  0.0354
 9697W        W24828   1.942   0.323   5.321 -0.0989 -0.1596 -0.2649
 9698W        W24829  16.181   8.988   6.151  0.2466 -0.1288 -0.1345
 9699W        W24830   3.061   8.105   0.677 -0.1793 -0.1537  0.1980
 9700W        W24831  16.371  14.574  15.321 -0.0979 -0.1044 -0.2321
 9701W        W24832   7.067  17.954   5.503  0.2132 -0.1295  0.0439
 9702W        W24833  14.538   1.718   0.449  0.2936 -0.2837 -0.0887
 9703W        W24834   8.164   9.065  14.946 -0.0836 -0.2345 -0.2568
 9704W        W24835   7.724   8.610  13.261  0.2978 -0.2138 -0.1174
 9705W        W24836  12.592   5.463   1.014  0.1017  0.1632  0.1527
 9706W        W24837  14.058  14.093  12.643  0.0011  0.1891 -0.1751
 9707W        W24838  14.844   0.746  13.775 -0.1508 -0.1058  0.1654
 9708W        W24839  18.084   1.620   5.048 -0.0514 -0.0422  0.1449
 9709W        W24840   5.752  15.133  14.525 -0.0647  0.1277  0.1633
 9710W        W24841   0.018   4.991   2.891 -0.0113 -0.0891  0.0278
 9711W        W24842  10.288  15.398  10.834  0.2162 -0.0124  0.1758
 9712W        W24843  18.263  10.184  12.641 -0.0534  0.0453 -0.1641
 9713W        W24844  12.985  15.895  16.030  0.4879 -0.1728 -0.2389
 9714W        W24845  14.036  13.165  13.046 -0.1701  0.1149  0.1913
 9715W        W24846   4.194   4.522   0.639 -0.0214  0.3105 -0.0259
 9716W        W24847   6.995   3.532   1.427  0.0713 -0.0730 -0.1278
 9717W        W24848  15.492   7.210   3.789 -0.2296 -0.0286  0.0372
 9718W        W24849  14.725  14.116   0.250 -0.0983  0.0950 -0.1892
 9719W        W24850  16.915  16.630  13.963 -0.1465 -0.4082 -0.2793
 9720W        W24851   4.013   1.514   1.615  0.0434  0.1099  0.0786
 9721W        W24852  16.986   6.371   5.316  0.0597  0.0082 -0.0554
 9722W        W24853  14.181  15.660   2.248  0.1679  0.0748 -0.1242
 9723W        W24854  15.901  17.508  11.734 -0.0537  0.2296 -0.0019
 9724W        W24855  17.743   7.085  11.241  0.1673  0.0620 -0.1666
 9725W        W24856   1.189  17.884  14.565  0.0297 -0.0653 -0.1492
 9726W        W24857  12.581  16.965  12.676  0.2798  0.1976  0.0682
 9727W        W24858  12.919  11.641  11.326  0.0900 -0.2255 -0.2444
 9728W        W24859   2.722   5.781   1.334 -0.2839  0.0901 -0.0538
 9729W        W24860  16.821   9.345  14.097 -0.0628 -0.0652 -0.0144
 9730W        W24861  10.447  15.392   3.007 -0.0574  0.2560 -0.5751
 9731W        W24862   9.642  16.778   1.933 -0.1087  0.1670 -0.0131
 9732W        W24863   3.395   9.882  10.317 -0.1229  0.0846 -0.2868
 9733W        W24864  17.512   5.979  12.487 -0.1358 -0.0630  0.0464
 9734W        W24865  11.347   9.573   0.057  0.0794  0.2716 -0.5159
 9735W        W24866   4.757  10.301  14.152  0.2039  0.0361  0.2417
 9736W        W24867  17.819  10.438  13.714 -0.0666  0.1232  0.5220
 9737W        W24868   4.835   5.752  12.988 -0.2590 -0.2315  0.2032
 9738W        W24869   9.926  14.403  11.891  0.1030  0.0486  0.0213
 9739W        W24870  15.158   8.957   3.750  0.0537  0.0867  0.1766
 9740W        W24871  11.059  15.477  14.336 -0.2278 -0.2280 -0.0420
 9741W        W24872   7.765   0.783   1.186  0.2218 -0.0045 -0.2142
 9742W        W24873   2.612  13.155   0.768 -0.1794  0.1089  0.0394
 9743W        W24874   2.288  12.053   0.572 -0.0303  0.3502  0.0431
 9744W        W24875   8.252  17.635   2.614 -0.1471  0.3201 -0.0696
 9745W        W24876   2.068   7.166  13.452  0.1863 -0.2757 -0.2638
 9746W        W24877   2.034  10.830   3.734 -0.2521  0.0355 -0.0041
 9747W        W24878   7.686  10.281  10.287  0.1118  0.2970 -0.2853
 9748W        W24879   5.914   5.957  14.408  0.1455  0.1470 -0.2383
 9749W        W24880  15.423  11.524   3.473  0.0948 -0.3001  0.3032
 9750W        W24881   0.240   4.456  16.143 -0.0658  0.1517 -0.0703
 9751W        W24882  17.737  15.329   4.593  0.1272 -0.1763 -0.0045
 9752W        W24883   9.068   1.018   1.568  0.3350  0.0601  0.0589
 9753W        W24884   0.268   8.788   4.986  0.0680  0.0014 -0.0709
 9754W        W24885   9.670  13.242  15.000 -0.1577  0.0773 -0.0103
 9755W        W24886   8.910   1.164  12.028 -0.0663 -0.2262 -0.1706
 9756W        W24887  13.744  18.279  14.296 -0.1809  0.1142 -0.0453
 9757W        W24888  15.425  12.639  15.086  0.0417  0.0066  0.0337
 9758W        W24889  16.285   6.533   3.536 -0.5802  0.2177  0.0938
 9759W        W24890   3.361   5.166  13.034 -0.1564  0.3151  0.0470
 9760W        W24891  17.487   6.203   2.985 -0.3612  0.0494 -0.0135
 9761W        W24892  14.234   4.389  13.197 -0.2514  0.1336  0.0057
 9762W        W24893   5.350  13.259  12.513 -0.3105  0.0724  0.1563
 9763W        W24894   1.660  14.506   5.849  0.1700 -0.2442  0.3242
 9764W        W24895   5.997   4.847  14.423  0.3856  0.0890  0.2643
 9765W        W24896   2.780   5.121  12.407 -0.0594 -0.1533  0.2307
 9766W        W24897   2.969  11.954  13.636 -0.1426 -0.2398  0.1242
 9767W        W24898  18.326   8.556  14.271 -0.0993 -0.1070 -0.0587
 9768W        W24899  10.474   7.289  11.589  0.2929  0.0190  0.2855
 9769W        W24900   3.127  10.235   4.960  0.0562 -0.1427  0.0546
 9770W        W24901   9.559  12.836   9.885 -0.0806 -0.1867  0.0452
 9771W        W24902  12.697  13.711   4.749  0.2160  0.1487  0.1352
 9772W        W24903  11.323   2.743   5.353 -0.2085  0.2019 -0.1078
 9773W        W24904   2.257  17.720   1.216 -0.0604  0.1604  0.1724
 9774W        W24905   3.748  12.282   2.980  0.1796  0.2485 -0.1118
 9775W        W24906  16.456   0.332  11.782  0.3197  0.2613 -0.0197
 9776W        W24907  12.819  16.193   5.091  0.1807 -0.3941  0.0486
 9777W        W24908   6.791   2.228  15.445 -0.1869  0.2342  0.2499
 9778W        W24909  11.073   8.363   1.969  0.0718 -0.1278  0.0522
 9779W        W24910  15.462   2.844  12.957 -0.0298  0.1296 -0.1462
 9780W        W24911  11.775   0.955   3.246  0.1011 -0.0316  0.1275
 9781W        W24912   2.393   5.937  14.239 -0.1653  0.1134 -0.1134
 9782W        W24913  14.681   8.128   3.932  0.1343 -0.1226  0.3599
 9783W        W24914  18.055   8.144  12.080  0.0673 -0.0499 -0.0923
 9784W        W24915   0.007   4.315   2.164 -0.3590 -0.1424 -0.1824
 9785W        W24916   4.499   1.782   6.269 -0.0096  0.1844  0.1387
 9786W        W24917  18.148  13.877   4.290  0.0470 -0.1955  0.0937
 9787W        W24918  13.762   8.542   3.216 -0.2844 -0.0866  0.2255
 9788W        W24919   6.775   9.590   3.516  0.0261 -0.3467 -0.0247
 9789W        W24920   1.670   3.773   5.699  0.1157 -0.0554  0.1278
 9790W        W24921   4.188  12.182   2.821 -0.3524  0.1142  0.1276
 9791W        W24922   5.491  16.156   2.830 -0.1480  0.4041  0.2491
 9792W        W24923   3.993  16.805  15.921 -0.2560  0.1475 -0.2310
 9793W        W24924  15.972   3.393   2.343  0.4818 -0.2270  0.1824
 9794W        W24925   3.998  11.474  15.988  0.0410  0.0144 -0.2097
 9795W        W24926   0.760  11.791  13.502 -0.0989 -0.0630 -0.1703
 9796W        W24927   3.157  14.206   3.244  0.2269  0.1665  0.0034
 9797W        W24928   8.025  10.746   3.909 -0.1705 -0.0694 -0.0587
 9798W        W24929   7.313   7.814  16.080 -0.1727 -0.3313 -0.0447
 9799W        W24930   3.807  10.137  13.061 -0.2596 -0.1598  0.1509
 9800W        W24931   3.055  18.270   1.700 -0.0532 -0.1867  0.2112
 9801W        W24932   7.630  15.937   9.894  0.2770  0.0468  0.0985
 9802W        W24933   9.891  13.175  14.067  0.1936  0.1494 -0.0085
 9803W        W24934   5.857   2.228  12.235  0.0551 -0.1714 -0.2806
 9804W        W24935   2.932   5.075   2.774 -0.0668 -0.0451 -0.4302
 9805W        W24936   4.865  12.972   2.883 -0.1175  0.2856 -0.1452
 9806W        W24937  12.313  10.572   4.745  0.0557  0.5277 -0.3421
 9807W        W24938   1.922   1.764   0.547 -0.0641 -0.0847 -0.1048
 9808W        W24939   6.071   0.214   4.906  0.0299  0.0916 -0.3635
 9809W        W24940   5.442   5.611   3.868 -0.3585 -0.2788  0.0837
 9810W        W24941   3.617  11.505   4.683  0.0135  0.1009 -0.0331
 9811W        W24942   3.094   8.777  16.074 -0.1214 -0.0657  0.3945
 9812W        W24943   1.604  18.280   4.538 -0.1624 -0.0461 -0.1923
 9813W        W24944   2.327  15.618   2.838  0.4130  0.0883  0.1401
 9814W        W24945  17.419   5.947  13.434 -0.4169  0.2134  0.0208
 9815W        W24946   9.236   5.953   0.870 -0.1933 -0.1769 -0.1606
 9816W        W24947   3.044   2.388   5.683  0.1039 -0.2215 -0.1532
 9817W        W24948   7.611  17.481   0.660  0.1381  0.0189 -0.1185
 9818W        W24949   6.381   4.084   5.045 -0.1524 -0.1133  0.0372
 9819W        W24950  11.666   8.368  12.091  0.2249 -0.1869 -0.2683
 9820W        W24951   9.833  13.448   1.157 -0.1852  0.0505  0.4104
 9821W        W24952   5.081   2.471   1.011  0.1467  0.0862 -0.0610
 9822W        W24953  14.923  10.403  14.398  0.3319  0.1666  0.1846
 9823W        W24954   9.875   2.943   0.111 -0.1331  0.2231  0.0323
 9824W        W24955   8.419  14.179   2.508 -0.2660 -0.3435  0.0976
 9825W        W24956   4.848   3.479  15.327  0.3175  0.0934 -0.2016
 9826W        W24957   2.560  16.924  13.554 -0.1392 -0.1385  0.1620
 9827W        W24958   2.627  11.687  15.084  0.4642  0.1187 -0.3568
 9828W        W24959   7.144  18.194  14.382 -0.0448  0.1185 -0.1513
 9829W        W24960  15.767  18.181   0.153 -0.1822  0.0079 -0.0005
 9830W        W24961  17.538   3.144   1.970 -0.0932 -0.2994  0.0335
 9831W        W24962  14.171  14.814  12.946  0.3100  0.0072 -0.0037
 9832W        W24963  13.518   5.629  14.980  0.2417 -0.1806 -0.1370
 9833W        W24964   9.149   4.444   3.766  0.0808 -0.1357 -0.1008
 9834W        W24965   9.359   7.193   1.628  0.2027  0.0109 -0.4057
 9835W        W24966   8.320  10.716  11.756  0.0804  0.3630 -0.3598
 9836W        W24967   6.963  10.959   4.828 -0.0558 -0.3434 -0.1966
 9837W        W24968  16.863  12.823   2.078  0.0435 -0.1939  0.1479
 9838W        W24969   3.217   2.223  14.424  0.0457  0.1373 -0.3831
 9839W        W24970  13.199  14.905   2.002 -0.1918  0.0524 -0.0004
 9840W        W24971  12.879  17.294  13.458 -0.2123  0.1287  0.2162
 9841W        W24972   7.171   3.330   3.289  0.1257 -0.1946  0.0779
 9842W        W24973   5.417   1.814  10.451 -0.0751 -0.0642  0.2134
 9843W        W24974  10.743   7.060   0.965 -0.0590 -0.0170  0.2769
 9844W        W24975  18.034  15.054   4.920 -0.1617  0.0703 -0.1827
 9845W        W24976   7.065  14.575   0.205  0.1492  0.2111  0.0716
 9846W        W24977   6.221   1.613  10.769 -0.1651 -0.0079 -0.3405
 9847W        W24978   1.087   4.026   3.622 -0.1451  0.0981 -0.0995
 9848W        W24979  10.799  11.409  13.978  0.3103  0.0858  0.1893
 9849W        W24980  13.281   3.291   3.256 -0.0158  0.0064 -0.2583
 9850W        W24981  13.847   7.040   9.694  0.3443 -0.1752  0.1085
 9851W        W24982  15.185   1.683  15.071 -0.2165  0.1489 -0.0846
 9852W        W24983   4.255   5.537  12.293  0.1681  0.0144  0.0353
 9853W        W24984   8.674   6.737   2.174  0.0503  0.0466 -0.3771
 9854W        W24985  16.058  10.788   2.365 -0.3562 -0.2342 -0.2460
 9855W        W24986  11.040  13.705  13.925  0.1585 -0.2617  0.3183
 9856W        W24987  17.008  17.920   2.822 -0.1012  0.1306 -0.0701
 9857W        W24988  17.450   4.530   1.609 -0.3684  0.1255 -0.2915
 9858W        W24989  16.292   9.056   1.004 -0.1518  0.1827  0.1399
 9859W        W24990  14.903   2.850   3.089  0.0202  0.1549 -0.2299
 9860W        W24991  11.819  12.232   4.327  0.0973 -0.1964 -0.1323
 9861W        W24992  10.865   8.055   1.612  0.1538 -0.1381  0.1242
 9862W        W24993  17.674  10.743   4.360 -0.0549 -0.1471  0.1530
 9863W        W24994  16.667  12.154   0.147  0.2187  0.2596 -0.0299
 9864W        W24995  15.329   2.535   1.439  0.0230  0.0617  0.3301
 9865W        W24996  12.754  17.752   2.707 -0.3534 -0.0950  0.3595
 9866W        W24997  16.207   7.994  10.753  0.0759 -0.4708  0.0155
 9867W        W24998  14.898   5.137   2.480 -0.1571 -0.0477  0.0441
 9868W        W24999   9.144  10.856   4.239  0.4299 -0.1915 -0.0394
 9869W        W25000   6.268  10.219  15.637  0.3452 -0.0685 -0.0088
 9870W        W25001   1.913  11.307  13.049  0.2882  0.1736  0.0674
 9871W        W25002   2.981   2.894   5.792 -0.2463  0.1865  0.0386
 9872W        W25003  14.335  14.863  15.960 -0.1341 -0.3596  0.1008
 9873W        W25004  11.289   3.627  13.351  0.1281  0.0760 -0.0188
 9874W        W25005   3.590   8.386   3.799 -0.1880 -0.0598 -0.0790
 9875W        W25006  15.892  15.216  11.570 -0.1491  0.2663  0.2105
 9876W        W25007   1.770   2.627   4.064  0.2450  0.2048  0.0293
 9877W        W25008  16.429   9.579   2.836  0.3393  0.0299 -0.1600
 9878W        W25009   1.657  14.857  15.778  0.0417  0.1044  0.1694
 9879W        W25010  18.025   9.436  15.899  0.1394 -0.3540  0.1986
 9880W        W25011   6.877  11.968   3.966  0.1355 -0.1630 -0.0948
 9881W        W25012  12.750  12.022  12.196  0.0705  0.1323  0.0612
 9882W        W25013   1.445   3.855  12.802  0.2313  0.2129  0.0661
 9883W        W25014  12.714   6.943   5.218  0.0488 -0.0110  0.1354
 9884W        W25015   6.489  15.566  11.427  0.4826  0.0957  0.0382
 9885W        W25016  13.625   1.273   1.938 -0.0306 -0.1134  0.0189
 9886W        W25017  14.536   5.828   4.477 -0.2863  0.0527 -0.0944
 9887W        W25018  12.898  17.288   5.798 -0.2412 -0.1178 -0.1562
 9888W        W25019   1.668  12.445   3.377 -0.0752  0.1064  0.0873
 9889W        W25020   3.486  14.535  14.199 -0.0538  0.1942 -0.1916
 9890W        W25021   3.661  11.964   4.918 -0.2184  0.3569  0.0124
 9891W        W25022  15.543  14.838   0.923  0.3332 -0.0147 -0.0983
 9892W        W25023  11.157  15.390   2.200 -0.2092 -0.3172  0.0929
 9893W        W25024   6.761  11.282   0.198 -0.1781 -0.2993 -0.1668
 9894W        W25025   1.458   4.482   4.008  0.2647 -0.0953  0.0312
 9895W        W25026   9.997  18.220  11.734  0.1857  0.2203  0.2022
 9896W        W25027  15.079  16.198  13.749 -0.0068 -0.2343  0.3745
 9897W        W25028  16.498  13.698   4.873  0.2780  0.0993 -0.1256
 9898W        W25029   9.703   4.252   1.655 -0.0134  0.2547  0.0685
 9899W        W25030  14.650  17.062   1.787  0.0302 -0.3103  0.1427
 9900W        W25031  13.409  13.962  11.459 -0.0262 -0.0164 -0.1072
 9901W        W25032  14.970  10.148   6.341 -0.2279 -0.0375  0.0607
 9902W        W25033   2.633   6.844   2.879 -0.0792 -0.1948  0.2552
 9903W        W25034   7.876   5.399  12.754 -0.3302 -0.0192 -0.0223
 9904W        W25035  17.969  16.165  11.213 -0.1070 -0.2353  0.0537
 9905W        W25036   7.692   1.649   2.584  0.3295 -0.0071 -0.0458
 9906W        W25037  13.302  11.934  11.118 -0.1749 -0.0360  0.1095
 9907W        W25038  17.482   8.110  10.129  0.0156  0.3829  0.0846
 9908W        W25039  15.503   7.282   4.553 -0.0197  0.1426 -0.1233
 9909W        W25040   3.808   7.053   0.333  0.0575  0.2279 -0.1439
 9910W        W25041  11.135  12.310  11.858 -0.0691 -0.0554  0.0842
 9911W        W25042   3.467  12.081  13.482 -0.1751  0.3070 -0.3033
 9912W        W25043  13.904   8.457  13.410 -0.3910  0.0022  0.1852
 9913W        W25044   6.464  12.101   1.164  0.6892  0.0050 -0.2334
 9914W        W25045   7.877  11.729   3.794 -0.0087  0.0782  0.0785
 9915W        W25046  17.547   3.127  11.673 -0.3590  0.2304  0.1985
 9916W        W25047  10.992  13.595   1.761  0.1029 -0.1435 -0.1608
 9917W        W25048   4.731   3.497   0.155  0.0747  0.0139 -0.0655
 9918W        W25049  15.728  10.782   3.022 -0.2969  0.3007  0.1002
 9919W        W25050  18.034  17.955  14.478  0.1788 -0.1455 -0.2622
 9920W        W25051   0.616  13.053  13.070 -0.1693 -0.3053  0.3214
 9921W        W25052  13.580   9.757  14.819  0.2069  0.2297  0.0676
 9922W        W25053  15.114   5.585  13.812  0.2600  0.2179 -0.0480
 9923W        W25054   4.443  16.412  15.957  0.0478 -0.1107  0.2876
 9924W        W25055   6.036   5.156  14.843 -0.0262 -0.2126 -0.1025
 9925W        W25056   2.529  11.559   2.475  0.0697  0.3049  0.0455
 9926W        W25057   0.265   9.909  12.433 -0.0669 -0.1551  0.0428
 9927W        W25058   9.044   3.674   6.293  0.2648  0.5648 -0.0110
 9928W        W25059  11.126  11.737   6.111  0.3316  0.0636 -0.3145
 9929W        W25060   8.542   3.082  12.408 -0.0196  0.0819 -0.0892
 9930W        W25061  16.292  11.926  14.933 -0.4591  0.0007 -0.0650
 9931W        W25062   3.589  10.315  10.410  0.1023  0.0167 -0.2188
 9932W        W25063   8.839   5.419  14.894  0.3609 -0.0727  0.0935
 9933W        W25064  13.643  13.201  11.802 -0.1214  0.1637  0.0886
 9934W        W25065   7.965  13.290   4.451 -0.1852 -0.2228  0.2035
 9935W        W25066   2.757  15.381  16.061 -0.1561 -0.3270 -0.1959
 9936W        W25067   6.169   3.087  15.437  0.3579  0.3265  0.0962
 9937W        W25068   2.657  10.769  14.602  0.0418 -0.0264 -0.1627
 9938W        W25069   5.872  17.204   4.997 -0.2040 -0.0943  0.0275
 9939W        W25070  14.345  15.683   4.885 -0.1914 -0.1851 -0.2316
 9940W        W25071   3.919  10.935  15.834 -0.2488 -0.0820 -0.0704
 9941W        W25072   9.092   8.636   4.059 -0.1637  0.0877  0.0086
 9942W        W25073  17.462   0.595   0.012  0.2557  0.1625  0.0140
 9943W        W25074  11.514  11.788  11.784 -0.2356 -0.2767 -0.4224
 9944W        W25075   6.917   7.041  14.528 -0.0971  0.1860  0.2667
 9945W        W25076  17.629   7.287   4.033 -0.0682 -0.2627  0.0303
 9946W        W25077  15.790   6.371  14.992  0.0150 -0.2853 -0.2419
 9947W        W25078  10.729  13.971  10.465  0.0300  0.1834  0.3740
 9948W        W25079   5.837   3.954   4.577 -0.2014 -0.2428  0.3238
 9949W        W25080  17.879   3.768  12.338  0.0395  0.0584 -0.1922
 9950W        W25081  17.064   8.119   4.513  0.3118 -0.0028 -0.0867
 9951W        W25082   9.532   3.644   2.433 -0.0167 -0.0868 -0.3448
 9952W        W25083   3.254   0.058  11.410 -0.0100 -0.1957 -0.1025
 9953W        W25084  10.353  10.333   6.009 -0.0339 -0.1392 -0.1795
 9954W        W25085   9.933  13.940  10.976  0.1808 -0.4367 -0.3251
 9955W        W25086   1.273   1.327   4.706 -0.0468  0.0445 -0.2168
 9956W        W25087  16.190   0.770  13.646  0.1307  0.0581  0.0352
 9957W        W25088   5.967  18.121   2.243 -0.1827  0.2062 -0.1402
 9958W        W25089  15.436  12.432   1.464 -0.0799 -0.0178 -0.2940
 9959W        W25090  13.824  16.420   3.403  0.0964  0.0228  0.1067
 9960W        W25091   0.158   5.569   9.969  0.0824 -0.1213  0.2363
 9961W        W25092  13.448   7.536   4.753 -0.1575 -0.1166 -0.2582
 9962W        W25093  16.202   6.323   1.485  0.0300  0.3306  0.0475
 9963W        W25094   7.517   3.840  12.387 -0.0267  0.1520  0.0411
 9964W        W25095  16.756   7.616   4.495  0.0615 -0.4017 -0.0889
 9965W        W25096   1.113  11.701  12.996  0.0394 -0.0318 -0.0305
 9966W        W25097   9.314  13.328  13.940  0.1597 -0.1512  0.0400
 9967W        W25098  12.337  12.579  13.548  0.0133 -0.2456 -0.1891
 9968W        W25099   7.394  17.384   5.949 -0.2853 -0.2919 -0.0569
 9969W        W25100   4.372  14.441  16.005 -0.0215 -0.0712  0.0170
 9970W        W25101   5.811   7.008   0.809  0.1080 -0.1575 -0.2271
 9971W        W25102   4.219   6.404  12.488  0.0514 -0.1730  0.0638
 9972W        W25103  14.240   2.616   0.895 -0.1152 -0.1600  0.1213
 9973W        W25104  15.876  17.120  13.016  0.3593  0.2908  0.2889
 9974W        W25105  14.833   9.420   0.798  0.1264  0.0392  0.2520
 9975W        W25106   3.081   0.986   4.671 -0.0800 -0.0507  0.0119
 9976W        W25107   7.118  11.987   2.687 -0.0164 -0.0014  0.0903
 9977W        W25108  12.836  18.168   5.275 -0.0357  0.3239  0.2211
 9978W        W25109  10.229  14.105  12.280  0.2660 -0.0250 -0.2732
 9979W        W25110   2.214  15.539   3.376 -0.0896  0.1911 -0.1054
 9980W        W25111   9.308   0.552   2.872 -0.3129 -0.0720  0.1009
 9981W        W25112   5.919   7.222   2.630 -0.0440 -0.2465  0.1558
 9982W        W25113   1.220   9.689   2.436 -0.0619 -0.3425 -0.3629
 9983W        W25114   2.704   5.582   4.691 -0.0299  0.0605 -0.3336
 9984W        W25115   2.882   9.791  10.358  0.0029  0.1549  0.0646
 9985W        W25116   1.779   5.752   3.311 -0.0914  0.0351  0.3764
 9986W        W25117   9.436  17.319  11.361 -0.2530 -0.0163 -0.2405
 9987W        W25118   1.762   7.238   0.254 -0.0003 -0.0292 -0.0295
 9988W        W25119  14.694   1.877   0.996 -0.3342  0.2980  0.0211
 9989W        W25120   0.776  12.734  12.124  0.0378  0.2489  0.3239
 9990W        W25121   7.344   4.257   1.018  0.1393 -0.0639  0.0262
 9991W        W25122   1.195   5.713  14.113 -0.0740  0.1800  0.0723
 9992W        W25123   4.968  10.032  13.627 -0.0876  0.0352 -0.1374
 9993W        W25124  15.196   3.414   0.187 -0.1544  0.1098 -0.1171
 9994W        W25125  14.323   0.584  15.307  0.5196  0.0252 -0.2086
 9995W        W25126  17.813   6.843   3.021 -0.0135  0.0685 -0.3747
 9996W        W25127  14.010  16.829  14.732  0.3097  0.1059  0.0290
 9997W        W25128  18.295   6.848   5.570  0.2814 -0.2342 -0.1160
 9998W        W25129   5.688  17.289   2.051  0.0562  0.3635  0.1203
 9999W        W25130   0.637  15.845   2.245  0.0055  0.1887 -0.0057
10000W        W25131  17.930   0.751   0.255 -0.2506  0.2918 -0.0593
10001W        W25132   4.791  11.153  15.359 -0.2436 -0.0277  0.1225
10002W        W25133  14.814   1.065  11.040  0.2561 -0.0791  0.0994
10003W        W25134   7.679   1.525   3.932  0.2156  0.1129  0.0813
10004W        W25135  15.243   1.826   4.749  0.3939 -0.1908 -0.0364
10005W        W25136   0.502   4.922   2.983  0.3905 -0.1078  0.2627
10006W        W25137  16.717   3.813   0.737  0.1898 -0.1442 -0.0119
10007W        W25138   9.551   0.569   4.022  0.2645 -0.1203  0.3145
10008W        W25139   9.211  18.000  11.754  0.0496  0.0161  0.0448
10009W        W25140  10.008   5.711  12.141  0.0744  0.0751 -0.3211
10010W        W25141  14.809   4.877   3.405 -0.1265  0.2953  0.1250
10011W        W25142  15.599   0.492   1.125 -0.1761 -0.2133  0.0327
10012W        W25143  18.252  17.951   2.380 -0.0896  0.3064  0.0445
10013W        W25144   7.633  17.632  12.694 -0.0716  0.1571  0.2746
10014W        W25145  17.919  11.166  13.839  0.1910  0.0636  0.1062
10015W        W25146  11.767  16.939  15.854 -0.2277  0.1048 -0.3466
10016W        W25147  15.470  15.155   0.236 -0.1354  0.1209 -0.1412
10017W        W25148  14.329  13.338  10.352 -0.0158  0.1568  0.0555
10018W        W25149   1.196   2.577   4.773  0.0989  0.0680  0.0380
10019W        W25150   4.804   6.274  11.361 -0.3865 -0.0550  0.3186
10020W        W25151  16.057   0.208   3.817 -0.0911 -0.2013 -0.3317
10021W        W25152  14.405   4.728  15.897 -0.4027  0.0260 -0.1400
10022W        W25153   6.468   7.455  15.517 -0.2623 -0.2894 -0.3785
10023W        W25154   4.112   9.526   2.472  0.0667 -0.0919 -0.1934
10024W        W25155  17.559   8.425   5.312 -0.2220 -0.1669  0.1202
10025W        W25156   8.099   7.178   2.811  0.2866  0.1428  0.2684
10026W        W25157  13.963   2.159  14.410  0.0540  0.0400 -0.2203
10027W        W25158  12.853  18.074   2.300 -0.3699 -0.4363 -0.0175
10028W        W25159   7.201   3.627  12.722 -0.2310  0.3154 -0.3617
10029W        W25160   4.173   0.925  14.895 -0.3433 -0.1177 -0.2297
10030W        W25161   3.567   6.111   1.473  0.1845  0.0174  0.0196
10031W        W25162   1.372   3.707   0.886  0.0278  0.2003 -0.0744
10032W        W25163  17.527   6.998   4.668 -0.1242 -0.2780 -0.3923
10033W        W25164   5.371  13.274   5.833  0.1042 -0.0960  0.0085
10034W        W25165   2.513   5.019  14.168  0.0660 -0.1900  0.3439
10035W        W25166   2.479  13.702   0.797  0.1665 -0.5379  0.1002
10036W        W25167  10.247  16.336   4.178  0.2441 -0.1148  0.1354
10037W        W25168  17.377   2.139  14.951  0.0434  0.1050 -0.0775
10038W        W25169  16.634  17.409  15.210  0.2711 -0.1300 -0.0859
10039W        W25170  12.916   9.088  11.569 -0.2475 -0.0780 -0.0526
10040W        W25171   0.064  14.624   4.285 -0.1175  0.0391  0.0076
10041W        W25172  14.304   2.127  14.832  0.2184  0.0010 -0.1708
10042W        W25173  12.617  15.201   2.080  0.1928 -0.0758  0.1605
10043W        W25174   8.024   3.949  12.209 -0.0331  0.1681 -0.3063
10044W        W25175  11.317  17.976  12.332 -0.0783  0.1228 -0.3978
10045W        W25176  12.974  11.306   4.637  0.2458  0.2029  0.0549
10046W        W25177   0.926  12.620  14.167  0.0095  0.0023 -0.0085
10047W        W25178  11.829   3.445   2.999 -0.0257 -0.2741  0.0864
10048W        W25179  12.193   4.954  13.066  0.1155  0.0328 -0.0155
10049W        W25180   6.340   8.833   1.116 -0.1562  0.0274  0.0365
10050W        W25181  12.354   5.171   3.222  0.1928  0.2279 -0.2066
10051W        W25182   0.319  17.849   6.098  0.0171  0.0377 -0.0299
10052W        W25183  11.053  13.199  13.761  0.0402 -0.1809 -0.1158
10053W        W25184  14.875   4.916  15.400 -0.1566  0.0234  0.5166
10054W        W25185   6.663   9.685  16.028  0.1965 -0.0034 -0.3979
10055W        W25186  13.590  14.208  15.169  0.1924 -0.0548 -0.2180
10056W        W25187  13.495   6.696   1.998  0.0352  0.0789  0.3081
10057W        W25188  16.871   5.000  15.701 -0.1425 -0.1372  0.2637
10058W        W25189  10.739   7.508  15.486  0.2490  0.0383 -0.2093
10059W        W25190   2.099   9.429   0.619  0.2133 -0.0330  0.0770
10060W        W25191  13.302  11.447  10.828 -0.3404 -0.4470 -0.2529
10061W        W25192  13.511   0.930   0.047  0.1044 -0.3727  0.0420
10062W        W25193   2.279  10.467  12.620  0.1821  0.1498 -0.4030
10063W        W25194  17.103   9.234  14.470  0.2054  0.1462 -0.0687
10064W        W25195  17.263  12.826   1.138 -0.1796 -0.0730  0.1508
10065W        W25196  11.832  10.513   0.337  0.1492 -0.0592 -0.0862
10066W        W25197   9.073   8.518   0.394 -0.0129 -0.1843  0.0144
10067W        W25198  12.135  15.444   4.119  0.0281  0.1591  0.1706
10068W        W25199   1.710  12.991   3.351 -0.5322 -0.0164  0.0178
10069W        W25200   2.694  15.695   1.320 -0.1084  0.0982  0.3891
10070W        W25201   6.027   1.557   0.989 -0.2591  0.1730  0.0154
10071W        W25202   0.577  13.684   1.708 -0.2690 -0.0319 -0.2499
10072W        W25203  15.065  11.794   3.778 -0.1702 -0.3224 -0.1206
10073W        W25204   2.564  14.704  15.523  0.0555  0.1039 -0.1124
10074W        W25205   8.200  16.946  11.705  0.1156  0.0044  0.0563
10075W        W25206  12.538   1.534   1.443 -0.1087 -0.2069  0.3281
10076W        W25207   0.384   1.864  14.763 -0.0147 -0.0644  0.0002
10077W        W25208   5.907   6.408   0.836  0.1116  0.1807  0.4458
10078W        W25209   0.995  10.548   0.428 -0.2908 -0.2294  0.0364
10079W        W25210  16.947   8.695  13.182  0.0006 -0.1587  0.0250
10080W        W25211   4.517   6.515   2.871 -0.3273 -0.0919 -0.0861
10081W        W25212   6.074   8.966  14.541  0.1467 -0.1398 -0.0195
10082W        W25213  17.429  17.176   2.870  0.1981  0.1729 -0.1712
10083W        W25214  14.219   8.458   0.781  0.1577  0.3607  0.0263
10084W        W25215   8.771  10.961   1.107  0.1251  0.0553 -0.2603
10085W        W25216  16.736   8.283  13.545  0.1692  0.0618 -0.1103
10086W        W25217   7.799  17.582   2.915  0.1073 -0.0218  0.2134
10087W        W25218   0.932  11.905   4.797 -0.3127  0.0794 -0.0789
10088W        W25219   7.067  14.246   0.969  0.1112 -0.0970  0.2310
10089W        W25220   7.102   4.905   0.226 -0.4171  0.2665  0.1501
10090W        W25221   8.528   5.363  16.066 -0.0807 -0.3245 -0.1439
10091W        W25222  17.352   4.057   5.024 -0.2372 -0.0755  0.0264
10092W        W25223  14.676  10.521  15.750  0.1077 -0.1740  0.1445
10093W        W25224  11.079   9.714  15.274  0.0158  0.1234  0.0564
10094W        W25225   0.076  12.904   5.586  0.0276 -0.1436  0.0105
10095W        W25226   9.768  10.575   0.191  0.1089 -0.0879  0.2790
10096W        W25227   7.590  11.643  11.471 -0.1180 -0.1340 -0.1582
10097W        W25228  15.459  15.449   1.989 -0.2871 -0.0159 -0.1243
10098W        W25229   3.485   1.804  11.365 -0.2496 -0.1203  0.0140
10099W        W25230   1.824   1.424   4.005  0.3453 -0.0112 -0.5308
10100W        W25231  12.567  11.793   1.833 -0.1658 -0.1965  0.0932
10101W        W25232  11.098   0.985   5.657  0.0264 -0.4523  0.0053
10102W        W25233  15.662   5.276   5.471  0.0140  0.0969 -0.1533
10103W        W25234   2.480  13.396   1.168  0.1480  0.0672  0.0415
10104W        W25235  15.353  11.792   1.182  0.0107  0.1224 -0.2991
10105W        W25236  17.207  18.188   3.862  0.0323  0.1458 -0.3576
10106W        W25237   4.507   7.979   3.503 -0.1972 -0.1051  0.3072
10107W        W25238  12.427   7.344   0.954 -0.0150 -0.2848  0.1007
10108W        W25239  12.656  17.643  13.737  0.1071 -0.1229 -0.0989
10109W        W25240  14.836   9.106   1.885  0.0642 -0.3173  0.2975
10110W        W25241   6.124   6.548   3.746  0.1421 -0.2190 -0.0536
10111W        W25242  15.021   5.288   3.793 -0.2170 -0.0916  0.1014
10112W        W25243  14.383  17.734   5.174  0.2514 -0.2766 -0.2884
10113W        W25244   0.186   9.443  15.098  0.0313  0.0172 -0.1408
10114W        W25245  11.389  14.804  11.656  0.2364 -0.2027  0.0692
10115W        W25246  10.850   5.452  15.630  0.2697  0.0236  0.1376
10116W        W25247   2.870   1.024   5.370 -0.0900 -0.0575  0.2163
10117W        W25248   5.912   1.027  11.437  0.0006 -0.1677 -0.0692
10118W        W25249   7.394   0.182  13.316 -0.1226 -0.0037 -0.1137
10119W        W25250  17.108   6.079   1.589 -0.0793  0.1333 -0.1345
10120W        W25251   3.772  16.669   0.305  0.3548  0.1209  0.4683
10121W        W25252   4.764  12.281  16.093 -0.1260  0.3117  0.0556
10122W        W25253  12.425  13.281   0.779 -0.0395  0.1069 -0.0911
10123W        W25254   5.192  14.322   1.115  0.1364  0.3932  0.0131
10124W        W25255   0.749   2.246   3.188 -0.0524 -0.1379  0.1523
10125W        W25256  13.960   3.476  14.866  0.1325  0.0826 -0.2747
10126W        W25257  11.594  12.401   3.410  0.2275  0.0100  0.2161
10127W        W25258   3.752  11.901  12.605 -0.2172  0.1546 -0.1590
10128W        W25259   9.906   6.532   1.819  0.1604  0.2260  0.0026
10129W        W25260  12.746   3.416  10.990 -0.1059 -0.0544  0.0051
10130W        W25261  12.132  12.566  12.764 -0.1210 -0.0041  0.4363
10131W        W25262  13.403   0.422  13.461  0.2838 -0.0714 -0.1336
10132W        W25263   0.143   4.125   0.976 -0.1331 -0.2634  0.0371
10133W        W25264  13.941   3.665  12.271 -0.0235  0.3226 -0.2394
10134W        W25265   1.618  11.386   0.488  0.0954 -0.0026  0.1457
10135W        W25266   6.333   0.230  11.981 -0.1722 -0.1911 -0.0551
10136W        W25267  15.159   3.418  14.430  0.0970 -0.2246  0.1411
10137W        W25268   5.286  18.228  15.889 -0.3085 -0.0160  0.3025
10138W        W25269  17.016   0.071   2.844  0.3706 -0.1579 -0.1323
10139W        W25270  18.330  10.717   3.269 -0.0434  0.1694 -0.0732
10140W        W25271   0.650   9.213  15.941 -0.2211 -0.2689  0.0498
10141W        W25272  12.581  15.679  15.825  0.1440 -0.0238 -0.0178
10142W        W25273  13.022  16.265   0.282 -0.2546  0.0634 -0.0073
10143W        W25274  17.465  10.523  14.118  0.2121 -0.4263  0.2689
10144W        W25275   6.474   1.152   0.280 -0.0492  0.0924  0.2040
10145W        W25276   0.284  11.887   2.645  0.0808  0.0792  0.0357
10146W        W25277  10.463   0.392   3.337  0.2428  0.1627  0.0040
10147W        W25278  14.644   8.764  12.960  0.0661 -0.0162 -0.2171
10148W        W25279  13.746  17.603   0.834 -0.2795 -0.0780  0.3023
10149W        W25280  11.520   7.266  11.084 -0.2273 -0.1837  0.1035
10150W        W25281   0.509   5.993  13.110 -0.0245 -0.1740 -0.1423
10151W        W25282  12.099   4.275  11.925 -0.2320 -0.0060 -0.0548
10152W        W25283  12.126  12.813  15.628 -0.0117 -0.1104  0.0288
10153W        W25284   2.661   6.290  13.344 -0.3353 -0.0545 -0.2354
10154W        W25285  13.141   2.136   4.027  0.3233  0.1157  0.0932
10155W        W25286   9.281  18.325   4.884  0.0358  0.0201 -0.4630
10156W        W25287   4.142   5.679  10.101  0.0039 -0.0690 -0.1105
10157W        W25288  18.302  11.838   4.838 -0.2513 -0.2441  0.0765
10158W        W25289   4.576   1.646   0.283  0.0470 -0.0784 -0.0533
10159W        W25290  13.723   7.169   3.908  0.2660 -0.0330 -0.0756
10160W        W25291   4.543  13.734   3.445  0.0669  0.1590  0.0623
10161W        W25292   2.802  15.639   4.035 -0.3140  0.1698 -0.0907
10162W        W25293  15.514  15.499  14.549  0.1368  0.0210  0.4278
10163W        W25294   1.867  10.916   0.300 -0.0644 -0.2117  0.3760
10164W        W25295   4.862  16.730   0.587 -0.2108 -0.3314 -0.0937
10165W        W25296  15.179   9.841   3.663 -0.0531 -0.2376  0.2221
10166W        W25297   7.073  14.797   5.059 -0.0788  0.0786 -0.0195
10167W        W25298  12.746   4.013  12.242 -0.1341 -0.1206 -0.0084
10168W        W25299   7.881   9.194   2.809  0.1810  0.0432  0.0343
10169W        W25300   7.430  16.640  14.997  0.0995 -0.0531 -0.0087
10170W        W25301   5.628   3.792   3.539  0.1026 -0.0666  0.0030
10171W        W25302   2.024   9.052   2.177 -0.0800  0.0450  0.2286
10172W        W25303   5.735   4.333  13.136  0.0527 -0.0103 -0.1284
10173W        W25304   1.480  16.933   0.937 -0.1066 -0.1326  0.0620
10174W        W25305  14.363  15.702  15.627  0.2684  0.1086 -0.3971
10175W        W25306   7.965   3.027   4.472 -0.0948 -0.2667  0.0043
10176W        W25307   4.842   6.557   0.936  0.1209  0.0239  0.1330
10177W        W25308  16.041  16.319   1.554 -0.2175  0.2899 -0.0385
10178W        W25309   1.211   5.588  12.594 -0.2427 -0.0518 -0.1487
10179W        W25310  17.205   4.462   2.051 -0.0637 -0.3862  0.0043
10180W        W25311   7.182  12.824  13.368  0.1237  0.3025 -0.2901
10181W        W25312  10.403  15.849   2.730 -0.1204 -0.0165  0.0010
10182W        W25313   1.310   3.248  13.311 -0.2207  0.0290 -0.3822
10183W        W25314  12.521   1.674  13.486 -0.1753  0.1908  0.2858
10184W        W25315  16.275   8.995  11.891 -0.2355 -0.2475  0.1529
10185W        W25316   2.312  10.823   0.509  0.0507  0.0437  0.0285
10186W        W25317  12.289   9.485  13.876  0.1541  0.1572 -0.1463
10187W        W25318  15.693  13.290  12.413  0.0760  0.4190 -0.1479
10188W        W25319  10.346  11.256   2.119 -0.0543  0.0427 -0.1660
10189W        W25320   5.947   1.537   2.419  0.0449 -0.3013 -0.0571
10190W        W25321   8.601  13.052  13.682 -0.0883 -0.0007  0.0321
10191W        W25322   0.570  14.356   5.280 -0.1028  0.2190  0.2095
10192W        W25323   7.599   3.173   0.182 -0.2065  0.0827  0.0602
10193W        W25324  12.795  12.281  13.628  0.0136  0.2494 -0.1316
10194W        W25325  11.016  13.305   2.191  0.0369 -0.0573 -0.0274
10195W        W25326   6.076  17.810  15.522 -0.1196  0.5255 -0.0677
10196W        W25327   4.062   8.673  11.373 -0.2372  0.1884 -0.2534
10197W        W25328  12.780   4.385   2.598  0.1619 -0.1705  0.0250
10198W        W25329  16.808  16.230   4.024  0.0565  0.1690  0.2121
10199W        W25330   4.053   2.409   2.066  0.2495  0.1230  0.3833
10200W        W25331   5.723  17.648  14.169 -0.2537  0.0776  0.0793
10201W        W25332   8.058   7.906  12.595 -0.2714 -0.2358 -0.4378
10202W        W25333  12.538   9.298  11.338 -0.0974  0.1132 -0.1756
10203W        W25334  16.939   2.225  14.622  0.0660  0.0207 -0.1854
10204W        W25335  15.346   7.403   2.248  0.0471 -0.0620  0.2874
10205W        W25336  13.671   8.083  12.257 -0.0995  0.1556  0.1306
10206W        W25337   1.617  13.070  16.037 -0.0392 -0.3759  0.1165
10207W        W25338   0.045   3.148  14.303 -0.3381  0.1981 -0.1432
10208W        W25339  11.725  14.695   3.453  0.0890 -0.0657 -0.2978
10209W        W25340  12.003   1.198   3.893 -0.2515  0.1159  0.2294
10210W        W25341   1.258  10.098   5.138  0.2504  0.0605  0.3985
10211W        W25342  12.941   1.244   3.847 -0.0382 -0.1011 -0.1562
10212W        W25343   4.347  11.923  16.061  0.0160 -0.0799 -0.2727
10213W        W25344   8.468   8.174   2.796  0.1776  0.2411  0.2382
10214W        W25345   7.508   8.205   3.227  0.0470 -0.1311  0.0609
10215W        W25346  14.827  14.662   3.350  0.1951  0.5061  0.0170
10216W        W25347   6.180   9.159   0.793  0.2581  0.0214 -0.0447
10217W        W25348   8.759   9.809  15.827 -0.1628  0.1630  0.1420
10218W        W25349   3.481   7.276  13.059 -0.0198 -0.1284 -0.0155
10219W        W25350  17.289   1.380   5.181  0.1370 -0.3940 -0.0840
10220W        W25351   1.205   5.287   1.519  0.1069  0.1066  0.1166
10221W        W25352   2.013  18.195  14.910  0.1091  0.1642  0.1554
10222W        W25353   4.954   8.279   4.959 -0.1453 -0.0934  0.3334
10223W        W25354  16.293   3.352   3.623 -0.0740 -0.2681 -0.0716
10224W        W25355  14.964   8.022  12.330 -0.1384  0.1317  0.1826
10225W        W25356   1.943  11.584   1.438 -0.1827  0.0207 -0.3227
10226W        W25357   1.944   7.368  14.756  0.3269 -0.0846  0.0783
10227W        W25358   5.604   0.367   3.572 -0.2228 -0.1980 -0.3658
10228W        W25359  17.310   3.513   3.926 -0.1379 -0.2124  0.1557
10229W        W25360   3.307  11.151  13.232 -0.1425 -0.0249  0.3130
10230W        W25361   9.074   7.256   4.496 -0.1608  0.2603  0.1208
10231W        W25362  18.229   4.573  14.467  0.0219 -0.1252 -0.0283
10232W        W25363   3.026   7.985  15.094  0.0137 -0.0066 -0.4481
10233W        W25364  11.174   8.838   4.422  0.1215 -0.5247  0.0845
10234W        W25365   7.121  15.276  10.816 -0.2922 -0.2267 -0.3454
10235W        W25366   1.641   7.466  12.851 -0.2511 -0.0411  0.1463
10236W        W25367  13.222  14.719  12.603  0.0998  0.1253  0.3543
10237W        W25368  14.692   3.416  14.166 -0.2176 -0.3632  0.3408
10238W        W25369  13.172   7.363   2.570  0.1016  0.1397  0.3304
10239W        W25370  12.757   9.640   1.185  0.0010 -0.1318 -0.1584
10240W        W25371   6.320   5.212   2.131 -0.1569 -0.0089 -0.1163
10241W        W25372  15.080   7.479   1.090 -0.0995  0.3034  0.1393
10242W        W25373   5.157  16.660  15.077 -0.4319 -0.3529  0.2123
10243W        W25374  16.236  12.526   5.013 -0.3001 -0.0405 -0.0998
10244W        W25375   3.909  17.076   2.959 -0.1365  0.2381  0.0898
10245W        W25376   8.938  14.404  10.738  0.3037 -0.2986  0.2345
10246W        W25377  11.452   3.016   3.780  0.2955 -0.1087 -0.1275
10247W        W25378  11.403   5.129   0.886  0.1715 -0.0220 -0.1135
10248W        W25379   9.406   0.060   3.975 -0.3677 -0.1893 -0.0129
10249W        W25380  10.837  12.620   0.549 -0.0496 -0.2694 -0.1010
10250W        W25381   2.883  18.017  12.267  0.3702 -0.4194 -0.1585
10251W        W25382   9.124   6.045  14.109 -0.2503  0.2079  0.0819
10252W        W25383   3.911  17.749   4.211 -0.0829  0.0990 -0.4847
10253W        W25384  11.128   2.915  12.775 -0.0885 -0.1288  0.1212
10254W        W25385   4.079   8.112  13.942 -0.0198  0.1735 -0.1921
10255W        W25386   1.181  12.031   1.840 -0.1216 -0.3339  0.0209
10256W        W25387   2.775  16.647   0.626  0.0858 -0.2406 -0.1614
10257W        W25388   4.329  13.778  11.480  0.0158 -0.0988  0.3675
10258W        W25389   8.409   6.109  11.594 -0.2946 -0.0243 -0.2443
10259W        W25390   9.031   7.754  15.830 -0.0279 -0.0555  0.1651
10260W        W25391  14.113  14.657  11.081 -0.2210  0.0058 -0.1012
10261W        W25392   3.323  10.709  13.032  0.1162  0.2277 -0.0134
10262W        W25393  15.064  17.340   3.055 -0.0037 -0.2070 -0.1778
10263W        W25394  13.613   6.052  13.265  0.1188  0.2335 -0.0057
10264W        W25395   0.836   9.590   4.202  0.0469  0.2734 -0.2410
10265W        W25396  11.999  13.733   4.204  0.0722 -0.1515  0.0668
10266W        W25397   3.493  11.234  10.809 -0.2367  0.0723 -0.1952
10267W        W25398   9.453  15.912  11.973  0.3414  0.1895  0.0483
10268W        W25399   3.031   5.659  12.511 -0.0775  0.1846  0.0071
10269W        W25400   5.099  18.263  11.960 -0.2698  0.1741 -0.1065
10270W        W25401   6.644   0.173   4.917 -0.1161 -0.0230  0.0239
10271W        W25402   9.762  11.938   3.595 -0.0385  0.2262  0.1145
10272W        W25403  16.367  14.211   3.509 -0.0174  0.2477 -0.0379
10273W        W25404  16.460   3.291   2.660 -0.1973 -0.0742 -0.2412
10274W        W25405   7.137   1.994   4.507 -0.1036  0.3081 -0.1610
10275W        W25406   8.300  13.523   3.649  0.3670 -0.0412  0.0305
10276W        W25407   7.957   9.238   0.301  0.1380 -0.1306 -0.4097
10277W        W25408  12.662   9.316   3.867 -0.0995  0.0363 -0.0267
10278W        W25409  16.595  15.983   3.697 -0.2226 -0.0177  0.3092
10279W        W25410  10.743  17.715   1.675  0.0590 -0.0501  0.4121
10280W        W25411   2.583  16.883   3.957 -0.2289 -0.1328 -0.3557
10281W        W25412   1.199   4.018  13.238 -0.1615 -0.2227 -0.2865
10282W        W25413  14.666   4.448  12.963 -0.1600 -0.2003 -0.0785
10283W        W25414  10.170   2.351  15.264  0.0729  0.0480  0.4094
10284W        W25415  10.263   4.602   4.751 -0.0472  0.3372  0.2635
10285W        W25416  12.207  12.248  11.719 -0.5421  0.0147 -0.1382
10286W        W25417   6.235   1.821   4.742 -0.0065 -0.1544 -0.0931
10287W        W25418  15.920  15.763  15.407 -0.0156  0.0269  0.0080
10288W        W25419   5.226  10.159  13.048  0.4091  0.3678  0.1295
10289W        W25420  17.433  10.378  12.043 -0.1150  0.0387  0.1965
10290W        W25421   2.815   6.191  14.609  0.0078  0.2272  0.2940
10291W        W25422   3.349  15.386   2.618 -0.1323  0.1656 -0.1524
10292W        W25423   7.503  16.882  13.985  0.0468 -0.0475  0.0505
10293W        W25424   4.733  15.515   0.181 -0.1398  0.0474  0.2269
10294W        W25425  10.482   5.286  15.967 -0.1691 -0.0050 -0.2051
10295W        W25426  17.930   9.400   1.429 -0.2552 -0.3317 -0.1645
10296W        W25427  15.381  12.174  11.132  0.0619 -0.2227 -0.5883
10297W        W25428  11.563  16.293  11.745  0.1183  0.0515  0.1112
10298W        W25429   1.608  13.470   5.865  0.3586 -0.1915 -0.0481
10299W        W25430  14.239   0.141  15.093 -0.0576 -0.1856  0.0279
10300W        W25431  16.022   0.459  11.762  0.0485 -0.2308 -0.4663
10301W        W25432  13.879   1.752  14.966 -0.2738  0.1127  0.1304
10302W        W25433   7.868  12.907  11.630 -0.2846 -0.0619  0.1671
10303W        W25434   1.770  15.332   5.258  0.1584 -0.2669  0.4871
10304W        W25435   9.137   3.309   4.530  0.2372  0.0237 -0.4354
10305W        W25436  11.283  12.099   1.426 -0.0782  0.0395 -0.2015
10306W        W25437  10.570   5.322   4.500  0.2229  0.2416  0.0577
10307W        W25438   9.822  11.166  15.563 -0.2961 -0.0471 -0.3092
10308W        W25439   2.535   5.813  13.728 -0.0118  0.0700 -0.3506
10309W        W25440  14.088  14.113   2.249  0.0415 -0.1365 -0.1079
10310W        W25441   7.565   4.272  11.627  0.3449 -0.1827  0.2076
10311W        W25442  15.221   9.428  12.577 -0.0920 -0.1141 -0.2354
10312W        W25443   5.003   9.572  10.999  0.0327  0.0077 -0.0580
10313W        W25444  18.090  10.199  15.511 -0.2393 -0.0830  0.2661
10314W        W25445   2.538   5.618   4.198  0.0854  0.1028  0.1907
10315W        W25446  17.614   0.125  13.545  0.1648  0.1476 -0.2849
10316W        W25447   0.307  14.734   0.847 -0.0887  0.2085  0.0648
10317W        W25448   6.300  11.300   4.429  0.2992 -0.1737  0.1186
10318W        W25449   9.822   5.926  15.098 -0.1044  0.1313 -0.0621
10319W        W25450   3.654   4.455   0.728  0.1528 -0.0601 -0.0898
10320W        W25451  10.319   8.227   1.443 -0.0325  0.5235 -0.1092
10321W        W25452  13.474   4.466   0.679 -0.0411 -0.1219 -0.0774
10322W        W25453   5.154   1.170   0.779 -0.1435 -0.2121  0.0403
10323W        W25454   5.239   0.810  12.769 -0.0115  0.1296  0.1792
10324W        W25455  10.443   1.801  15.579 -0.0018  0.2436  0.2539
10325W        W25456  11.272   6.931   1.084  0.5286  0.0385 -0.2827
10326W        W25457   1.656  10.428  14.463  0.0485 -0.1512  0.0600
10327W        W25458  14.520   3.673   0.144  0.1467  0.3398 -0.1551
10328W        W25459   2.709   1.369   2.928 -0.0819  0.1278 -0.0464
10329W        W25460   3.780   8.939  15.314 -0.1414 -0.0300 -0.0739
10330W        W25461   4.434  16.612  12.801 -0.1733 -0.2926 -0.2213
10331W        W25462   5.036   8.383  15.282  0.1594 -0.0191 -0.1803
10332W        W25463   2.795  10.637   5.062 -0.0704 -0.0890  0.2773
10333W        W25464  15.628   7.978  12.650 -0.1305 -0.0715  0.2104
10334W        W25465   6.999  15.550  13.462  0.1285  0.0239  0.0553
10335W        W25466   9.060   0.935   5.871 -0.0410  0.0625  0.0605
10336W        W25467   5.332   7.281  15.943 -0.1024 -0.0963  0.2591
10337W        W25468   8.089  11.275   3.928 -0.0769  0.1813  0.0545
10338W        W25469  14.155   6.772  12.302  0.0651 -0.0116 -0.4688
10339W        W25470  12.573   8.177  12.620  0.0594  0.0146  0.1447
10340W        W25471  11.031  15.999  12.824 -0.0632 -0.0929 -0.0828
10341W        W25472   9.608   1.508  13.799 -0.5991  0.3190  0.0023
10342W        W25473   2.084  14.893   3.226 -0.1242 -0.0423 -0.0229
10343W        W25474  16.704   4.466   5.205 -0.0697  0.0980  0.3762
10344W        W25475   7.367  12.293  14.949  0.3943  0.0221 -0.2846
10345W        W25476  10.936  15.327  12.171  0.2893 -0.0540  0.0891
10346W        W25477  17.154   5.201  13.026 -0.0168 -0.3091  0.2852
10347W        W25478   3.990   8.177  11.804  0.2914 -0.2413  0.2175
10348W        W25479   5.857  16.501  12.489 -0.0987 -0.2398 -0.0352
10349W        W25480  12.845  14.379  13.991 -0.0991 -0.3087 -0.3174
10350W        W25481  13.129  12.185  10.697 -0.0443  0.2739  0.0834
10351W        W25482  11.042  18.036  15.794  0.2698  0.0811  0.0149
10352W        W25483  15.806  17.567  11.182 -0.1807 -0.0081 -0.2602
10353W        W25484  12.430   6.767   0.882  0.2582 -0.1183  0.0495
10354W        W25485   8.554   5.388  13.476 -0.1577 -0.0047 -0.0841
10355W        W25486   4.416   5.513  15.549  0.2407  0.3246 -0.0766
10356W        W25487  13.180  10.764  11.475  0.1646  0.1973 -0.0583
10357W        W25488  10.919  13.253   3.235  0.1125  0.1046 -0.1404
10358W        W25489   5.898  16.521  14.974 -0.0782 -0.0438 -0.0029
10359W        W25490   2.088   5.755   1.983 -0.0299 -0.1478 -0.1084
10360W        W25491   4.494   1.278  12.332  0.0146  0.1535  0.0838
10361W        W25492  17.911   3.305   2.832  0.0307 -0.1562 -0.1948
10362W        W25493  12.509  15.822   1.292 -0.3882 -0.0583  0.0617
10363W        W25494   4.520  11.088  12.348  0.0398  0.0312 -0.0586
10364W        W25495   6.023  17.264   0.664 -0.0206 -0.2082 -0.1414
10365W        W25496  14.992  15.629   4.852 -0.1864 -0.3302 -0.0597
10366W        W25497  11.312  17.188  14.594  0.3485 -0.1715 -0.2538
10367W        W25498   8.786  11.275  11.144  0.2117 -0.0284 -0.2198
10368W        W25499   6.350   2.104  12.017 -0.2192 -0.1881 -0.3470
10369W        W25500   2.590  12.935   4.664 -0.2389 -0.1114 -0.1048
10370W        W25501   6.321   1.965   3.964  0.2582  0.3369 -0.3930
10371W        W25502   8.008   2.159  13.985 -0.0263 -0.2620 -0.0767
10372W        W25503   9.781  10.174   1.283 -0.1108 -0.2769  0.0021
10373W        W25504   5.474  13.541  10.297 -0.0393 -0.2140 -0.2207
10374W        W25505  11.133   0.013  14.786  0.0656 -0.1210  0.2863
10375W        W25506   8.598   9.110  11.074  0.2658 -0.0295  0.3529
10376W        W25507   3.605  11.700   3.871  0.0342 -0.2094  0.1045
10377W        W25508  11.160  12.738  13.346  0.2633  0.0298 -0.2452
10378W        W25509   8.635   3.077  10.608 -0.0970 -0.0853 -0.2540
10379W        W25510  13.393  16.919  10.314  0.0176 -0.0415 -0.0006
10380W        W25511  15.538   4.453   3.610  0.3860 -0.0562  0.1866
10381W        W25512   4.610  12.637   0.691  0.1560 -0.0951  0.1276
10382W        W25513   2.307   2.293  11.507  0.1594 -0.2963 -0.3139
10383W        W25514   7.124   2.171   5.794 -0.0068  0.0748 -0.5025
10384W        W25515  16.782   1.174  15.146 -0.0909  0.1560 -0.0384
10385W        W25516  13.837  15.984  14.958  0.0552  0.3855  0.0432
10386W        W25517   1.616   2.548   2.847  0.1237 -0.2368 -0.2643
10387W        W25518   0.928  12.057   0.594  0.4309 -0.2322 -0.2345
10388W        W25519  17.224   2.717  12.899  0.0235  0.2204 -0.4308
10389W        W25520  12.809  13.238  15.718  0.3110 -0.2370  0.2613
10390W        W25521   2.787   0.608  11.993  0.3002  0.1539  0.2301
10391W        W25522   2.245  13.819   5.450 -0.1560  0.1102  0.0933
10392W        W25523   7.455   3.291   1.542 -0.0296  0.0589  0.1723
10393W        W25524   2.546   3.468   5.124 -0.1511  0.1473 -0.1755
10394W        W25525   2.498  14.214  10.409 -0.1399 -0.1055 -0.5278
10395W        W25526   6.235   9.639  11.484 -0.2381  0.0600 -0.1229
10396W        W25527  13.179   4.938  12.655 -0.4196 -0.0189 -0.1631
10397W        W25528   4.637  12.841  12.560  0.0802  0.0163 -0.2093
10398W        W25529   8.726  10.099   2.076 -0.1827  0.2408 -0.2742
10399W        W25530   5.756  10.780  12.706 -0.0191  0.0423 -0.2873
10400W        W25531   5.471  10.712   0.794 -0.2320 -0.1251  0.1139
10401W        W25532   7.110   6.687  14.244  0.2852 -0.0556  0.0565
10402W        W25533  11.004  13.225   3.839  0.0146  0.1585 -0.0220
10403W        W25534  10.506   5.378  13.082  0.2724 -0.1164  0.2574
10404W        W25535  16.830  11.288  15.257  0.1006  0.0840  0.1743
10405W        W25536   7.661  16.317  16.101 -0.0172  0.1196  0.1132
10406W        W25537   9.896   2.822   5.127 -0.4426  0.2709 -0.0720
10407W        W25538   4.838  11.165   3.922 -0.1835  0.0530 -0.1610
10408W        W25539   9.715   4.335   3.107  0.1748  0.0726 -0.0195
10409W        W25540   2.225   8.949   2.733 -0.1598 -0.0435 -0.0078
10410W        W25541   6.478  15.231   1.261 -0.0856  0.0419  0.0460
10411W        W25542  14.014  18.323   1.361  0.0201 -0.0480 -0.0490
10412W        W25543  12.031   1.730   3.983  0.2895  0.0088 -0.0477
10413W        W25544   5.232   8.600  11.248 -0.1549  0.1046  0.1181
10414W        W25545  14.509  14.522  14.912 -0.0647 -0.0347 -0.0077
10415W        W25546  13.896  16.470  11.619 -0.0866 -0.3409  0.0194
10416W        W25547   2.142   8.377   9.824 -0.0573 -0.1344 -0.3061
10417W        W25548   6.196   4.813  11.691  0.0028  0.0873  0.0527
10418W        W25549  11.553   0.509   1.358 -0.0830 -0.0903  0.2226
10419W        W25550   7.593  17.139   0.218 -0.1173  0.0657  0.0557
10420W        W25551  16.666   2.906  13.495 -0.1513 -0.0827 -0.0652
10421W        W25552  18.190   6.211  13.859 -0.1505 -0.1773  0.3545
10422W        W25553  12.751  18.352   1.806  0.0380  0.0362  0.0132
10423W        W25554  10.755   8.421  15.663 -0.1487  0.1222 -0.0349
10424W        W25555   7.054   5.889   3.559  0.2145 -0.0299 -0.1691
10425W        W25556   1.215  15.703  15.006  0.3040 -0.1333 -0.4342
10426W        W25557  17.230   2.587  14.048  0.0817  0.0103 -0.1052
10427W        W25558   4.312   6.623   5.489  0.5146 -0.0862  0.0581
10428W        W25559  10.957  10.663  11.501 -0.0537  0.0619  0.0664
10429W        W25560   0.480  17.690   3.867 -0.1857  0.0080 -0.1132
10430W        W25561   3.737   2.195  11.559  0.0506 -0.4059 -0.1729
10431W        W25562  11.844   5.731   5.888  0.2027 -0.0415 -0.2207
10432W        W25563   2.371   5.574   3.319  0.2721  0.3048  0.0562
10433W        W25564   9.521   5.387   0.277  0.1785  0.0199  0.0155
10434W        W25565   2.855   1.507   0.526 -0.2952  0.1894  0.1527
10435W        W25566  12.879   1.764  15.878  0.3822  0.1115  0.0476
10436W        W25567  10.750  15.815  12.350  0.0408 -0.4019 -0.0227
10437W        W25568  12.623  16.239  13.215  0.1553  0.0137  0.0270
10438W        W25569  15.312  17.184  14.735 -0.0679  0.3308  0.1065
10439W        W25570  12.128  13.603   1.476  0.0738 -0.0493 -0.0317
10440W        W25571   2.874  15.513   2.712  0.0616 -0.2965 -0.2033
10441W        W25572   8.690  14.990  14.564 -0.3530 -0.2354 -0.2542
10442W        W25573   9.176   5.945  13.327 -0.3494 -0.0174  0.0830
10443W        W25574  13.360  17.624  11.211 -0.1793 -0.2102 -0.3606
10444W        W25575  10.597  17.957   4.553 -0.2211  0.0131  0.0843
10445W        W25576  16.125   0.092   2.422 -0.0395 -0.2541 -0.0647
10446W        W25577  10.611  11.091   3.514  0.0786  0.1069  0.0853
10447W        W25578   7.632   0.437  12.136 -0.0479 -0.0090  0.0139
10448W        W25579  13.877   4.464  14.960 -0.1171  0.1627 -0.3684
10449W        W25580  11.698  15.169  15.893  0.3176  0.2052 -0.0362
10450W        W25581  10.534  14.655   1.920  0.0697  0.2745  0.0390
10451W        W25582  12.062  17.151   4.592 -0.0560  0.1589 -0.2638
10452W        W25583   7.934  15.787  11.737 -0.3217 -0.1425 -0.0941
10453W        W25584  11.956   0.814  10.341  0.2808 -0.1752  0.3313
10454W        W25585  16.847   8.711   5.429 -0.1742  0.0498  0.1012
10455W        W25586  14.094  16.425   5.405  0.3058  0.1872 -0.1438
10456W        W25587  11.835   7.128  11.506 -0.1807 -0.1256  0.0388
10457W        W25588   1.775  12.913   1.455  0.0064  0.0380 -0.0414
10458W        W25589   6.494   9.093  11.622 -0.0497 -0.2012  0.1690
10459W        W25590   4.479   6.302   5.090  0.2192 -0.2590 -0.0890
10460W        W25591  10.915   3.721  11.788 -0.2543  0.1685 -0.0024
10461W        W25592  12.062  15.204   2.088  0.1990  0.1898 -0.1850
10462W        W25593   7.945   7.976  15.978 -0.3511  0.0553 -0.1971
10463W        W25594  12.597   4.271   4.277 -0.3157 -0.5782 -0.0569
10464W        W25595  13.082   2.381  11.583 -0.0361  0.1160 -0.2916
10465W        W25596   2.383  18.202  12.272  0.1058 -0.0218 -0.0008
10466W        W25597   6.025   6.854  13.408 -0.1760  0.2981  0.2067
10467W        W25598   2.891  15.813  14.992  0.3466 -0.2656  0.2877
10468W        W25599  16.354  11.706  15.417  0.1248 -0.3262  0.3249
10469W        W25600   8.906   7.398   4.992 -0.0921 -0.0765  0.0471
10470W        W25601   0.204  16.491  14.447 -0.2653  0.3259 -0.3120
10471W        W25602   8.999   6.458   1.615  0.0409 -0.1840  0.1284
10472W        W25603  12.194  12.146   5.039 -0.0133  0.3311 -0.2616
10473W        W25604   1.035   1.361   5.157  0.1325 -0.2311 -0.1951
10474W        W25605  15.319   0.677   1.444 -0.2370 -0.1261 -0.1065
10475W        W25606   9.264   9.881  14.102  0.2252 -0.2270 -0.0997
10476W        W25607  13.555  14.456  13.560  0.1728  0.1977  0.1017
10477W        W25608  11.874   4.667  11.177  0.1498  0.3647 -0.2405
10478W        W25609  16.277  15.737  12.921  0.4277  0.1006  0.1368
10479W        W25610   3.696   9.187  14.167 -0.1665  0.0551  0.4307
10480W        W25611  13.459   0.404   2.387  0.1838  0.3535  0.0740
10481W        W25612  16.603   0.754   0.472 -0.0893  0.0973 -0.1207
10482W        W25613  12.942  12.299  14.218  0.2265 -0.1395  0.0751
10483W        W25614   9.961   1.662   0.306 -0.0601  0.1142  0.2528
10484W        W25615   4.176   9.073  14.060  0.0689  0.2138  0.1144
10485W        W25616  15.438  16.834   1.421 -0.2970 -0.0939  0.1386
10486W        W25617  16.921  15.498  14.384 -0.2362 -0.2886 -0.3048
10487W        W25618   5.771  15.754   5.832  0.2317  0.1778  0.3338
10488W        W25619   6.167  17.317   5.389  0.0982  0.2200 -0.0237
10489W        W25620   5.948   0.561  12.116  0.1991  0.1004 -0.2301
10490W        W25621  15.042   9.046   3.102 -0.1616  0.0775 -0.3185
10491W        W25622   5.034   0.995  14.647 -0.1485  0.0419  0.2686
10492W        W25623   8.558   7.790  12.804 -0.0162  0.1148 -0.2226
10493W        W25624  13.745  17.479  15.500 -0.0531  0.3487  0.2755
10494W        W25625  11.260  14.776   1.006  0.2840  0.0507 -0.1520
10495W        W25626  12.451   7.015  12.274 -0.1918  0.2631 -0.2119
10496W        W25627   3.587  12.788  10.079 -0.1104 -0.1462 -0.0549
10497W        W25628   4.949  13.406  15.014  0.0671  0.0904  0.1001
10498W        W25629  17.371  13.338  12.610 -0.0156  0.2779  0.2312
10499W        W25630   0.613  16.522  14.956  0.0727 -0.1501 -0.0294
10500W        W25631  16.474   2.042   4.924  0.6006  0.3022 -0.1239
10501W        W25632   0.921  15.704   4.800 -0.3517  0.0994 -0.0292
10502W        W25633   6.742   4.345  15.788  0.1946 -0.0247 -0.0104
10503W        W25634   0.001  17.620   1.616 -0.0321 -0.1765  0.0561
10504W        W25635   0.705  16.902   0.090 -0.2076 -0.1935  0.2828
10505W        W25636   7.289   5.146   5.103 -0.3591 -0.0429 -0.1667
10506W        W25637   4.310  17.132  12.634  0.0164  0.0794 -0.0752
10507W        W25638  17.913   4.826   1.550  0.0606  0.2730  0.1896
10508W        W25639  14.089   9.151   3.730  0.0664 -0.0073  0.0707
10509W        W25640   4.845   8.672  14.133 -0.1038  0.1795 -0.0067
10510W        W25641   8.584   9.878  12.276 -0.0534  0.0093 -0.2456
10511W        W25642   1.636   3.186  15.857  0.3364  0.0886  0.0078
10512W        W25643   2.605   7.425   1.046  0.0362 -0.4861  0.0747
10513W        W25644  16.898   6.303  15.955  0.0335  0.3317 -0.0735
10514W        W25645   0.875   3.992   0.579  0.0908  0.0804  0.3606
10515W        W25646   5.070   3.614   2.236  0.0482 -0.0755  0.4013
10516W        W25647  16.885  12.412   1.300 -0.0942 -0.0161  0.0128
10517W        W25648  12.983  10.921   5.940 -0.0072 -0.0177  0.4049
10518W        W25649  14.825   8.475   1.258  0.4910 -0.2073 -0.0942
10519W        W25650  18.139   3.393  13.080 -0.2094  0.0641  0.1848
10520W        W25651   7.268  10.138   2.290  0.4313 -0.1336  0.3465
10521W        W25652   3.714   5.070  13.379 -0.0633  0.1297  0.1019
10522W        W25653   3.803   2.876   2.891  0.1040 -0.1103  0.1140
10523W        W25654  13.783  13.637   2.075  0.1109  0.3162  0.1488
10524W        W25655   9.048  10.613  10.265 -0.1405 -0.2673  0.0625
10525W        W25656  10.640   3.498  13.557 -0.2638 -0.0247  0.1508
10526W        W25657   5.550  12.649  14.414  0.2171  0.0788 -0.2451
10527W        W25658   2.293   0.219   2.383 -0.1162 -0.6182 -0.4264
10528W        W25659  18.154   7.377   4.026 -0.2430 -0.2462  0.2152
10529W        W25660  15.544   4.260  15.477 -0.1289 -0.3620 -0.1420
10530W        W25661  11.445  16.614  11.048 -0.1572 -0.0057 -0.0817
10531W        W25662   5.551  11.140  14.913 -0.0580 -0.1635 -0.0726
10532W        W25663   2.861  18.193   4.402  0.1410  0.1659 -0.3250
10533W        W25664   9.695   5.512  10.732  0.2512 -0.0254  0.3705
10534W        W25665   6.112  15.799   3.012 -0.2277 -0.0109  0.0166
10535W        W25666  11.466   3.061  12.020 -0.0674 -0.0363  0.0516
10536W        W25667   4.722  14.523   4.699 -0.1158 -0.3413 -0.2719
10537W        W25668  17.499   2.756  11.313  0.0696 -0.3646  0.0192
10538W        W25669   2.538   8.395  12.149 -0.1200 -0.0210 -0.0653
10539W        W25670  18.030   0.940   2.520  0.2319  0.2841  0.1340
10540W        W25671   0.232   3.398   2.473 -0.0296  0.0660 -0.1017
10541W        W25672   9.634  16.215  15.565  0.1767 -0.1235 -0.1385
10542W        W25673   9.566  17.328   2.998  0.0619  0.2398  0.0015
10543W        W25674   3.979   1.769   2.072 -0.0352  0.1490 -0.0771
10544W        W25675  13.339  10.306   3.108 -0.0142 -0.3605  0.0836
10545W        W25676   6.330   3.571   4.696  0.0915 -0.0050 -0.4030
10546W        W25677  17.550   8.064  12.168 -0.2187 -0.1462  0.1158
10547W        W25678   4.309   2.757   1.201  0.1140  0.2741 -0.4143
10548W        W25679   0.076  16.527   3.167 -0.4664  0.0418  0.0155
10549W        W25680   9.006  17.781  12.243 -0.0095 -0.0794 -0.2617
10550W        W25681  15.097   0.361  14.638  0.0500 -0.2903 -0.1347
10551W        W25682   3.410   5.124   4.309 -0.0183  0.4008  0.1019
10552W        W25683   4.539   7.117   1.259  0.1137 -0.0622 -0.3237
10553W        W25684   0.395  11.176   0.657 -0.1125  0.0611 -0.2607
10554W        W25685  11.289  15.261   1.103 -0.2585  0.1439  0.1300
10555W        W25686   5.859   3.376   4.644  0.3992  0.3028 -0.1678
10556W        W25687  10.482   9.802   1.764 -0.0982  0.3024  0.1198
10557W        W25688   3.419   3.036  11.256 -0.0075  0.1703 -0.1710
10558W        W25689  10.250   8.499   2.013 -0.5301  0.1198  0.1210
10559W        W25690   7.747  11.165  15.987 -0.2263  0.1783  0.0561
10560W        W25691   0.585  17.214  15.850 -0.3548  0.1812  0.2890
10561W        W25692   8.460  10.333  15.646  0.1147 -0.1412  0.2210
10562W        W25693  11.314   6.591   3.553  0.0431  0.1221  0.0676
10563W        W25694  14.527   9.729  15.133 -0.0618 -0.0469 -0.0959
10564W        W25695  13.773  16.186   0.918 -0.0205  0.1563  0.1137
10565W        W25696   9.494   3.097   3.062  0.2892  0.0832 -0.1272
10566W        W25697   3.376  17.460   1.889 -0.1387  0.0000 -0.1688
10567W        W25698   0.877  16.719  11.249  0.1747  0.3164 -0.2059
10568W        W25699   7.329  15.017   2.301  0.3920  0.0838  0.0073
10569W        W25700   3.019  12.924   3.053 -0.0298  0.0577 -0.3788
10570W        W25701  11.441   6.050  13.857  0.0158  0.3329  0.0953
10571W        W25702  13.160  10.176   4.500 -0.0725  0.1979  0.1180
10572W        W25703   7.482  15.216   2.974 -0.5911 -0.2485  0.1343
10573W        W25704   3.742  16.505  13.334 -0.0789  0.1849 -0.2232
10574W        W25705  18.363  17.078  15.540 -0.0277  0.2265 -0.0687
10575W        W25706   3.995  11.532  12.878 -0.0042 -0.0650 -0.0852
10576W        W25707  13.825   7.191   3.397 -0.0864 -0.1038  0.0675
10577W        W25708   5.009  14.472   3.584 -0.1554  0.1329  0.1434
10578W        W25709  12.382  12.798   1.452  0.0138 -0.2361  0.1047
10579W        W25710   9.377  17.776  15.184  0.2422 -0.2080  0.0294
10580W        W25711  17.574   7.055  13.543 -0.1617 -0.2397  0.0502
10581W        W25712   7.421   3.407  13.838 -0.0764  0.0204  0.3325
10582W        W25713  12.509   6.945  14.552  0.1593  0.2393 -0.1980
10583W        W25714  11.116  13.698   2.586 -0.0878  0.2768 -0.0426
10584W        W25715   5.240  11.852   0.397 -0.2743 -0.5457  0.0085
10585W        W25716  13.751  14.094  10.406  0.0239 -0.0784 -0.0554
10586W        W25717   7.217  13.939   1.563 -0.0635  0.1029  0.2837
10587W        W25718  16.802  17.255   3.092 -0.0644 -0.1190  0.0640
10588W        W25719   8.053  15.229  13.488 -0.0735  0.0318  0.2275
10589W        W25720   9.796   3.075  11.091  0.1795 -0.1931  0.0293
10590W        W25721   5.911   5.783  14.875  0.2005  0.1964 -0.3575
10591W        W25722  17.951  16.554   0.087  0.0423 -0.0661 -0.0611
10592W        W25723  14.853   4.727   0.126  0.1291 -0.2711 -0.0519
10593W        W25724  17.279   8.800   1.356 -0.0658  0.0626 -0.0438
10594W        W25725   1.877   8.021  10.588  0.2345 -0.1130 -0.2331
10595W        W25726   1.404  12.659   1.029 -0.2190  0.1163  0.0357
10596W        W25727   7.988   5.763   1.321 -0.2519  0.0511 -0.1517
10597W        W25728   6.678  10.092  15.282  0.0141 -0.1468 -0.0072
10598W        W25729   7.879   7.533   1.843 -0.0889  0.3306 -0.2121
10599W        W25730  15.968  12.573   1.569  0.1090 -0.1937 -0.1081
10600W        W25731  16.647   1.714   5.851 -0.1434 -0.1259  0.0700
10601W        W25732   8.286  16.187   2.781  0.0653  0.1926 -0.2750
10602W        W25733  11.189  10.264  13.374  0.0641  0.0719  0.0152
10603W        W25734  15.008  14.330  15.612  0.1718  0.2445  0.3202
10604W        W25735   3.363  11.993   3.194  0.0884  0.0960  0.1273
10605W        W25736   2.957  14.141  10.663 -0.0214  0.2637 -0.0909
10606W        W25737   9.777  15.240   1.939  0.4406 -0.1113  0.0781
10607W        W25738  15.778   3.330   3.677 -0.1574  0.1290  0.1410
10608W        W25739  16.025   1.268   1.006  0.1081  0.1531 -0.2484
10609W        W25740   6.632   9.077   5.212  0.0171 -0.2280 -0.1270
10610W        W25741   1.013   9.918   3.517  0.2024 -0.0610 -0.0668
10611W        W25742   0.564  16.220  10.896 -0.0810  0.2377 -0.1496
10612W        W25743  16.184  14.745   3.438 -0.1149 -0.2186 -0.0982
10613W        W25744   8.536   0.372   0.649  0.0742  0.2189  0.1070
10614W        W25745  16.232   4.603   3.258  0.0545 -0.0496 -0.1361
10615W        W25746  13.207  13.325  15.359  0.1536  0.0814 -0.1598
10616W        W25747  17.804   1.175   5.254  0.3249  0.0813 -0.2967
10617W        W25748   1.956   4.922   3.995 -0.0584  0.1346  0.1464
10618W        W25749   0.060   4.075   3.230 -0.1971  0.2022 -0.0897
10619W        W25750  13.614  15.089  12.576 -0.1057  0.1497 -0.2685
10620W        W25751  14.916  11.781   0.351 -0.0649  0.1627  0.1215
10621W        W25752   6.446   1.229  12.117  0.1642  0.0481  0.0053
10622W        W25753  16.266  10.018   3.931 -0.1994 -0.3014 -0.1260
10623W        W25754   7.359   7.494   1.900 -0.2995  0.0622  0.3697
10624W        W25755  16.408  14.940  13.222 -0.0304  0.0707  0.1450
10625W        W25756  15.268  15.226   0.758  0.1398  0.0981 -0.1168
10626W        W25757   2.329   4.491  13.564 -0.0893  0.2609  0.2392
10627W        W25758  17.622  13.220   1.917  0.2365  0.3890  0.1128
10628W        W25759  13.005  15.328  13.883  0.1747  0.0798  0.0127
10629W        W25760  17.838  11.866  16.123 -0.0011  0.0758 -0.0236
10630W        W25761  14.700   5.831  14.039 -0.0162 -0.0397  0.0006
10631W        W25762  14.597   7.506  11.520  0.1953  0.0421  0.2736
10632W        W25763   4.054   7.902   2.673 -0.0106 -0.1183  0.0675
10633W        W25764  17.692   7.874  13.183  0.0368 -0.0898  0.2353
10634W        W25765   3.937  15.351   4.842 -0.1801 -0.1588  0.0590
10635W        W25766   2.264   4.651   0.245  0.1613 -0.2656  0.0438
10636W        W25767   9.689   9.988  11.282  0.1413 -0.1581  0.2073
10637W        W25768   4.034  18.082  13.028 -0.1056 -0.0111 -0.0759
10638W        W25769  12.739  11.096  12.676 -0.2416 -0.0717  0.1776
10639W        W25770  14.356   8.681  13.359  0.1433  0.1927 -0.3550
10640W        W25771   5.917   2.375   1.215  0.0726 -0.3848  0.0460
10641W        W25772   4.298  17.827  14.749  0.0784  0.0603  0.1192
10642W        W25773   5.439   6.436   5.428 -0.1005 -0.1844  0.0818
10643W        W25774  14.400   1.026  14.115 -0.1205  0.1997 -0.2060
10644W        W25775  12.092   6.777   0.485  0.1509 -0.1921 -0.0150
10645W        W25776  14.462   5.313   0.899  0.0945 -0.0933 -0.0920
10646W        W25777   7.939   9.284  15.956  0.1782 -0.2462  0.0786
10647W        W25778   1.628   1.761  10.071  0.0791  0.0195  0.0641
10648W        W25779   3.735   5.484  12.796 -0.2110 -0.1471  0.3194
10649W        W25780  16.988   7.276  12.987  0.2255 -0.1454 -0.1745
10650W        W25781  11.535   9.032   4.756 -0.2295  0.0734 -0.0007
10651W        W25782  12.229  10.148   2.447  0.1681  0.0624  0.1611
10652W        W25783   0.586   2.792  13.228  0.0249  0.1136  0.3165
10653W        W25784  16.481   6.679  12.090 -0.0198  0.0073  0.0349
10654W        W25785   0.655   1.734  11.893  0.2758  0.3003  0.2278
10655W        W25786   1.089  11.072   3.915 -0.1722 -0.2279  0.0412
10656W        W25787   6.811   1.454  15.810  0.3549  0.0644  0.2222
10657W        W25788  10.443  15.195   0.005  0.1487 -0.0623 -0.2283
10658W        W25789  11.724   6.924  15.716 -0.0057 -0.0564 -0.1415
10659W        W25790  10.599  11.548   3.355 -0.3139  0.0682 -0.2599
10660W        W25791   4.211  15.804   5.591 -0.1679 -0.2381 -0.0301
10661W        W25792   0.940  16.953   3.926 -0.0352 -0.1516 -0.0285
10662W        W25793   5.907   0.202  13.140  0.0118 -0.0907  0.0074
10663W        W25794  14.032   9.329  11.418  0.2001 -0.0393  0.3325
10664W        W25795   1.535  17.430  13.622 -0.1784 -0.0040  0.0150
10665W        W25796  16.691   2.272   0.552 -0.1808 -0.0517 -0.3283
10666W        W25797  11.081   6.522  11.526 -0.0237  0.0007 -0.1989
10667W        W25798  12.685   0.357  11.537 -0.2365 -0.1667 -0.1698
10668W        W25799   2.385  11.220  15.833 -0.1206 -0.2412  0.0143
10669W        W25800   0.116   7.429  13.029 -0.0126  0.6846 -0.3321
10670W        W25801   8.633  15.601   3.352 -0.0392  0.2692 -0.4330
10671W        W25802   3.106  10.298  13.158 -0.1697  0.0137  0.0696
10672W        W25803  14.517   9.796   0.185  0.4259 -0.0077 -0.2183
10673W        W25804   6.029   0.701  13.016  0.0366  0.2918  0.2474
10674W        W25805  13.116   5.442  12.417  0.0064 -0.1672  0.2357
10675W        W25806  14.194  11.527  11.213 -0.1419  0.2109 -0.1485
10676W        W25807   2.934   3.342  14.555 -0.1212 -0.1221  0.0270
10677W        W25808   1.073  17.861  14.038 -0.0661 -0.0990 -0.6673
10678W        W25809   8.224  10.335  12.501 -0.1532  0.2426  0.2667
10679W        W25810  16.046   5.355  12.232 -0.1861  0.2889 -0.0724
10680W        W25811   7.010   2.269  13.725  0.2358 -0.1145  0.0556
10681W        W25812  13.106  17.993  12.873  0.1193 -0.0598  0.1138
10682W        W25813   8.230  10.714   0.395 -0.0423 -0.0781 -0.0357
10683W        W25814   6.620   2.141   4.579  0.1183  0.1946 -0.1152
10684W        W25815  12.754   7.525   0.233  0.0295 -0.0950  0.3446
10685W        W25816  15.899   7.990  15.701  0.0759  0.0997 -0.1937
10686W        W25817   1.328   4.486   3.367 -0.0556  0.0245 -0.1084
10687W        W25818  10.072  12.903  11.945 -0.2375 -0.0282  0.3826
10688W        W25819  13.457   2.371   1.847  0.0340  0.0783 -0.0904
10689W        W25820   4.466   2.875  11.869 -0.0575  0.0320  0.2092
10690W        W25821   3.780  16.103   4.452 -0.0697  0.1425 -0.0425
10691W        W25822   8.935   4.669  16.144 -0.3139 -0.2251  0.0793
10692W        W25823   1.775  14.371  11.581 -0.2970 -0.3986  0.3061
10693W        W25824  13.314   9.055   4.870  0.0562 -0.0546  0.1938
10694W        W25825  13.528   7.812   6.045  0.1695 -0.0195 -0.1303
10695W        W25826  10.654  10.014   2.730 -0.3332  0.2354 -0.0062
10696W        W25827  16.710  10.017   4.204 -0.0446  0.0803  0.0982
10697W        W25828  14.661  10.869   1.346 -0.0631 -0.0108 -0.4151
10698W        W25829   0.072  17.132  13.501  0.3139  0.0329  0.2552
10699W        W25830  15.226   8.399  15.571 -0.0582 -0.0567 -0.1238
10700W        W25831  10.401  13.681  15.011 -0.1239  0.2503  0.2506
10701W        W25832  10.361   3.816  12.551  0.0245  0.0388  0.0499
10702W        W25833  10.972  12.688   4.867  0.0209 -0.1639 -0.0229
10703W        W25834   8.344   5.247   2.656  0.0946 -0.0459  0.3752
10704W        W25835   3.174   7.015  12.114 -0.4414 -0.1196 -0.2741
10705W        W25836   9.771   5.481   0.772 -0.1548  0.1495 -0.2379
10706W        W25837   2.524   9.608  12.597  0.1485  0.1485  0.1501
10707W        W25838  13.669   5.769   2.480  0.0670 -0.1749  0.2289
10708W        W25839  10.341  12.010   1.392  0.2678  0.0703  0.2541
10709W        W25840   1.182   1.481   3.635 -0.3576 -0.0517 -0.3392
10710W        W25841   4.142   2.198  16.020 -0.0547 -0.3690 -0.1906
10711W        W25842  16.272   1.349  14.346 -0.1257 -0.1210 -0.0215
10712W        W25843  14.063   5.245   3.402 -0.1938 -0.0035  0.0618
10713W        W25844   1.837   6.293   4.406 -0.0178 -0.1315  0.0130
10714W        W25845   9.583   2.979   1.827  0.0595  0.2097  0.0305
10715W        W25846   2.210   0.893   3.243  0.2032 -0.5441  0.1720
10716W        W25847  11.780   3.006  11.280 -0.0004  0.2203  0.0728
10717W        W25848  16.642   9.576  11.257  0.0549  0.1868  0.1161
10718W        W25849   2.251   0.792   4.158  0.0261  0.0505  0.1573
10719W        W25850  18.296  16.410   2.470  0.0804 -0.0406  0.0521
10720W        W25851   8.990  10.758  14.579  0.2554  0.0023 -0.2403
10721W        W25852  13.937   5.213   5.482 -0.0938 -0.0763 -0.0160
10722W        W25853  12.036   4.148   2.190 -0.2428  0.2403  0.1724
10723W        W25854  10.260   8.040  14.460  0.2049 -0.0163 -0.0188
10724W        W25855  10.239  18.186   2.423 -0.1686 -0.4233  0.1518
10725W        W25856   9.968  15.785  14.775  0.2134 -0.1293 -0.1227
10726W        W25857   6.054   7.737  13.108 -0.0009  0.1017 -0.0997
10727W        W25858  12.350   6.617  14.077 -0.0793 -0.2077 -0.3313
10728W        W25859   8.850   8.964  11.978  0.1902  0.1816 -0.0263
10729W        W25860   0.726  15.273   1.068  0.0339 -0.0853 -0.1662
10730W        W25861   9.138  16.854   4.064  0.1095  0.3242  0.1216
10731W        W25862   7.889   1.827   4.702 -0.0888  0.1940 -0.0761
10732W        W25863   5.070   3.588  11.445 -0.1414 -0.2889  0.0042
10733W        W25864   7.610   6.771   4.763 -0.2041  0.2243 -0.0911
10734W        W25865  11.607  13.945  14.616 -0.0107  0.0375 -0.0061
10735W        W25866   2.852   3.754   3.687  0.0860  0.0292  0.2475
10736W        W25867   0.910  17.274   4.988  0.2434 -0.0570 -0.0586
10737W        W25868  14.052   5.419  12.208  0.0293  0.2695  0.0644
10738W        W25869  16.308   3.810   2.365  0.1620  0.1581 -0.0090
10739W        W25870   1.041   5.759  14.597  0.2565  0.0168  0.1044
10740W        W25871  12.470  10.357  12.985  0.3582 -0.1960 -0.0655
10741W        W25872   7.010   1.407  12.045  0.0460 -0.0500  0.1160
10742W        W25873  14.547   9.315  11.629  0.3134  0.0858  0.1617
10743W        W25874  14.945  13.301  15.599 -0.2144  0.0690  0.2908
10744W        W25875   7.760   0.267   1.354 -0.0398 -0.1163 -0.1636
10745W        W25876   5.002   4.911   1.799 -0.0477 -0.0357  0.1493
10746W        W25877   1.952   7.319  15.253 -0.0086  0.0095 -0.0787
10747W        W25878   6.170   0.841  15.344  0.1927 -0.1103 -0.0967
10748W        W25879  14.399   4.585   2.119 -0.2869 -0.0262  0.1394
10749W        W25880  14.081   1.197   0.382  0.1903 -0.0131  0.0257
10750W        W25881   8.649  10.228   4.640 -0.1083 -0.1166  0.0664
10751W        W25882  14.565   5.722  12.183 -0.1320 -0.1246 -0.0973
10752W        W25883  10.388   4.423  14.097  0.1212  0.0608 -0.1072
10753W        W25884  13.204   9.811   3.161 -0.2446  0.4332  0.1106
10754W        W25885  11.589   7.002  11.915  0.0588  0.2385 -0.1096
10755W        W25886  10.139  10.718   2.202  0.1640 -0.2319 -0.0416
10756W        W25887   4.738  10.263  10.351  0.3669  0.1889  0.1638
10757W        W25888   9.883  13.611  12.058  0.0006  0.1527  0.0179
10758W        W25889  16.475  16.816   0.552 -0.0706  0.3031  0.2249
10759W        W25890   7.725   7.074  13.573  0.0147 -0.0087  0.0047
10760W        W25891  16.345   0.312   0.677 -0.0821  0.3125 -0.0227
10761W        W25892  17.715   1.841  13.305  0.0077  0.0863  0.1905
10762W        W25893   7.535   2.194   4.707 -0.1667 -0.1986 -0.0476
10763W        W25894  15.078  16.030  15.217  0.0253 -0.0263 -0.2301
10764W        W25895  18.298  11.072   2.922 -0.1347 -0.0017  0.0622
10765W        W25896   0.625   2.642   0.324 -0.0901 -0.2128 -0.2565
10766W        W25897  16.923  17.129  13.339  0.1813  0.0100 -0.0557
10767W        W25898   4.668   7.004  15.231 -0.1290  0.3966 -0.1900
10768W        W25899   0.677  11.871  10.830  0.2574 -0.1658  0.2296
10769W        W25900   3.223  12.909  13.931  0.3259 -0.1181 -0.1989
10770W        W25901   7.576  12.159  13.573  0.1294  0.1797 -0.3097
10771W        W25902   0.804  17.992   3.716  0.0758  0.1446 -0.0203
10772W        W25903   8.857   7.877   2.912  0.3073  0.1198 -0.1521
10773W        W25904  12.289   9.721  11.511  0.2143 -0.1436  0.1117
10774W        W25905   3.621   5.901   4.720 -0.0024  0.0538 -0.2500
10775W        W25906  15.541   0.887  13.191  0.0757 -0.0391  0.0446
10776W        W25907   3.448   1.917   3.515  0.1450 -0.1037 -0.2859
10777W        W25908   2.426  15.039  15.111 -0.3643  0.2735 -0.0204
10778W        W25909  15.124  11.567  12.097  0.1701  0.0371  0.1411
10779W        W25910   2.739   0.530   1.509  0.0812  0.0571 -0.0583
10780W        W25911   7.752   8.631   3.211 -0.1847 -0.1754 -0.1427
10781W        W25912   4.980   7.773   0.337 -0.0078 -0.2653 -0.1942
10782W        W25913   8.417   4.314   6.002 -0.3975  0.0581 -0.2267
10783W        W25914   5.396   7.755  14.491  0.0393 -0.3856 -0.0055
10784W        W25915   4.394   0.671  14.135 -0.2494 -0.1244  0.0071
10785W        W25916  18.229  11.514  13.656  0.3356  0.0438 -0.1084
10786W        W25917  16.514  12.577  10.652 -0.0418  0.3204  0.1950
10787W        W25918   7.005   9.443   4.553  0.2520 -0.3355 -0.1278
10788W        W25919   6.064   2.127   0.800 -0.2691  0.1676  0.0667
10789W        W25920  10.080   8.005  11.712 -0.1846  0.2906  0.0766
10790W        W25921   3.062   1.579   5.374 -0.0298 -0.1321 -0.0754
10791W        W25922  18.061   8.248  12.579 -0.0246  0.2463 -0.2370
10792W        W25923  10.990  16.451   2.340 -0.1200  0.1247  0.0863
10793W        W25924  15.151   6.458  11.193 -0.2298  0.2847 -0.2154
10794W        W25925  11.024  11.256  14.841  0.0846  0.1531 -0.3681
10795W        W25926   3.830   9.843   4.052  0.0308 -0.0660 -0.0546
10796W        W25927   0.580   3.278   4.214  0.1181 -0.5044 -0.0067
10797W        W25928   0.478   8.861  12.729 -0.2007 -0.1484 -0.0861
10798W        W25929  12.288   5.326  12.363  0.1504 -0.3579 -0.1023
10799W        W25930  13.646   5.034  11.694  0.4832 -0.0936  0.0262
10800W        W25931   6.749  16.238   5.200 -0.0030 -0.0541 -0.1122
10801W        W25932  11.856   3.951   3.272  0.2139  0.1117  0.0364
10802W        W25933   3.835  10.508   3.191 -0.2654  0.2236  0.0784
10803W        W25934   4.123  12.216  11.795  0.0708 -0.0554  0.2138
10804W        W25935  18.058  12.203  14.457 -0.1326 -0.2888 -0.1931
10805W        W25936  16.689  14.466   5.269 -0.2102  0.1312 -0.0770
10806W        W25937  15.434  14.056   1.559  0.0207  0.0518  0.0991
10807W        W25938   2.783   7.224  11.860 -0.2190 -0.2114 -0.3072
10808W        W25939  12.841  14.874  14.131 -0.1235  0.2499 -0.1933
10809W        W25940  13.287  17.861   1.372 -0.1570  0.1012 -0.0953
10810W        W25941  16.539  11.915   2.339 -0.0061  0.1383 -0.0700
10811W        W25942  15.161  10.373  15.363 -0.1566 -0.2114 -0.0741
10812W        W25943   1.724  15.109  14.356  0.4237  0.0981 -0.1302
10813W        W25944   8.096   3.215  12.613  0.3149  0.0597 -0.0625
10814W        W25945  14.919  10.296  10.403  0.1150  0.0613 -0.1373
10815W        W25946   4.373   8.739  12.333 -0.0881  0.0882  0.0043
10816W        W25947  12.683  17.455   4.798  0.1222 -0.1181 -0.3383
10817W        W25948   5.506  14.930  10.844  0.1401 -0.1244  0.0364
10818W        W25949  17.466  15.833   5.215 -0.0623  0.2431  0.1773
10819W        W25950  10.574  16.497   0.986  0.2746 -0.0211  0.0371
10820W        W25951   1.782  13.801   5.574  0.1924  0.0790 -0.2002
10821W        W25952   8.861   6.646   2.727  0.0579 -0.0647  0.1003
10822W        W25953  14.539  13.780  11.801 -0.2837  0.1620  0.0441
10823W        W25954   8.360  11.309  13.339  0.2354  0.0798 -0.0984
10824W        W25955  17.397   2.798  12.344  0.1817 -0.0230  0.3441
10825W        W25956  13.566   2.304   3.386  0.0383 -0.0938  0.3607
10826W        W25957   3.820  14.687   0.569  0.1778  0.2682 -0.1159
10827W        W25958  11.857   6.017   0.013 -0.1636  0.2492 -0.4363
10828W        W25959   2.292  13.368  15.110 -0.0799  0.1088 -0.2150
10829W        W25960  11.518   7.789   3.296  0.1326  0.3797  0.0454
10830W        W25961   0.877   7.203   2.562  0.3400  0.0259  0.2023
10831W        W25962   7.174  16.598   1.604  0.2731 -0.3226  0.1265
10832W        W25963   1.074   5.227   4.503 -0.2974 -0.0452 -0.1656
10833W        W25964   7.347   7.738  14.907  0.0264  0.1232  0.0663
10834W        W25965   8.527  12.607   4.640 -0.2244  0.0108 -0.2313
10835W        W25966   9.377   1.117   6.288 -0.0376 -0.0470  0.0195
10836W        W25967  10.823  11.961   1.567  0.1113  0.0125  0.0929
10837W        W25968  13.868  15.806   4.119  0.2614  0.1509 -0.2819
10838W        W25969  11.328  18.190   0.072  0.0299  0.2919  0.1002
10839W        W25970  16.668   8.784  13.622 -0.3848  0.1742 -0.3066
10840W        W25971  17.654  18.270  15.762  0.2157  0.1170 -0.0219
10841W        W25972   3.299   8.083  11.755  0.1132 -0.2625 -0.2881
10842W        W25973  11.158  14.422   0.367 -0.1988 -0.2589  0.3024
10843W        W25974  15.165   0.050  11.541  0.0717 -0.2785 -0.1021
10844W        W25975   3.011  10.494   1.584 -0.1441  0.1765  0.0266
10845W        W25976   1.323  16.055   3.875  0.0173 -0.0147  0.0074
10846W        W25977  18.269   6.725   2.811  0.1841 -0.0044 -0.2538
10847W        W25978  10.450  12.252  14.769 -0.0086  0.0374  0.0641
10848W        W25979   7.646   0.802  12.528  0.3030  0.1271 -0.0693
10849W        W25980  15.631   8.411   4.541  0.0620 -0.0926  0.1673
10850W        W25981   2.652   1.414   5.052 -0.0676  0.0021  0.1847
10851W        W25982  15.664  18.151   3.921  0.1356  0.0785 -0.0927
10852W        W25983   5.456   2.276  13.979 -0.2803 -0.1010 -0.1003
10853W        W25984  17.976  10.571   3.603  0.1616 -0.2595 -0.1664
10854W        W25985  12.366   7.830  14.373  0.0757  0.2147 -0.0537
10855W        W25986  11.622   6.487   2.695 -0.0321 -0.0509 -0.1038
10856W        W25987   1.094   8.361  13.327 -0.1306  0.3678 -0.1937
10857W        W25988   1.497  17.543  14.435  0.1115 -0.3014 -0.0359
10858W        W25989   7.271   0.468  11.632 -0.0708 -0.0818  0.0186
10859W        W25990   8.557  12.462  11.650 -0.0539 -0.2901 -0.0388
10860W        W25991   9.979   3.700  13.634  0.0111 -0.3035  0.0134
10861W        W25992   4.711   2.483   5.848  0.0956  0.3671  0.1445
10862W        W25993   3.428   0.709  13.045 -0.1747  0.0708  0.0636
10863W        W25994  12.798   2.231   2.380  0.2212  0.2000 -0.1477
10864W        W25995   7.261   3.319  11.459 -0.2667 -0.2626 -0.0182
10865W        W25996  15.571   1.593  11.604 -0.4443  0.0947 -0.4299
10866W        W25997   9.763   8.004   0.141  0.2379 -0.2368  0.0057
10867W        W25998  10.026  14.396   1.367  0.0569 -0.0528  0.0149
10868W        W25999   0.142   6.299  13.127  0.0638 -0.2373  0.0392
10869W        W26000   3.986   6.357   0.401 -0.0050  0.4338 -0.1845
10870W        W26001   9.217  17.556  13.998 -0.0956 -0.0734  0.0725
10871W        W26002  14.993   8.980   0.579  0.0423  0.2736 -0.1277
10872W        W26003  12.353  12.954  11.674  0.3674  0.0057 -0.1049
10873W        W26004   2.697   2.999   5.240  0.2363 -0.0349  0.2602
10874W        W26005   5.493  11.182   2.343  0.0536  0.2095  0.2305
10875W        W26006  14.362  14.902   2.061 -0.2164  0.1470  0.1668
10876W        W26007  17.608  13.376  11.639 -0.0771 -0.0262 -0.2691
10877W        W26008   1.884   6.514  14.831 -0.3147  0.0197 -0.2399
10878W        W26009   9.531  12.994  16.059  0.0282 -0.0885  0.1606
10879W        W26010   2.773   1.250   2.328  0.0574 -0.0309  0.0562
10880W        W26011  12.707   7.780  14.751  0.2870  0.0096  0.2648
10881W        W26012   2.405  12.056   2.498 -0.2152  0.1968  0.1898
10882W        W26013   7.658  18.148  14.783  0.1556 -0.0761 -0.1252
10883W        W26014   8.698  16.238  12.044  0.0137 -0.0530  0.0691
10884W        W26015   7.355   4.692  11.931 -0.2232 -0.1429 -0.0842
10885W        W26016  16.671   4.421  15.635  0.1386 -0.4735  0.0467
10886W        W26017   5.771  11.145  15.417  0.0556 -0.1612  0.2557
10887W        W26018   9.689   8.395   5.364 -0.0659  0.2191  0.1847
10888W        W26019   8.478   4.858   0.072  0.2530  0.1822 -0.1097
10889W        W26020   6.611   0.900   4.777 -0.0974 -0.3582 -0.0606
10890W        W26021  10.317  15.556  11.381  0.0978  0.1166  0.0287
10891W        W26022   3.325  12.821  12.590  0.2197 -0.0139 -0.1534
10892W        W26023   3.510   3.794   2.904  0.2421  0.0500  0.2963
10893W        W26024   9.980   3.117   3.225  0.1420 -0.0422 -0.0306
10894W        W26025  12.881  13.001  15.241  0.0728 -0.0136 -0.3896
10895W        W26026   0.999  16.165  13.840  0.2534  0.1411 -0.0811
10896W        W26027  10.037   5.341   0.051 -0.3013  0.2211  0.1446
10897W        W26028   7.724   2.545  14.182 -0.0402  0.0687  0.2566
10898W        W26029  10.773  14.598  15.720 -0.3632  0.1789  0.0612
10899W        W26030   7.502   0.825  14.555  0.2678  0.2102  0.2179
10900W        W26031   5.081   4.241  10.877  0.2368 -0.3949 -0.1428
10901W        W26032   6.133   3.457  11.525  0.0721 -0.1926 -0.1200
10902W        W26033  10.422   6.440  14.036 -0.0062 -0.1767  0.4516
10903W        W26034   9.488   8.260  11.847 -0.1120 -0.2534  0.2896
10904W        W26035  12.964  17.941   3.166 -0.2284 -0.1206  0.1528
10905W        W26036   0.972   4.705   2.178 -0.2844  0.1647  0.2961
10906W        W26037   4.752  16.471  15.562  0.0623 -0.0141  0.3553
10907W        W26038  11.164  17.783  12.819 -0.0411 -0.2001 -0.2539
10908W        W26039  14.311  10.337   4.753 -0.2321 -0.3734  0.0178
10909W        W26040   7.530   0.497  15.456  0.0137  0.4877 -0.0023
10910W        W26041  10.785  11.888  14.849  0.1957  0.2959  0.0257
10911W        W26042  11.615   2.361  15.850 -0.1056  0.1530  0.0172
10912W        W26043   8.980   5.397  11.539  0.2999  0.0175  0.2490
10913W        W26044  13.508  12.903  16.068  0.1637 -0.0630  0.0330
10914W        W26045  14.155  17.802  10.697  0.5245 -0.1111  0.0509
10915W        W26046  18.119  12.959  12.693  0.0387 -0.1839  0.0292
10916W        W26047   6.866   6.725   3.584 -0.4023 -0.5196  0.1597
10917W        W26048   0.226  15.740  13.563  0.1860  0.3285  0.0088
10918W        W26049  13.643   4.784   2.711  0.1112  0.3718 -0.0121
10919W        W26050  12.146   4.994  11.914  0.0487  0.1596  0.2842
10920W        W26051   7.309   4.576  14.353  0.0287  0.1487  0.1152
10921W        W26052  10.761  13.011   4.389 -0.0409  0.0492 -0.0878
10922W        W26053  14.100   7.027   2.984  0.1662 -0.3103  0.1070
10923W        W26054   2.939   4.685  12.558  0.1097 -0.1406  0.0996
10924W        W26055   9.152  12.393   0.508  0.1142 -0.1335  0.4169
10925W        W26056   9.455  16.614  15.275 -0.2714 -0.1118  0.1275
10926W        W26057   0.495   3.920  12.237  0.1537  0.0894  0.0425
10927W        W26058  11.406   2.952   1.537  0.4435 -0.1617  0.3776
10928W        W26059   4.928   2.494   3.196 -0.3846 -0.1251 -0.2042
10929W        W26060   7.093  16.711   0.226 -0.0558 -0.0595  0.0832
10930W        W26061   1.080   2.102   2.176 -0.1386  0.0067  0.0174
10931W        W26062  13.344   3.938  15.550 -0.0742  0.1717 -0.1304
10932W        W26063  16.917   7.515   3.751  0.2255 -0.1016  0.2672
10933W        W26064  12.823   2.438  12.969 -0.1503  0.0145 -0.0299
10934W        W26065  15.212   3.304  12.877 -0.1701  0.0466 -0.0136
10935W        W26066  15.636   1.309  13.950  0.0720  0.2030 -0.0566
10936W        W26067   1.177  16.748  15.067 -0.1005  0.0505  0.0508
10937W        W26068   6.572  16.977   3.510  0.1111 -0.2654  0.0440
10938W        W26069  13.224   6.828  15.205 -0.3381 -0.4543  0.4946
10939W        W26070  16.148  10.812  12.403  0.1689 -0.0961  0.1849
10940W        W26071   9.226  13.292   2.419  0.1928  0.0851 -0.0429
10941W        W26072  16.423  10.381   1.521 -0.2143 -0.2349  0.0491
10942W        W26073   4.084  11.457  14.624 -0.1373  0.1740  0.0994
10943W        W26074   8.227   8.459  13.575 -0.0542  0.1521  0.0261
10944W        W26075   5.361  12.403   4.663 -0.0951 -0.1349  0.0848
10945W        W26076   1.810  10.507  12.710  0.0334  0.1292 -0.2501
10946W        W26077   4.592  17.224   4.371 -0.1639 -0.2877  0.1485
10947W        W26078   6.650   9.697  11.747 -0.5537  0.0605 -0.0857
10948W        W26079   1.571   0.410   4.805 -0.3610  0.0864 -0.4007
10949W        W26080  13.695  11.156   3.621  0.0376 -0.1110 -0.4679
10950W        W26081  10.434   2.776   5.250 -0.1508  0.1300 -0.0643
10951W        W26082   7.059  16.505  13.009  0.0376 -0.1029 -0.0644
10952W        W26083  11.370   1.569  15.108 -0.1603 -0.0398  0.1113
10953W        W26084   5.997   1.111   5.383  0.0533  0.2794  0.4445
10954W        W26085   8.437  14.007   2.064  0.1403 -0.1180 -0.0214
10955W        W26086  13.493  16.782  11.770  0.2823 -0.0319  0.1051
10956W        W26087   9.992  16.518  11.244  0.1346 -0.2722  0.1266
10957W        W26088   2.193   9.656  11.558  0.2801  0.0140 -0.2032
10958W        W26089   5.342  15.261   4.842 -0.1136 -0.1857  0.1159
10959W        W26090  11.992   9.022  10.448 -0.1965  0.1848 -0.1233
10960W        W26091  17.934  10.705  14.150  0.3341  0.0750 -0.0311
10961W        W26092   2.251   4.070   0.145 -0.1448  0.1990  0.2480
10962W        W26093  18.318   4.697   0.368 -0.3928 -0.0466 -0.1626
10963W        W26094  13.881  12.455  15.423 -0.1395  0.3473 -0.1002
10964W        W26095   1.400   7.070   2.634  0.1543  0.1728 -0.0277
10965W        W26096   9.599  14.362   1.011 -0.1125 -0.3134  0.0665
10966W        W26097   6.575  10.214  14.286 -0.3859 -0.1032  0.0121
10967W        W26098   6.356  14.771   2.162 -0.0586 -0.2918 -0.2335
10968W        W26099   2.585  15.188   3.736  0.0303 -0.2601 -0.0200
10969W        W26100   2.958   4.552   2.673  0.2736 -0.1555  0.0166
10970W        W26101  11.439  18.287  10.165 -0.2332  0.0951  0.1935
10971W        W26102   4.205   5.253  12.760  0.0545  0.1233  0.2532
10972W        W26103  12.093   5.292   4.059 -0.2748 -0.1788  0.3815
10973W        W26104   1.774   9.556  10.772 -0.0199 -0.1363 -0.0536
10974W        W26105   5.802   3.687  11.905 -0.0983  0.2238 -0.2287
10975W        W26106   8.460  17.996   1.561 -0.1930 -0.1936 -0.0565
10976W        W26107   2.385  10.291  14.382  0.2189  0.1710  0.1618
10977W        W26108   5.238  10.901   0.295 -0.1862 -0.0037  0.0707
10978W        W26109  15.035   6.369   3.909  0.0657  0.0556  0.2759
10979W        W26110  13.761  17.335  11.617  0.0905  0.0954  0.0372
10980W        W26111  13.437   4.251  13.370 -0.1629  0.2535 -0.0752
10981W        W26112   0.232  13.052  13.989  0.0982  0.1905 -0.4129
10982W        W26113  17.512  11.580   1.543  0.3834  0.1597  0.2752
10983W        W26114   6.784   8.321  11.805  0.0266 -0.1265 -0.1262
10984W        W26115  14.138  11.438   3.606 -0.3472 -0.1703  0.1461
10985W        W26116   1.326   2.188  11.250  0.2240 -0.1338  0.0964
10986W        W26117  13.424  10.646  15.204 -0.1901  0.1475 -0.0596
10987W        W26118   6.632   0.289  15.904 -0.0679  0.1578  0.0035
10988W        W26119  17.105  11.548  16.000 -0.0832  0.1925  0.0257
10989W        W26120   4.166   0.656   4.867  0.0880  0.1166  0.1076
10990W        W26121   5.068   7.079   4.233  0.3509  0.1331  0.2369
10991W        W26122   8.867   3.376   5.440 -0.0791 -0.0799  0.0095
10992W        W26123   0.982  11.595   2.156  0.1754 -0.0651  0.1897
10993W        W26124   2.770   0.141  12.223  0.3252 -0.0366 -0.0104
10994W        W26125  14.082  15.370  15.868  0.2046  0.0671 -0.0394
10995W        W26126   6.762   3.980   1.406  0.0193  0.2062 -0.0612
10996W        W26127  10.004  13.910   0.892 -0.2297 -0.0706 -0.1394
10997W        W26128   0.459  10.939   3.034 -0.0727 -0.0880  0.0876
10998W        W26129  16.283  12.811  11.205  0.2723 -0.0948 -0.0734
10999W        W26130   3.306   5.073   3.496  0.1059 -0.3058  0.0485
11000W        W26131   1.029   4.923   3.316  0.0287 -0.2166  0.3334
11001W        W26132   5.195   5.165   3.937  0.0575 -0.0472 -0.0485
11002W        W26133  12.128  12.258   3.408  0.1830 -0.0928 -0.1422
11003W        W26134   0.466  17.179  15.308 -0.2788  0.0909  0.0982
11004W        W26135  17.608   4.077  11.612  0.0589  0.0020 -0.3850
11005W        W26136   4.708   1.040   3.770  0.0920  0.0274  0.0732
11006W        W26137  15.699   6.736  14.018 -0.0081  0.1881 -0.4224
11007W        W26138   7.032   7.557   5.851 -0.0649 -0.5196  0.0427
11008W        W26139   1.868  15.921   2.811 -0.2542  0.1173  0.1589
11009W        W26140  12.953  14.851   1.028 -0.1063  0.4394  0.1884
11010W        W26141  15.684  17.536  14.832 -0.0436 -0.2168 -0.2325
11011W        W26142   0.575   0.071  11.280 -0.1518  0.2120  0.3802
11012W        W26143   0.537   4.972  14.380  0.2114  0.0548  0.0294
11013W        W26144   7.442  15.796   4.627  0.1389  0.0373 -0.0003
11014W        W26145   8.682  15.153   2.306  0.2933  0.1611 -0.1354
11015W        W26146  12.094  10.323  13.503  0.0268 -0.1639 -0.0738
11016W        W26147   1.943  12.680   3.702 -0.1694  0.3277  0.1152
11017W        W26148  17.928   7.483  12.970  0.4127 -0.0231  0.1609
11018W        W26149  16.083  18.357  11.984 -0.0233  0.1958 -0.0035
11019W        W26150   8.951   5.203   2.558  0.1216  0.1406  0.1676
11020W        W26151  17.946   7.105  14.843  0.2563 -0.1908 -0.0283
11021W        W26152  17.321  13.933  11.479  0.0245 -0.1042  0.1602
11022W        W26153  10.860   0.632  15.053 -0.0955  0.0896  0.2087
11023W        W26154   0.015  13.224   5.106 -0.0286  0.0168 -0.0727
11024W        W26155   8.540   5.194  10.751  0.0296 -0.0320  0.3303
11025W        W26156  12.070   9.606   0.532  0.0231 -0.0921  0.1285
11026W        W26157   9.196   1.182   0.245  0.0134  0.0810 -0.3557
11027W        W26158  14.289  13.277  12.591 -0.1125 -0.1952 -0.1713
11028W        W26159   4.803   5.313  12.181  0.3078  0.1633 -0.1614
11029W        W26160  10.853   3.603   3.094  0.0926 -0.1228 -0.0548
11030W        W26161   2.170   6.671  10.701  0.0162 -0.1214  0.0773
11031W        W26162   9.758   2.056   0.453  0.3003  0.0572  0.1319
11032W        W26163   6.802   3.931  14.044  0.0250 -0.1610 -0.3550
11033W        W26164   7.073   0.874   0.326  0.0709 -0.2666 -0.0276
11034W        W26165  12.973   7.899   0.588  0.1683 -0.1286 -0.1814
11035W        W26166  11.495   5.293   1.803 -0.1646 -0.2242 -0.4252
11036W        W26167   9.460   1.951  12.317 -0.1770  0.0620 -0.1778
11037W        W26168  17.391   7.654   3.784  0.1201 -0.0106 -0.0104
11038W        W26169   5.051   4.545   4.637 -0.2038  0.0652  0.0010
11039W        W26170   5.560   5.802   4.741 -0.0102  0.1129 -0.0974
11040W        W26171  15.896  11.415  11.911 -0.1855  0.0882 -0.3909
11041W        W26172   5.490   9.348  11.024 -0.0482  0.1706  0.1382
11042W        W26173   1.009   2.092   4.052  0.0938  0.1447  0.1620
11043W        W26174   9.172  16.196  13.136 -0.0231  0.3234  0.0725
11044W        W26175   7.098  16.007  11.676  0.1105  0.1091  0.2331
11045W        W26176  10.143   8.251   0.578  0.1388  0.2478  0.0336
11046W        W26177   1.994  15.128   4.356  0.0646  0.2573 -0.1647
11047W        W26178  10.802   0.380   2.354  0.0280  0.0298 -0.0964
11048W        W26179   3.771   6.872  12.869  0.0889  0.3063  0.0079
11049W        W26180  15.032  16.183  12.337 -0.1932 -0.0840 -0.0403
11050W        W26181  14.280   0.274  11.520  0.1255  0.0166  0.1786
11051W        W26182   3.777  15.471  12.497 -0.0936  0.1134  0.0811
11052W        W26183   9.987   8.714  13.895  0.0696 -0.1124  0.0628
11053W        W26184   1.281  17.359  13.149 -0.1074  0.1012  0.1254
11054W        W26185   3.629   0.126  13.963  0.1459 -0.0956  0.0084
11055W        W26186  10.247   9.913  13.182 -0.1182 -0.0934  0.4659
11056W        W26187   1.531  14.319   4.936  0.0981 -0.3482  0.0674
11057W        W26188   2.253  17.245   0.928 -0.0560 -0.1442 -0.2160
11058W        W26189   0.358   0.059  15.104 -0.0291  0.2543  0.1627
11059W        W26190   8.134  15.995   2.376  0.1852  0.0260  0.3126
11060W        W26191  18.032   0.511  13.361  0.2357  0.0296 -0.2339
11061W        W26192  13.789  17.903   2.182 -0.1816 -0.0484 -0.0620
11062W        W26193   2.659  14.224   4.799  0.1810 -0.0975 -0.1497
11063W        W26194   2.988   7.488  14.348 -0.1148  0.0713  0.3849
11064W        W26195  11.174   1.202   2.973 -0.2599  0.0686 -0.0850
11065W        W26196   2.461  16.622  14.548  0.1849  0.0252  0.3763
11066W        W26197  12.837   8.723  14.039  0.3054  0.1027  0.0939
11067W        W26198  18.004  18.093  11.816 -0.1353 -0.2801  0.0514
11068W        W26199  16.027   1.331  14.897 -0.1194  0.1499  0.3316
11069W        W26200   8.598   7.008  15.685  0.0861 -0.1353 -0.0543
11070W        W26201  13.794  14.152   0.043 -0.2082 -0.1617 -0.0773
11071W        W26202   6.731   4.901   3.169 -0.0551 -0.0774 -0.1379
11072W        W26203  10.533  15.685   0.833  0.1153 -0.3151  0.0817
11073W        W26204  11.160  14.976  14.918  0.1509 -0.1299  0.2615
11074W        W26205   5.310   7.745  16.065  0.1779  0.1388 -0.0998
11075W        W26206  11.472  16.803   0.969  0.3031 -0.2999  0.3607
11076W        W26207  10.187   7.130   0.561  0.0079 -0.2701  0.0775
11077W        W26208   6.474  14.703  10.878 -0.0657 -0.5490  0.2629
11078W        W26209   2.778  12.056   0.045 -0.3449 -0.3708 -0.1289
11079W        W26210   3.655   4.729   0.201 -0.0383  0.1251 -0.2091
11080W        W26211   0.460   4.454   3.094 -0.2272 -0.0909 -0.0749
11081W        W26212  12.392   8.021   2.803 -0.2151 -0.1930  0.4485
11082W        W26213  12.505   1.925  10.191 -0.0050 -0.0829  0.0943
11083W        W26214   9.544  12.153   0.969 -0.0368 -0.1357  0.1799
11084W        W26215  12.286  13.114  13.582 -0.1878 -0.0254 -0.1551
11085W        W26216   4.927  14.995   4.622 -0.0361 -0.1153  0.2017
11086W        W26217  10.930   8.989  12.419  0.0611  0.0994  0.0902
11087W        W26218  17.850   0.806  15.876  0.5987  0.1666  0.0082
11088W        W26219   8.540   6.256   1.757  0.1064 -0.0324 -0.2979
11089W        W26220   9.335  16.987   1.548 -0.2160 -0.3784  0.0639
11090W        W26221   0.529  14.492  10.292  0.0645  0.1385 -0.0710
11091W        W26222  12.260   6.575  11.002  0.2388  0.0457  0.2017
11092W        W26223   0.340  15.043   4.287  0.1130  0.2430  0.1805
11093W        W26224   3.104  12.112  11.598 -0.1146 -0.1886 -0.0137
11094W        W26225   9.183  15.497   4.849  0.2084 -0.1467  0.0344
11095W        W26226   8.005   4.863  15.911  0.0532  0.1522  0.0027
11096W        W26227  15.477   4.944  12.751  0.2630 -0.3354  0.0534
11097W        W26228  13.031  16.547  11.668  0.2381 -0.2543 -0.0936
11098W        W26229  14.854   2.545   1.521  0.3090  0.0123 -0.1433
11099W        W26230   3.034  15.347  14.667  0.1169 -0.0216 -0.1590
11100W        W26231  11.996   9.951  11.224 -0.0282 -0.2118 -0.0732
11101W        W26232  13.499   1.087   2.992 -0.1608 -0.1513  0.2493
11102W        W26233  10.901  11.457   2.646 -0.0978  0.0414  0.0225
11103W        W26234  13.262  15.702  12.914 -0.1578 -0.1177 -0.2181
11104W        W26235  16.479   8.216   3.737  0.1451  0.0151  0.0743
11105W        W26236  17.678   7.996  13.912 -0.1716  0.0213  0.0880
11106W        W26237   2.785   2.645  12.221  0.1130 -0.0498  0.1207
11107W        W26238  14.693   4.324  16.057  0.0724 -0.0436 -0.1165
11108W        W26239   0.892   4.422  14.538 -0.0477 -0.0052  0.1468
11109W        W26240  10.807  16.446  14.003  0.0698  0.1117 -0.1028
11110W        W26241  16.317   3.689  15.505 -0.0807 -0.1307  0.2944
11111W        W26242  15.968  15.502  12.183 -0.1093 -0.0965  0.0182
11112W        W26243   9.465  12.617  14.575  0.3036 -0.0986 -0.0955
11113W        W26244   0.351  11.188  15.273  0.1757  0.2623  0.0033
11114W        W26245   3.685   1.929  16.044 -0.3453  0.3263 -0.3140
11115W        W26246   9.516   9.606  13.810 -0.4594 -0.0438 -0.1615
11116W        W26247   1.145   7.828   2.099  0.0906  0.0064 -0.3465
11117W        W26248   4.937   6.141   2.120 -0.1616  0.1520 -0.0637
11118W        W26249  16.881   1.270  13.302  0.2554 -0.2993  0.3512
11119W        W26250  11.763   8.630   1.514  0.0549  0.5024  0.0437
11120W        W26251  13.661  12.099  10.698  0.2499 -0.1019 -0.0623
11121W        W26252  13.802  18.128   4.529  0.2394  0.0913  0.4156
11122W        W26253  12.489   1.983  14.291  0.0870  0.2620 -0.1022
11123W        W26254   4.438   5.035  15.726  0.0881  0.0930  0.1530
11124W        W26255   0.204   7.602   0.524 -0.1523 -0.0503  0.0185
11125W        W26256  15.836  14.105  15.611  0.1264  0.5277 -0.0310
11126W        W26257  16.639   0.136  11.140  0.1069  0.6839 -0.0209
11127W        W26258  10.317   2.127  12.348 -0.3729 -0.1674 -0.0580
11128W        W26259   5.587   2.891   5.562  0.0752  0.2276 -0.0798
11129W        W26260   9.532  17.871   3.053  0.0356 -0.1377 -0.4861
11130W        W26261   6.011  12.426   2.085 -0.0053 -0.1146 -0.3236
11131W        W26262  16.608  11.802  14.089 -0.0045 -0.2164 -0.2765
11132W        W26263  13.672   8.386  11.813 -0.2218  0.3584 -0.2360
11133W        W26264  12.136  16.965  14.254  0.1133  0.0107  0.1732
11134W        W26265  17.998   4.413   3.345  0.1937 -0.2101 -0.4520
11135W        W26266   8.878   9.265   4.956 -0.1668 -0.2289  0.1603
11136W        W26267   1.161  15.307  10.335 -0.2567  0.1040 -0.1055
11137W        W26268   8.492  11.991  12.883  0.2784  0.0581  0.1005
11138W        W26269  12.089   3.616   4.105 -0.1701  0.1486  0.3884
11139W        W26270  17.975   6.024  13.442 -0.0148  0.1184  0.1668
11140W        W26271   3.091   2.239  15.397  0.3197 -0.1698  0.0497
11141W        W26272   5.229  12.600   5.123 -0.3007 -0.1265  0.1635
11142W        W26273   7.061  15.187  15.201 -0.1523  0.1056 -0.2102
11143W        W26274   4.748  10.874   0.245  0.0923  0.2205  0.2704
11144W        W26275   3.299   9.236  15.306 -0.0094  0.0621 -0.0850
11145W        W26276   3.663   2.168   3.869 -0.0590 -0.0428  0.1660
11146W        W26277   2.938  11.041  12.866  0.2244  0.1128 -0.4230
11147W        W26278  10.415   6.708   4.153 -0.0482  0.0127  0.0049
11148W        W26279  12.798  11.251  14.976  0.3296  0.0858 -0.1438
11149W        W26280  15.292  17.318  12.627  0.1416 -0.0325 -0.0950
11150W        W26281   7.803   7.773   3.193  0.2511 -0.0308  0.0231
11151W        W26282  18.049   0.054  12.613  0.1243 -0.0828 -0.0323
11152W        W26283   5.771   0.939  15.674 -0.0740 -0.0451  0.1940
11153W        W26284  17.468  10.936  15.702 -0.0846  0.5147 -0.0561
11154W        W26285   7.406   6.332   2.081  0.0819  0.1130 -0.0839
11155W        W26286   7.819   6.806   2.698  0.1121  0.0372 -0.0087
11156W        W26287  10.658  16.280  12.066  0.0901 -0.1439 -0.1042
11157W        W26288   1.413   3.452   1.511 -0.1153  0.0033 -0.0025
11158W        W26289   7.100   5.769  12.919  0.2102 -0.0589  0.1097
11159W        W26290  17.695  15.524  13.356  0.0649 -0.2391 -0.2286
11160W        W26291  12.983   4.846   1.516 -0.2338 -0.2466 -0.0146
11161W        W26292   2.578   6.763  13.762 -0.2604  0.1559 -0.1423
11162W        W26293  15.295  12.282  14.283 -0.2050  0.0894 -0.1934
11163W        W26294   0.411  16.137   3.020 -0.1065  0.0903 -0.0845
11164W        W26295  13.424   6.864  13.396 -0.1184  0.2722  0.1952
11165W        W26296  18.038  12.969  10.824 -0.0390 -0.0402 -0.0843
11166W        W26297  15.432  10.302  11.352  0.0662  0.1131 -0.0985
11167W        W26298   0.554  16.675  11.597 -0.0135  0.2021 -0.0496
11168W        W26299  17.190  10.608   4.526  0.3289  0.1134  0.1477
11169W        W26300   5.875  16.596  15.704 -0.0676  0.0078  0.1979
11170W        W26301  17.213   4.967   3.994  0.0159  0.1611 -0.2039
11171W        W26302  11.377   4.766   1.256 -0.1249 -0.1698 -0.2992
11172W        W26303   7.544  10.760  15.034  0.0268  0.0142 -0.3447
11173W        W26304  14.060  12.726   2.394 -0.0179  0.0029 -0.1252
11174W        W26305   8.964   6.151  10.743 -0.1922 -0.1332  0.0372
11175W        W26306   8.690  16.184   5.479 -0.1050  0.0963  0.1823
11176W        W26307   3.476  17.275   3.160  0.1494  0.1063 -0.2232
11177W        W26308   4.390   7.810  10.636 -0.1094  0.0270 -0.0648
11178W        W26309   4.935   1.447  12.013  0.0692  0.1464  0.1698
11179W        W26310   1.135  16.947  11.665 -0.1965  0.0371 -0.2055
11180W        W26311   4.560  12.436   3.362 -0.1207  0.0255 -0.1998
11181W        W26312  13.641  13.518   4.701 -0.0546 -0.2347  0.2281
11182W        W26313   9.559  11.989   3.107 -0.0263 -0.2066  0.0421
11183W        W26314  16.370   2.498  15.109  0.1053  0.1531 -0.5249
11184W        W26315  10.478  14.855   3.776 -0.1912  0.3458  0.2074
11185W        W26316   1.110   6.222   2.539  0.0943 -0.0148  0.0100
11186W        W26317   6.910  10.971  14.283 -0.1772 -0.0109 -0.2773
11187W        W26318   9.661   0.954  13.761  0.0056 -0.0393 -0.3064
11188W        W26319  10.885   1.476  12.393  0.1930  0.1035  0.0436
11189W        W26320   8.063  18.223  13.227  0.0898 -0.1556  0.0125
11190W        W26321   1.849   4.375   0.098  0.0752 -0.0647  0.2545
11191W        W26322   1.715  15.701  15.809 -0.2305 -0.0628  0.0972
11192W        W26323   4.222  16.178  11.984  0.2082 -0.0999 -0.2246
11193W        W26324   2.509   8.183  11.344  0.0581  0.1299  0.0855
11194W        W26325   6.518   2.828  13.270  0.1878  0.0802 -0.2163
11195W        W26326  12.381   8.785   0.690 -0.0371 -0.0993  0.0494
11196W        W26327  10.035   4.056   4.580 -0.3733 -0.2374  0.0081
11197W        W26328   7.707   9.342  11.953 -0.3277 -0.0265 -0.0056
11198W        W26329   8.235  10.365   5.595 -0.3532 -0.0198 -0.0078
11199W        W26330  13.568   5.385   5.126  0.1671  0.1084 -0.2628
11200W        W26331  15.211   1.098   1.224 -0.4872 -0.2450 -0.2557
11201W        W26332  18.323  17.144  12.465 -0.3384  0.1856  0.2448
11202W        W26333  15.961   5.335   4.177  0.2417  0.0502 -0.0054
11203W        W26334  12.443   2.630   0.779  0.1562 -0.1317  0.0309
11204W        W26335   1.468   1.893   0.002 -0.2329 -0.2841 -0.4373
11205W        W26336  16.070   0.225   5.799 -0.1343  0.1567 -0.0661
11206W        W26337  16.923   2.916  10.612 -0.2718  0.0742 -0.1163
11207W        W26338   8.287   9.874   9.690 -0.2075 -0.3325  0.2569
11208W        W26339  17.794  13.599  14.818  0.1558 -0.3300  0.0578
11209W        W26340  14.061   1.369  15.411  0.3381  0.2104 -0.0916
11210W        W26341  16.339   8.678  14.943 -0.1228  0.2269 -0.0188
11211W        W26342   2.406   8.901  13.638 -0.1990 -0.1617 -0.1392
11212W        W26343   9.510   3.152   2.405 -0.1633 -0.0253  0.1316
11213W        W26344  16.107  15.361  13.238  0.2628  0.2319  0.1326
11214W        W26345  15.240   3.934  15.695 -0.0163  0.3598  0.2959
11215W        W26346   9.667  16.655   4.909  0.0493 -0.3133 -0.1951
11216W        W26347   7.131   9.446   3.166  0.1195 -0.0868 -0.2333
11217W        W26348   4.941  13.014   0.557 -0.0221 -0.2998 -0.1230
11218W        W26349   9.507  10.531  15.932 -0.2916  0.1222  0.0053
11219W        W26350   4.851  10.913   4.753 -0.2206  0.2434  0.0479
11220W        W26351   8.693  10.674   4.849 -0.3023 -0.0318  0.0670
11221W        W26352  18.257   9.572   3.731 -0.0934  0.3391 -0.2271
11222W        W26353  16.028   2.845   4.382 -0.1628 -0.3932  0.1688
11223W        W26354  10.884   8.944   3.617  0.1972  0.0506 -0.0046
11224W        W26355  14.371  10.632   5.697 -0.0407 -0.0781  0.2035
11225W        W26356  16.757   1.172   4.381 -0.1630  0.1244 -0.0720
11226W        W26357  13.623   5.554   5.702 -0.3064 -0.3479  0.1283
11227W        W26358   9.474   1.328  14.796 -0.2393 -0.3990  0.0387
11228W        W26359   1.023  10.275  10.369  0.1048  0.3470 -0.2488
11229W        W26360  14.002  15.091   1.683 -0.0928 -0.1003  0.2948
11230W        W26361   7.081   4.544   0.670  0.0842  0.1175 -0.3180
11231W        W26362   8.713  11.197  14.792  0.0156  0.1454 -0.1054
11232W        W26363   5.584   1.822  11.337  0.0406  0.0857  0.3314
11233W        W26364   7.213  11.761   4.323 -0.1846 -0.1539 -0.1142
11234W        W26365   1.380  10.835   0.440 -0.2150  0.0129 -0.1294
11235W        W26366   9.997   6.165  12.397  0.0651  0.0397 -0.0282
11236W        W26367  15.637   3.822   3.100  0.0436  0.0536 -0.1226
11237W        W26368  14.949  16.612   2.688  0.0024 -0.1919 -0.0221
11238W        W26369   3.515   8.617  14.491  0.1713 -0.1095 -0.0531
11239W        W26370   9.012   2.546  14.855 -0.0969 -0.5414  0.2889
11240W        W26371   5.242   3.470   3.647  0.1765 -0.1056  0.0091
11241W        W26372   4.828  16.842   4.645  0.1914  0.3355  0.0991
11242W        W26373  10.088   6.937  11.482  0.0699 -0.1304  0.0540
11243W        W26374   6.380   5.076   5.023  0.1423  0.1909  0.0591
11244W        W26375   5.917   9.925  11.087  0.3994 -0.2021  0.1778
11245W        W26376  13.914  17.899  15.698  0.0970  0.0368 -0.1902
11246W        W26377  13.430   8.966   1.023 -0.1228 -0.2294  0.0701
11247W        W26378  13.218   0.293  11.584 -0.1277  0.0725 -0.0765
11248W        W26379  17.381  17.098  12.470  0.1009  0.0582  0.4183
11249W        W26380   5.215  13.184   2.387  0.0113 -0.1674  0.2901
11250W        W26381   9.292  13.554   4.075  0.1349 -0.0172 -0.2545
11251W        W26382   7.977   4.849   4.360 -0.1410  0.0778 -0.0448
11252W        W26383   3.787   8.328   2.478  0.1158  0.0671  0.1704
11253W        W26384   8.914  18.146   1.671 -0.1454  0.0615  0.3531
11254W        W26385  13.214  11.009   2.956  0.0135  0.1364  0.3085
11255W        W26386   4.687  15.839   2.379  0.2118 -0.0131  0.1168
11256W        W26387  10.847   6.545  14.373 -0.3329  0.1340 -0.1581
11257W        W26388  12.415  16.503   1.521 -0.0164  0.2745 -0.1240
11258W        W26389   8.339  13.737  13.280  0.0572  0.0838  0.1344
11259W        W26390  13.922  17.114   0.762  0.1358  0.0412  0.3635
11260W        W26391  11.624   6.290   5.173  0.3705  0.1836 -0.0787
11261W        W26392   5.266  10.516  11.176 -0.0928  0.0803  0.0806
11262W        W26393   3.144   9.229   3.529 -0.3040 -0.5274 -0.1497
11263W        W26394   4.292   2.538   2.628  0.0339  0.0863  0.4526
11264W        W26395   4.907  14.175  14.444 -0.0354  0.1035  0.5343
11265W        W26396  16.498   5.182   0.664 -0.3639  0.1460  0.0800
11266W        W26397  12.215   6.129   3.083 -0.1273 -0.1682  0.0182
11267W        W26398   3.550  17.082   1.653 -0.4548 -0.0373  0.1395
11268W        W26399  17.322   7.511   1.672  0.1262 -0.1417 -0.4544
11269W        W26400  11.036  12.313   6.257  0.3386  0.1621 -0.1586
11270W        W26401   3.751   1.734   0.374  0.1015 -0.2398 -0.2462
11271W        W26402   9.364  15.058   0.792 -0.0820  0.0848 -0.0291
11272W        W26403  16.271  12.261  11.988  0.0411  0.2162  0.3430
11273W        W26404   8.700   2.988   0.868 -0.3424 -0.0865  0.3591
11274W        W26405   0.550   0.183  15.922 -0.1819  0.0945  0.1512
11275W        W26406  12.564  16.416   0.444  0.1556 -0.3517 -0.0218
11276W        W26407   0.333  12.363  16.085 -0.2898  0.0866  0.1137
11277W        W26408   3.580  14.492   1.061  0.1907 -0.4047 -0.4139
11278W        W26409   7.760  14.560   2.824 -0.0756  0.0099 -0.0035
11279W        W26410   6.082   6.533   1.986  0.2446 -0.1921  0.0758
11280W        W26411   3.117   7.204   2.853 -0.0484 -0.1004  0.1896
11281W        W26412  15.834   4.318   2.329 -0.1636  0.1885  0.0992
11282W        W26413  14.134  12.044   1.424  0.1160 -0.0229 -0.3180
11283W        W26414  10.951   8.862   1.867  0.1733  0.0486 -0.0088
11284W        W26415  14.524  14.558   0.876  0.0560 -0.0604  0.0619
11285W        W26416   5.380  10.069   4.249 -0.1813  0.0099  0.2806
11286W        W26417   7.862   1.354   4.389  0.1364 -0.3190 -0.0753
11287W        W26418  11.238   0.595  12.354  0.3634 -0.0288  0.3961
11288W        W26419  17.494   8.462  12.559  0.2485 -0.0103  0.1869
11289W        W26420   6.393   8.589  14.546  0.3310  0.0086  0.4539
11290W        W26421  12.601   1.493  13.940  0.1308  0.1675  0.1374
11291W        W26422   9.654  10.071  16.105 -0.0320  0.2586 -0.1354
11292W        W26423   9.293  14.211  11.654 -0.0699  0.0066  0.0666
11293W        W26424   3.035  14.427   5.604 -0.1014 -0.3171 -0.0188
11294W        W26425  15.826  11.859   3.211  0.1660  0.2486  0.1755
11295W        W26426   4.445   3.079   1.985  0.0010 -0.2168  0.4310
11296W        W26427  17.108  13.060  15.182  0.4408  0.2252 -0.1377
11297W        W26428   7.966  12.415   3.444  0.3861  0.0870 -0.0269
11298W        W26429  10.704   5.225   3.511  0.0507 -0.1327  0.0872
11299W        W26430  10.026   3.276  11.951 -0.0307  0.0993 -0.0695
11300W        W26431  17.154   9.597  13.804  0.2685 -0.1297 -0.2047
11301W        W26432  16.171   8.295   0.864  0.2421 -0.0783  0.1856
11302W        W26433  12.739   8.806  11.229  0.0049 -0.0103  0.2210
11303W        W26434  16.371   5.445  12.777  0.1070  0.2102  0.0596
11304W        W26435  16.463  13.089   4.107 -0.1649 -0.0993  0.0462
11305W        W26436  12.874   5.732  12.740  0.0999  0.6288 -0.1180
11306W        W26437  17.344   0.721   0.986 -0.0119  0.0254  0.0271
11307W        W26438   0.221   3.451  15.193  0.0470 -0.0116 -0.1834
11308W        W26439  15.138  10.788   3.915 -0.1189  0.1933  0.0084
11309W        W26440   1.963   0.129  12.936  0.0302 -0.0680  0.2159
11310W        W26441  14.078   5.936  12.463 -0.0246 -0.0429  0.0019
11311W        W26442   8.999   7.062   2.937 -0.3168 -0.0978 -0.0338
11312W        W26443  16.088  17.363   5.455 -0.0375  0.1620  0.0232
11313W        W26444  18.253   1.147  14.175 -0.1293  0.0484 -0.2773
11314W        W26445   1.973   2.079  13.984  0.1669  0.0967  0.0931
11315W        W26446  16.726   9.160   0.707 -0.1119 -0.2438 -0.0980
11316W        W26447   0.314   7.891   2.464 -0.1612  0.0013 -0.0219
11317W        W26448   1.354  14.613  12.240 -0.3562 -0.0092 -0.4947
11318W        W26449   6.251   7.777  12.620 -0.1414  0.0342 -0.0092
11319W        W26450   8.355  17.268   0.012  0.0098 -0.3475 -0.0754
11320W        W26451   7.904   0.402   1.873 -0.3967  0.3060  0.2996
11321W        W26452   0.707   2.473  15.164  0.1533 -0.1459  0.1472
11322W        W26453   2.384  15.217   0.849  0.0604  0.1993  0.2855
11323W        W26454  11.077  11.481   3.248 -0.2205 -0.3214 -0.1772
11324W        W26455  12.617  11.699   0.800 -0.1581  0.0731 -0.1062
11325W        W26456  11.832  14.082  15.939 -0.3512 -0.0954  0.0514
11326W        W26457   6.055  17.860   5.630  0.1472 -0.2541 -0.1492
11327W        W26458  13.705   1.393   0.061 -0.0690 -0.2428 -0.1021
11328W        W26459  15.228  15.774  11.547 -0.1131 -0.1083 -0.0129
11329W        W26460  10.710  16.303  15.712 -0.0672  0.1139  0.1664
11330W        W26461   2.266  11.095  13.406 -0.1469 -0.0634  0.0726
11331W        W26462  10.257  18.345   3.561 -0.0052  0.1442  0.1210
11332W        W26463   5.801  11.533   4.580  0.2306  0.2505 -0.1703
11333W        W26464  15.426   6.588   4.087 -0.1309 -0.1254  0.0015
11334W        W26465  10.169   8.795  10.559  0.3017  0.0589  0.0705
11335W        W26466   2.657   3.852   4.895 -0.1844  0.2733 -0.1504
11336W        W26467  11.275   9.024   5.217 -0.2350  0.0847 -0.1144
11337W        W26468  10.152   9.717   4.775 -0.0501 -0.1694  0.1053
11338W        W26469  12.697  13.146  14.280 -0.0877  0.3567 -0.0226
11339W        W26470   7.958   9.929  10.666  0.1034 -0.0082  0.3456
11340W        W26471   1.115   4.943  11.957 -0.3026  0.3192  0.0156
11341W        W26472  17.252   0.254   1.586 -0.1726 -0.1379  0.1915
11342W        W26473  11.317   1.218  14.261  0.2642  0.2440  0.0906
11343W        W26474   3.082  11.459   5.372 -0.2201  0.1023 -0.0082
11344W        W26475  13.107   7.735  13.709  0.3692 -0.0449  0.1332
11345W        W26476   0.041  12.609  15.204  0.2677 -0.1318  0.2958
11346W        W26477   3.080   4.784  11.961 -0.3167  0.1386  0.0275
11347W        W26478   9.356   9.757  10.943 -0.0941  0.1505  0.0965
11348W        W26479   0.480  14.877   5.148 -0.2715  0.1044  0.1678
11349W        W26480   2.208  17.324   2.040  0.0432 -0.2510  0.0246
11350W        W26481  10.501   3.894   3.597  0.2585 -0.0560 -0.1665
11351W        W26482   6.450  16.545  11.657  0.3402 -0.3259  0.6341
11352W        W26483  17.255  12.569  12.716  0.1661 -0.3701  0.2731
11353W        W26484   5.516  14.735  12.799  0.2335 -0.3939  0.3684
11354W        W26485   8.419   3.042   5.600 -0.0891  0.3517 -0.0107
11355W        W26486   0.112  14.660  13.450 -0.1901  0.0472 -0.0356
11356W        W26487   4.636  10.283  11.816  0.1428  0.1584  0.2064
11357W        W26488   8.359   7.395  11.367 -0.0651  0.2177 -0.1131
11358W        W26489   8.419  11.933  10.714  0.1549  0.1190  0.1376
11359W        W26490   8.975   9.494  11.114 -0.2459 -0.0870  0.1244
11360W        W26491   2.120  12.503  13.610  0.1281 -0.2270  0.0403
11361W        W26492   6.259  10.269   3.787 -0.1771 -0.1993  0.0216
11362W        W26493   5.801   4.867  12.133  0.1100  0.4612  0.1555
11363W        W26494  16.459  15.854  11.402 -0.2550 -0.1802  0.1949
11364W        W26495  15.282  16.407  12.795 -0.0548 -0.0927 -0.4059
11365W        W26496   3.172   1.338   4.144 -0.0671 -0.0051 -0.2786
11366W        W26497  17.248   6.667  15.955  0.1146 -0.1916  0.5118
11367W        W26498   0.408  13.129  11.560 -0.1606  0.3162  0.0704
11368W        W26499   2.659  13.322  10.984  0.1340 -0.0740 -0.1331
11369W        W26500  14.238   2.113   1.237  0.0313 -0.1681  0.1836
11370W        W26501   9.114  12.197  11.648  0.0792 -0.2512 -0.1010
11371W        W26502  16.609  16.136   1.752  0.1868  0.0267  0.2539
11372W        W26503   1.094   1.801   4.906 -0.1178 -0.0661  0.1309
11373W        W26504  15.315   4.171   3.249 -0.4319  0.2338  0.0741
11374W        W26505  15.037   2.683  14.606  0.1501  0.0045 -0.0245
11375W        W26506   5.165   5.064  11.456 -0.0659 -0.0424  0.0090
11376W        W26507   2.342   7.628  11.092 -0.1369 -0.0599 -0.1243
11377W        W26508   6.450  12.745   9.674  0.1575 -0.1702  0.0326
11378W        W26509  11.052  15.424   4.470  0.2018  0.2941  0.0057
11379W        W26510  16.772   6.117   6.029  0.2029  0.0636  0.0812
11380W        W26511   7.651   5.431   2.429 -0.1071 -0.0071 -0.1512
11381W        W26512   5.114   5.292   0.508  0.0119  0.2203  0.2216
11382W        W26513  17.695  14.482  12.939  0.3011 -0.0475  0.2203
11383W        W26514   0.458  17.314  12.457 -0.0775 -0.0985 -0.2794
11384W        W26515  13.515   5.649  12.552  0.2189  0.0918 -0.0317
11385W        W26516  15.804  10.096   4.270 -0.1461 -0.3454  0.1740
11386W        W26517   0.672  10.848   4.507  0.0034 -0.2804  0.0233
11387W        W26518  17.587   7.724  14.322 -0.0954 -0.0842 -0.0346
11388W        W26519   6.929   1.946   0.396  0.0372 -0.1330  0.1285
11389W        W26520   9.138  17.387   4.132 -0.0612 -0.0399 -0.5230
11390W        W26521  12.949  11.130  11.104  0.0136  0.1355 -0.1339
11391W        W26522  16.435  11.963  11.311  0.1609 -0.3913  0.0378
11392W        W26523   3.364  15.453  13.584 -0.0940 -0.0359 -0.0111
11393W        W26524  16.664  13.914  16.010  0.0457 -0.1189 -0.0243
11394W        W26525   9.703   8.200   0.892  0.0500  0.0132  0.0197
11395W        W26526   9.083  12.939   4.580  0.0153 -0.2239 -0.0712
11396W        W26527   5.357   3.756   0.622 -0.0804  0.2021 -0.2257
11397W        W26528  17.228   9.845  11.864 -0.1266  0.0576  0.3455
11398W        W26529   9.045  14.647   3.009 -0.3632  0.0012  0.1490
11399W        W26530   2.959  15.010   1.901  0.4798  0.0051 -0.0127
11400W        W26531   5.658  18.089  14.532  0.0840 -0.3780  0.1782
11401W        W26532   6.467  17.677  11.319 -0.0130 -0.1216 -0.1928
11402W        W26533  15.199   7.167  12.016  0.2521  0.2218 -0.3101
11403W        W26534  14.338   3.447   2.710  0.1479  0.0983 -0.0751
11404W        W26535  14.147  12.194  13.324  0.1298  0.3657 -0.0976
11405W        W26536   2.972  10.909   2.780  0.0752  0.0844  0.0739
11406W        W26537   9.649  14.549   4.862 -0.2269  0.1491 -0.2426
11407W        W26538   5.445   2.970   3.743  0.1258 -0.1279 -0.1808
11408W        W26539  11.416  17.323  12.088 -0.2276 -0.1433  0.0692
11409W        W26540   4.741   8.243   1.421 -0.2671  0.1707  0.1921
11410W        W26541   2.734   9.912   4.221 -0.2110 -0.3087 -0.1104
11411W        W26542  16.445  17.377  13.261  0.0975 -0.2842  0.2575
11412W        W26543   8.632  17.104  13.786 -0.1662 -0.0321  0.2388
11413W        W26544   0.368  11.496  13.678  0.1792  0.0644  0.0240
11414W        W26545   8.202   2.415   0.179  0.0297 -0.2020  0.0209
11415W        W26546  16.769  10.286  13.661  0.1299  0.2337  0.0354
11416W        W26547   4.306  18.330  13.752 -0.1403  0.3531  0.2673
11417W        W26548   5.839   3.996  14.339  0.0288 -0.2457 -0.0963
11418W        W26549  18.142   7.963  15.302  0.2552  0.1284  0.1472
11419W        W26550  11.920  16.293  14.850 -0.0632  0.2658  0.2885
11420W        W26551   9.278  14.602  11.247  0.0487 -0.0280 -0.0382
11421W        W26552   9.388   1.752  13.456  0.1424 -0.3161  0.1038
11422W        W26553  12.603   9.670  12.767  0.2520  0.3848  0.1736
11423W        W26554  17.679   5.200  15.375  0.4995  0.2040  0.2858
11424W        W26555   2.032  17.264   4.073 -0.2175 -0.4184 -0.0866
11425W        W26556  12.731   0.517  14.042  0.0821  0.2863 -0.3279
11426W        W26557   7.071  18.245   0.666  0.3300 -0.0730  0.0640
11427W        W26558  14.046  17.228   5.156 -0.0471  0.3186  0.0107
11428W        W26559   7.469   2.684   0.430  0.1702  0.3499  0.0793
11429W        W26560   1.065   6.912  15.636 -0.1207  0.3916  0.0440
11430W        W26561  17.477   9.706   2.518  0.0536 -0.0782  0.0637
11431W        W26562  14.969  16.052  14.334 -0.1757  0.0790 -0.0975
11432W        W26563   1.714   0.373   2.857 -0.2689 -0.1807 -0.0368
11433W        W26564   4.185  15.727   1.417 -0.1257  0.1154  0.1584
11434W        W26565   0.533  14.484   4.775  0.1448 -0.0448  0.0184
11435W        W26566   5.927   1.997   5.242 -0.0527 -0.0391 -0.0880
11436W        W26567  12.409   0.102  12.758 -0.2517 -0.0787  0.1810
11437W        W26568  12.664  12.941   2.467  0.0446 -0.2569  0.1054
11438W        W26569   2.540   7.284  15.463  0.2304 -0.0276 -0.0907
11439W        W26570  13.780  17.360  14.438 -0.0776 -0.1480  0.0801
11440W        W26571  15.847  15.108  16.020 -0.3068 -0.1422 -0.2769
11441W        W26572  15.208   6.828   3.095 -0.0226  0.0389  0.4186
11442W        W26573   4.764  11.287  11.445 -0.0424  0.1494 -0.1773
11443W        W26574  11.744   7.218  12.353 -0.0763 -0.0715  0.1457
11444W        W26575   2.332   5.084  15.768 -0.0426  0.0606  0.0211
11445W        W26576  15.508   6.578  15.975 -0.0181 -0.0827 -0.3564
11446W        W26577   0.336   8.034   4.469 -0.0342 -0.1576 -0.0475
11447W        W26578  14.985   0.852   2.063 -0.3870 -0.0209 -0.1520
11448W        W26579   5.247   2.833   1.910 -0.3085  0.0570  0.4296
11449W        W26580   9.764   4.180  16.097 -0.0498 -0.1547 -0.3177
11450W        W26581   8.548  10.711   3.331 -0.3662 -0.2531 -0.3424
11451W        W26582   8.358   9.882   4.384  0.1323 -0.2369  0.2221
11452W        W26583   3.954   4.696   5.073 -0.0250 -0.0638  0.0886
11453W        W26584  11.200  16.538  13.111 -0.1928  0.2662 -0.1640
11454W        W26585   3.007   3.260  15.587 -0.5377  0.8159  0.1169
11455W        W26586  17.068   2.529   5.859  0.1668  0.4170 -0.0977
11456W        W26587  16.147  13.477   1.906 -0.0769  0.0164  0.0501
11457W        W26588   6.941  15.330  14.531  0.3570  0.1444 -0.0256
11458W        W26589  11.704  10.121  14.451  0.1444 -0.0266  0.1835
11459W        W26590   7.152   5.803  15.265 -0.1181  0.0088 -0.1192
11460W        W26591  16.595   2.314   5.650 -0.2567 -0.0042  0.0341
11461W        W26592   5.074  16.689   5.071  0.4077  0.0459 -0.0392
11462W        W26593   2.988  17.387   3.840 -0.0857 -0.0094  0.0287
11463W        W26594  13.093  18.333  14.701  0.2010 -0.1951 -0.2994
11464W        W26595   5.297   2.756   4.170 -0.2146  0.0742 -0.0328
11465W        W26596   8.887   1.009  13.062 -0.3391  0.0114  0.1071
11466W        W26597   4.310   8.509   3.579  0.0757 -0.4242  0.1154
11467W        W26598   7.617   9.011   1.420 -0.1055  0.0119  0.1710
11468W        W26599   1.816  15.234   3.500 -0.0741 -0.2724  0.0279
11469W        W26600   4.794   5.387   4.409  0.0564 -0.0300  0.1854
11470W        W26601   5.497   8.560   0.816 -0.0140  0.0854 -0.1834
11471W        W26602  10.688  17.816   2.423  0.1746  0.0494 -0.2095
11472W        W26603   4.277  15.158  13.048 -0.0310  0.1149  0.0712
11473W        W26604  16.452   1.480   5.062 -0.1610  0.2701 -0.1904
11474W        W26605   7.533  11.484   5.218  0.0700  0.1035  0.4453
11475W        W26606  16.213   3.408   1.889  0.0287 -0.0728  0.1457
11476W        W26607  16.031   8.712   2.722 -0.0466 -0.1151  0.1022
11477W        W26608  16.371  12.648   3.982 -0.0656  0.0492 -0.1839
11478W        W26609  13.095   1.557  14.031  0.1461 -0.2338 -0.1832
11479W        W26610   4.270   4.247   3.601 -0.0551 -0.1222 -0.4138
11480W        W26611  12.149  11.877  10.924 -0.3583 -0.2802 -0.3159
11481W        W26612   3.304   2.429   3.681  0.1081 -0.0575 -0.4554
11482W        W26613   1.638  17.033   3.964  0.2246  0.0027  0.0215
11483W        W26614   6.598   5.961   3.129  0.0093 -0.0925 -0.2278
11484W        W26615  16.121  14.900  10.757  0.2398 -0.0803  0.1341
11485W        W26616  12.303   5.187   4.557 -0.0016 -0.1101  0.1621
11486W        W26617   9.775  10.381   2.296  0.2287  0.0948 -0.1157
11487W        W26618  13.898  17.190  12.498 -0.0466  0.0316  0.1083
11488W        W26619   5.438   4.772   4.926 -0.1211  0.0950 -0.3973
11489W        W26620   5.444   3.087   4.653  0.1687 -0.3276 -0.2179
11490W        W26621  16.206   3.719   5.499 -0.0610  0.2709  0.0510
11491W        W26622   2.430   2.334   3.466  0.0557  0.2990  0.0620
11492W        W26623   7.438  14.516  14.598  0.0700  0.1082 -0.0979
11493W        W26624   8.478   6.439   0.493  0.1928  0.0948 -0.0720
11494W        W26625  18.110  13.466  15.229  0.1922 -0.0478 -0.1876
11495W        W26626  11.600   4.422  14.798 -0.0909 -0.1915 -0.0887
11496W        W26627   4.581   7.440   4.983 -0.1881 -0.0603 -0.2008
11497W        W26628  17.204   1.218   3.654 -0.3445 -0.1166 -0.0551
11498W        W26629   3.876  16.260  11.148  0.0302  0.0693  0.0465
11499W        W26630   2.100   7.378   0.596 -0.1593  0.1978  0.0542
11500W        W26631   2.343  18.155   5.040  0.0691 -0.2362 -0.1432
11501W        W26632  11.177   3.105   2.917 -0.2383 -0.2085  0.0709
11502W        W26633   0.137  10.820   1.475  0.0522  0.0077  0.1433
11503W        W26634   8.452  11.455   3.172 -0.0195  0.0364  0.4150
11504W        W26635   5.966  13.638  13.588  0.2552  0.1243  0.4070
11505W        W26636  14.113   2.580  14.909 -0.2725  0.3283 -0.0357
11506W        W26637  15.658  14.494  13.387 -0.4079  0.4689  0.1874
11507W        W26638   6.197  10.683  11.444  0.1541 -0.4448  0.3929
11508W        W26639  12.987   9.849  13.665  0.0311 -0.3628  0.2908
11509W        W26640   1.617   4.526  15.814 -0.0082 -0.0450  0.1350
11510W        W26641   6.274   5.519  15.761  0.1052  0.0155  0.0021
11511W        W26642   5.768   5.098  10.868  0.0288  0.1316 -0.1566
11512W        W26643   6.099  17.829   0.667 -0.3246 -0.1116 -0.2397
11513W        W26644   9.735  18.290   3.217  0.1086  0.0632 -0.2158
11514W        W26645  16.339  18.119  10.903 -0.0075 -0.2072  0.4189
11515W        W26646  16.364   5.301  11.776  0.1447  0.1883 -0.3319
11516W        W26647   0.414  11.109  12.966  0.3761  0.1474  0.0883
11517W        W26648  17.712   4.612  12.622  0.0656 -0.1202 -0.0015
11518W        W26649   4.260   9.679  13.413  0.0074 -0.1706 -0.0350
11519W        W26650   0.959  17.669   2.599 -0.1536 -0.4682  0.0591
11520W        W26651  16.138  12.985   3.106 -0.0994  0.0925  0.1334
11521W        W26652  17.871  13.736  11.239 -0.0467 -0.2240  0.0976
11522W        W26653   2.880   7.440   1.957  0.2567 -0.2453  0.3808
11523W        W26654  14.829  14.880  14.715 -0.1599 -0.1924 -0.0615
11524W        W26655   8.700  10.587   4.285 -0.0530 -0.0391 -0.0831
11525W        W26656  12.831  10.728   1.700  0.2947  0.3200 -0.1901
11526W        W26657   6.285   5.705  10.111 -0.0298 -0.0975  0.0067
11527W        W26658   1.014   0.350   2.492  0.0940  0.1349 -0.0436
11528W        W26659  11.990   6.589   1.373  0.0440  0.1523  0.0667
11529W        W26660   8.892   5.845  11.539 -0.0422  0.2890  0.0103
11530W        W26661  15.084   1.406   2.080 -0.1733  0.3774 -0.1184
11531W        W26662  15.585   5.833  15.227  0.0488  0.2123 -0.2618
11532W        W26663   1.457  12.921   2.906  0.4461 -0.3020 -0.1726
11533W        W26664  15.456   1.641   2.338  0.1525 -0.1151 -0.5570
11534W        W26665   7.840   1.388   0.301 -0.1857 -0.1466 -0.0120
11535W        W26666  13.747  15.646   5.182  0.0335  0.1093  0.2368
11536W        W26667   2.205  12.870  10.369  0.1596 -0.0133  0.0978
11537W        W26668  16.485  15.014   4.147  0.1208  0.0723  0.4014
11538W        W26669   6.506   4.435  11.632 -0.1817 -0.1111  0.3034
11539W        W26670  10.997   5.860  11.848 -0.0046  0.1444  0.2130
11540W        W26671  13.197   9.694  14.555  0.0786 -0.0522 -0.0744
11541W        W26672  12.004   1.281  15.606  0.1481  0.1282 -0.0697
11542W        W26673  13.596   7.626  13.009  0.0602  0.0927  0.0716
11543W        W26674  11.378   7.333   2.706  0.2556  0.0497 -0.0279
11544W        W26675  10.595  16.870  14.564 -0.0595  0.2281 -0.1026
11545W        W26676  13.846   4.056   5.693 -0.0422  0.0345 -0.2980
11546W        W26677   9.005  10.281  14.265 -0.0723  0.1316  0.0068
11547W        W26678  16.691   2.782   1.682  0.1277  0.1420  0.1122
11548W        W26679  11.023   0.316   3.244  0.1021  0.0497  0.1767
11549W        W26680   9.201   4.169   5.362 -0.0469  0.0134  0.0450
11550W        W26681   2.048   3.689   2.268  0.3271  0.3558  0.0098
11551W        W26682   7.723   2.642  13.373 -0.1425  0.0752  0.0546
11552W        W26683   5.422  17.698  13.730 -0.0781  0.0390 -0.0521
11553W        W26684   6.106   0.428  14.979 -0.0219  0.3266 -0.0647
11554W        W26685   0.855   1.067   1.460  0.0540 -0.0605  0.0217
11555W        W26686  11.839  15.503  12.164 -0.0761  0.3952 -0.3210
11556W        W26687  13.568  15.616   3.779  0.0459 -0.2843 -0.1623
11557W        W26688   5.910  10.004  11.579  0.1538 -0.0075 -0.1065
11558W        W26689   3.746   4.313   2.786 -0.3521  0.1274 -0.0692
11559W        W26690  10.992   5.930   5.600 -0.0187  0.1530  0.0682
11560W        W26691   6.343   3.932  14.269 -0.1972  0.1268  0.1754
11561W        W26692  13.908  12.789  15.092  0.0844  0.2363 -0.0088
11562W        W26693  16.775  10.608  13.256  0.2867  0.1761  0.1091
11563W        W26694  14.568   9.905  12.974  0.1096 -0.1695  0.0254
11564W        W26695   0.490   3.563   1.808 -0.0907 -0.0505  0.1497
11565W        W26696  15.493  16.359   2.012 -0.1740 -0.0285  0.0524
11566W        W26697  16.576   2.337  11.178  0.0209 -0.0145  0.1018
11567W        W26698   2.331   8.430   2.779  0.1086 -0.0840  0.3970
11568W        W26699  17.590  12.444  11.546 -0.0466 -0.0021  0.0742
11569W        W26700  10.505   0.769  15.487 -0.2034  0.3623  0.0681
11570W        W26701  15.293   6.674   5.875 -0.0305  0.1183 -0.1035
11571W        W26702   5.044   8.435   0.933 -0.4156  0.3482 -0.1961
11572W        W26703   4.847   9.553   3.005 -0.1123  0.2245  0.0610
11573W        W26704  14.897   1.638  14.507 -0.0867  0.1562  0.5590
11574W        W26705  18.279  12.040  15.982  0.0981 -0.0163 -0.2623
11575W        W26706   7.071   8.919  15.343  0.0726  0.1662  0.3387
11576W        W26707   6.748   5.149  16.033  0.0610  0.5450 -0.3430
11577W        W26708  10.834  15.005   1.116 -0.4649  0.0455 -0.2346
11578W        W26709   5.836  12.120   4.170  0.4135 -0.1751 -0.0722
11579W        W26710   5.537  14.771   4.793 -0.0975 -0.1083 -0.0747
11580W        W26711  15.751   3.750  14.882  0.4393 -0.1131  0.2564
11581W        W26712   6.978   3.990   2.728  0.2065  0.0187 -0.1606
11582W        W26713   6.888  13.421  12.686 -0.2383  0.0711  0.4228
11583W        W26714  11.123   0.648  11.195 -0.0945  0.1881  0.1420
11584W        W26715   1.621   8.320  11.552 -0.1849  0.1380  0.2514
11585W        W26716   2.577  11.822  12.309  0.0278  0.0034 -0.1268
11586W        W26717  17.803  18.094   5.217 -0.1925  0.0983 -0.1472
11587W        W26718   3.071  11.938  15.774  0.0293 -0.3561  0.0771
11588W        W26719   8.431  11.784  13.300 -0.1162 -0.4117 -0.3287
11589W        W26720   9.411   4.574   5.095  0.1480  0.3770 -0.0974
11590W        W26721   6.840   6.177  13.510 -0.1507 -0.3325 -0.3706
11591W        W26722   2.810  14.265   3.634  0.0217  0.0415  0.2701
11592W        W26723   1.455   0.791  13.524  0.0064  0.2121 -0.1459
11593W        W26724   7.801  13.107  12.782 -0.0864 -0.0124  0.1510
11594W        W26725  10.934  13.933   0.361 -0.4620 -0.1781  0.2206
11595W        W26726   8.105  11.574  11.568 -0.0844 -0.1370 -0.2614
11596W        W26727   4.500  12.808  11.325 -0.0940  0.0182  0.0261
11597W        W26728  11.499  14.344  11.472 -0.2488  0.2654  0.0327
11598W        W26729   1.726   0.290  12.079 -0.2669 -0.1667  0.0091
11599W        W26730  13.393   8.381  12.538 -0.0020  0.1535 -0.0248
11600W        W26731   0.673  18.362   2.237  0.2117 -0.2439 -0.1685
11601W        W26732  12.280   5.504   4.984  0.2202 -0.0028 -0.0043
11602W        W26733  12.423   8.834  11.666 -0.1241  0.4154 -0.0968
11603W        W26734   9.543   7.410   2.801  0.1114 -0.1343  0.1811
11604W        W26735  12.055   0.461   0.288  0.2049  0.2871 -0.0321
11605W        W26736   2.580   5.561  11.300 -0.0228 -0.0252  0.0677
11606W        W26737  17.737  12.909   1.526  0.2774  0.0334 -0.3761
11607W        W26738   6.179   2.532   3.274 -0.0945 -0.2145 -0.0211
11608W        W26739   7.015   5.239  13.699 -0.1034 -0.0400 -0.0191
11609W        W26740  12.935  17.704   4.394  0.0644 -0.2295 -0.1693
11610W        W26741   6.441  13.722  15.319 -0.2024 -0.2228 -0.1423
11611W        W26742  15.566  11.491   2.480 -0.1195  0.1116  0.0754
11612W        W26743  17.800   1.876  15.085 -0.0149  0.3485  0.1314
11613W        W26744   2.268  14.526  11.532  0.0722 -0.3290 -0.1014
11614W        W26745   2.806  14.058   2.197  0.1324  0.0644 -0.1908
11615W        W26746   5.211   6.608  11.281 -0.0988  0.0500  0.1226
11616W        W26747   1.452  15.503   3.680 -0.0803 -0.1078  0.1063
11617W        W26748   0.654   8.723  10.639 -0.0577 -0.0765 -0.0485
11618W        W26749   4.301   9.110  10.472 -0.1080 -0.0584  0.1581
11619W        W26750  15.032   3.130  15.419 -0.0719  0.0507 -0.3253
11620W        W26751  15.578  11.204  15.319  0.1691 -0.1029  0.2656
11621W        W26752  17.744   6.543  12.174 -0.0926  0.1959 -0.0166
11622W        W26753   5.227   6.321   0.139 -0.4957 -0.0467  0.1796
11623W        W26754   4.345   1.846   0.779 -0.1523 -0.0460  0.6450
11624W        W26755   4.607   9.233   2.574 -0.0017  0.0892 -0.0291
11625W        W26756   8.928   8.305   2.624 -0.1025  0.0334 -0.0482
11626W        W26757  14.334   6.900  13.879  0.2067 -0.0438 -0.1036
11627W        W26758  11.485  10.492  12.551 -0.0247 -0.0482 -0.1617
11628W        W26759  13.512   1.852   3.614 -0.3206  0.1450 -0.3133
11629W        W26760   2.896   4.221   1.848  0.4244 -0.0569 -0.1429
11630W        W26761   5.973   4.623   5.850 -0.1716  0.1250 -0.1178
11631W        W26762  10.750   2.059   3.872  0.1888 -0.1843  0.0839
11632W        W26763   0.532   0.116  12.553 -0.1740  0.0826 -0.1007
11633W        W26764  10.196   0.088   3.014 -0.0469  0.0879 -0.0915
11634W        W26765   3.637   3.158   2.072  0.2000  0.4231  0.0094
11635W        W26766  12.381  15.097  14.441  0.1541  0.3368 -0.1453
11636W        W26767   5.812  13.073   0.081 -0.1230 -0.4418  0.2290
11637W        W26768   8.722  11.922   5.810  0.0559  0.2017 -0.2471
11638W        W26769   6.607   2.591   4.883 -0.0505 -0.1893  0.0654
11639W        W26770   8.977   1.695   2.014 -0.5072 -0.0275  0.1209
11640W        W26771   1.949  12.335  11.875 -0.1024  0.0877  0.0781
11641W        W26772   0.087   2.876  12.323  0.0041 -0.0416  0.0141
11642W        W26773  15.015   6.171  12.842 -0.3405  0.0941 -0.1747
11643W        W26774   4.817   5.923  10.649 -0.0212  0.0886 -0.0413
11644W        W26775  16.256   3.825  14.889 -0.1613  0.0230  0.0139
11645W        W26776   3.735   8.602  14.961 -0.2766  0.2459 -0.1214
11646W        W26777   6.520  17.386  14.905 -0.0379  0.0815  0.0916
11647W        W26778  16.512   1.277   5.542  0.3700 -0.0176 -0.1364
11648W        W26779   8.007  12.115  13.117  0.0440  0.0734  0.1640
11649W        W26780   8.732   9.583   5.463  0.1550 -0.0327 -0.0902
11650W        W26781   3.730   4.264   1.268  0.0377  0.3918 -0.5416
11651W        W26782   0.980  17.262  14.503  0.2169  0.0554  0.1601
11652W        W26783   7.757  16.922   0.800  0.0081 -0.0174 -0.2175
11653W        W26784  17.585   7.335   5.049  0.0845 -0.0934 -0.0706
11654W        W26785   5.800  11.383  11.379 -0.0646  0.1423 -0.1805
11655W        W26786   5.695   8.386  13.911  0.0130  0.0579  0.0667
11656W        W26787  11.583   1.502  11.351 -0.0139 -0.1360 -0.2334
11657W        W26788  10.849   0.695  12.858  0.2352  0.1716  0.0306
11658W        W26789  15.757   9.584   1.740 -0.3651  0.0511  0.1656
11659W        W26790   3.681   9.725   2.661  0.1603 -0.1337  0.2328
11660W        W26791   7.113   3.598  13.260 -0.1368  0.1182 -0.1580
11661W        W26792   8.852  15.820  13.218 -0.2492 -0.3473 -0.1565
11662W        W26793   3.415  14.169   4.157  0.2276 -0.1567 -0.0098
11663W        W26794  12.920  10.923   1.255  0.0350  0.1250 -0.0186
11664W        W26795   7.818  15.388   4.973  0.0026 -0.2383  0.2080
11665W        W26796   5.548  17.208  13.034  0.2947 -0.1132  0.0655
11666W        W26797   7.597   0.605   6.300 -0.1335 -0.1802 -0.2388
11667W        W26798   9.398  13.520  15.934  0.2601 -0.0922  0.1127
11668W        W26799  16.532   2.067   1.046 -0.0592  0.2001  0.3898
11669W        W26800  17.259  10.494  13.593 -0.1442 -0.0179  0.0615
11670W        W26801   1.054   3.790   4.493 -0.0935  0.1836  0.1044
11671W        W26802   0.197  13.365   4.193 -0.1600 -0.0417  0.1040
11672W        W26803  14.374   5.057  10.152  0.2173  0.1812  0.3849
11673W        W26804   4.026  17.140   0.127 -0.0011  0.2162  0.0171
11674W        W26805   0.259   2.306  12.312 -0.2182 -0.1017 -0.0582
11675W        W26806  14.720   9.851   3.806  0.0402  0.2075  0.3628
11676W        W26807   6.536   4.969   1.710 -0.0179 -0.0491 -0.1036
11677W        W26808   4.909   9.514   1.498 -0.0746 -0.0094  0.0120
11678W        W26809   7.066   5.512   5.324  0.1379 -0.0859  0.0438
11679W        W26810   2.079  15.702  12.330  0.2719  0.0321 -0.1473
11680W        W26811   2.274  15.537   4.666  0.0270  0.0354 -0.1179
11681W        W26812  13.115   1.195   0.437 -0.0304 -0.0475 -0.3698
11682W        W26813  12.952  12.995   5.117  0.0160 -0.2414  0.2004
11683W        W26814   2.447  17.896   0.755  0.2255  0.1442  0.1529
11684W        W26815   2.648   4.379   2.263  0.0648  0.1768 -0.2745
11685W        W26816  10.165   7.939   1.022  0.1038 -0.1935  0.0340
11686W        W26817   9.593   4.276  12.075  0.1845 -0.0387 -0.0457
11687W        W26818   8.004  16.474  14.688  0.2315  0.1089  0.1389
11688W        W26819   6.483   9.673  14.971 -0.0769  0.1102 -0.0777
11689W        W26820   0.603  14.536  12.796  0.1637 -0.1607  0.2914
11690W        W26821  12.316  14.720   2.101 -0.1085  0.0634 -0.1674
11691W        W26822  10.798   7.727   0.164  0.0347 -0.0052  0.2581
11692W        W26823  13.091   6.484  10.771 -0.0531 -0.2964  0.2476
11693W        W26824  10.348  12.166   2.229 -0.1247  0.1059  0.3159
11694W        W26825   6.442  13.998  14.254 -0.3043 -0.1136 -0.1008
11695W        W26826  13.265  14.113  13.799  0.0653 -0.0565  0.3785
11696W        W26827   9.328   4.171  11.277 -0.1009 -0.1738 -0.0241
11697W        W26828   7.483  17.252  11.412 -0.1277  0.1223 -0.0291
11698W        W26829   0.467   3.423  13.646  0.0036  0.2589 -0.1207
11699W        W26830  16.522  15.600   1.982  0.0800  0.2053 -0.0390
11700W        W26831   5.934  11.352  10.932 -0.0076  0.1895 -0.2956
11701W        W26832  11.539   3.170   1.993  0.0328  0.1642 -0.0870
11702W        W26833  13.807   8.557   3.735 -0.1797 -0.0520  0.2704
11703W        W26834   7.870   4.790  12.727  0.2329  0.1202  0.0961
11704W        W26835   6.034   7.027   3.927 -0.0831  0.1464 -0.0849
11705W        W26836   1.687  11.502  10.896  0.1396 -0.0523 -0.2598
11706W        W26837  13.239   1.856  11.692  0.0366  0.3623 -0.0676
11707W        W26838   7.019  12.500  13.029 -0.2480 -0.1767  0.4037
11708W        W26839   3.159  12.509   3.418  0.0551  0.3548  0.1784
11709W        W26840  12.070  11.294  11.506  0.0160  0.1616 -0.0424
11710W        W26841   1.221   3.983  14.682 -0.0991  0.1857  0.1189
11711W        W26842  15.796  18.080  14.079  0.3104 -0.3183 -0.1019
11712W        W26843  17.242   6.952   2.513  0.2676 -0.2674  0.2360
11713W        W26844  16.998   6.677   0.792 -0.1524 -0.0146  0.2325
11714W        W26845   1.442  11.258   4.280  0.1388  0.1939  0.2847
11715W        W26846  10.368  12.678   2.639 -0.2155 -0.1228  0.2980
11716W        W26847  15.380  11.318  11.701 -0.0887 -0.1415 -0.1176
11717W        W26848   8.160   4.406  12.013 -0.0868 -0.1956 -0.0656
11718W        W26849   9.948   1.627   0.858 -0.2041  0.4317  0.1455
11719W        W26850   5.422   8.375  10.793 -0.2718 -0.0258  0.0592
11720W        W26851   4.563   2.900  13.654  0.0763  0.3069 -0.0738
11721W        W26852  10.329  14.885  15.641  0.3654 -0.1850 -0.0450
11722W        W26853   0.323   4.669   2.612 -0.0734 -0.0149  0.1122
11723W        W26854  11.059   5.246   3.085  0.1212 -0.1450 -0.0352
11724W        W26855   7.869  13.095  13.676 -0.3126  0.1457  0.1978
11725W        W26856   4.601   2.237   5.349 -0.2948  0.0259  0.0032
11726W        W26857  17.404  17.426  14.645 -0.0310  0.1533 -0.1571
11727W        W26858  12.761  17.200   0.593  0.1498  0.1330 -0.0713
11728W        W26859  13.186   4.727   0.352  0.0193 -0.0402  0.2230
11729W        W26860  10.848   6.308  15.943 -0.0510  0.3124 -0.1761
11730W        W26861  17.203   8.004  13.495  0.2610 -0.0211 -0.0470
11731W        W26862  14.620  16.494  16.058 -0.0257 -0.0512 -0.1245
11732W        W26863   1.323   7.935  14.824  0.0800 -0.2794  0.0832
11733W        W26864  16.622  11.594   3.965  0.0858 -0.0099 -0.0266
11734W        W26865   0.042   7.776   1.318 -0.1483  0.1945 -0.0641
11735W        W26866   2.980   0.006   3.383  0.0850 -0.1486 -0.0376
11736W        W26867   8.811   4.688   2.486 -0.1882  0.0411 -0.1278
11737W        W26868   0.390   4.227   0.480  0.2353  0.0392  0.2801
11738W        W26869  11.224   6.907   2.448 -0.1912 -0.4367  0.2314
11739W        W26870  14.528   4.244   4.511  0.0253  0.1493 -0.1102
11740W        W26871   8.495   6.906   3.011  0.2232  0.0965 -0.0438
11741W        W26872  14.292  18.088   4.661 -0.1410  0.1824  0.2187
11742W        W26873   0.533   2.211  11.586 -0.2335  0.3607  0.0711
11743W        W26874   7.328   8.904  11.225  0.0003  0.1416 -0.1018
11744W        W26875   9.011  18.077  12.890 -0.0268 -0.2285 -0.1193
11745W        W26876  12.222  13.931   4.841 -0.0426 -0.1861 -0.0235
11746W        W26877  12.103   4.956   0.206  0.0770 -0.0129 -0.0789
11747W        W26878   4.344  16.454   3.679  0.0899 -0.2648 -0.1412
11748W        W26879  15.595  17.982   4.540 -0.1981 -0.3960  0.0685
11749W        W26880  11.467   2.055  12.351 -0.1835  0.1158 -0.0356
11750W        W26881   1.579  15.349  13.516 -0.0751  0.1618 -0.2765
11751W        W26882  12.903   0.018  14.204 -0.0718  0.0341 -0.2528
11752W        W26883   8.641   0.027  13.182 -0.0911  0.1132  0.0488
11753W        W26884   2.106  17.416   3.400 -0.0779  0.0072  0.1472
11754W        W26885   8.342   7.012   5.387  0.0960  0.1315  0.0066
11755W        W26886  12.649  12.586  13.077 -0.0889  0.0225  0.0423
11756W        W26887  14.865  15.065   4.165  0.2529 -0.1060  0.2051
11757W        W26888   4.083   0.307   2.009  0.1858 -0.3417 -0.2048
11758W        W26889  11.845   0.340  14.787 -0.0664 -0.4240 -0.0257
11759W        W26890   9.606  16.288  14.546  0.4729  0.0292  0.4591
11760W        W26891  10.413   0.011   0.155  0.0280 -0.0012  0.2439
11761W        W26892   9.480   4.114   1.192  0.1419  0.0956  0.1832
11762W        W26893  15.763   2.156   5.514  0.0374 -0.2232  0.1216
11763W        W26894   9.392  17.480  16.011 -0.3786 -0.1435 -0.2478
11764W        W26895   6.348   9.215  10.615  0.1776 -0.0086  0.1247
11765W        W26896  16.811   1.702  15.507  0.0926  0.1363  0.2249
11766W        W26897   9.590  14.666   0.094  0.2517 -0.1483 -0.0397
11767W        W26898   2.017  12.221   0.929 -0.0843 -0.1788  0.0228
11768W        W26899  14.547   3.436   2.246 -0.1271 -0.0143 -0.1007
11769W        W26900   3.079   4.041  13.232 -0.1352  0.0828 -0.0290
11770W        W26901  17.167   7.408   4.183  0.1301 -0.0423 -0.0289
11771W        W26902  15.013   8.939  14.707  0.1267 -0.1811  0.2761
11772W        W26903  16.456  11.091  13.367 -0.2798  0.1911 -0.0834
11773W        W26904   9.746   6.840   0.945 -0.0338  0.2930  0.1722
11774W        W26905   3.819   8.535   4.562 -0.0133  0.2415  0.1453
11775W        W26906   5.407   3.795   5.837  0.2059  0.0619 -0.2402
11776W        W26907  12.681   1.254   4.313  0.1758  0.2963 -0.1049
11777W        W26908  10.241   2.791   4.105  0.1107 -0.2181 -0.2596
11778W        W26909  16.986  11.716  15.502 -0.0296  0.0861  0.1172
11779W        W26910  11.491   9.850   2.950 -0.0691  0.0570  0.0432
11780W        W26911  14.225  15.368   1.163 -0.2227 -0.0397 -0.3898
11781W        W26912   1.704  18.056  14.492  0.0853  0.0152 -0.1157
11782W        W26913   8.990   9.769  11.760 -0.0038  0.1235  0.1291
11783W        W26914  17.564  10.051  11.045 -0.3074  0.2245  0.1871
11784W        W26915   9.546  12.526  11.688  0.1090  0.0398  0.3006
11785W        W26916  16.518   6.369  15.164  0.0253  0.1196 -0.1049
11786W        W26917  14.917   1.290   0.837  0.0274  0.0253  0.0060
11787W        W26918   7.231   8.310  11.649  0.2433 -0.3060  0.0956
11788W        W26919  15.919   2.194   0.519 -0.1875 -0.1831  0.0955
11789W        W26920   4.748   0.958   2.853 -0.1694 -0.1171  0.0943
11790W        W26921   2.001  17.364  12.609 -0.2487 -0.0564  0.1330
11791W        W26922   5.958  12.030  12.043 -0.1167 -0.1287 -0.0575
11792W        W26923   0.196  18.342   5.463 -0.1010  0.0798 -0.4246
11793W        W26924   7.679   4.900  14.073 -0.0857 -0.1040 -0.2867
11794W        W26925   0.170  13.224  14.473 -0.1477  0.0728  0.0139
11795W        W26926   3.751   1.834  14.586 -0.0458  0.1614  0.1608
11796W        W26927   0.511  13.398   3.817  0.1168 -0.1453  0.4070
11797W        W26928   6.143   5.548  11.115  0.1231 -0.3148  0.0524
11798W        W26929  16.160   7.937  13.961 -0.2347 -0.3770  0.1697
11799W        W26930  11.721  12.810   5.968 -0.1983  0.1198  0.1306
11800W        W26931   0.344  10.880   0.124 -0.0332  0.0645 -0.1818
11801W        W26932   4.664   8.768   3.430  0.0702  0.1209  0.0123
11802W        W26933  12.489  10.322  14.861 -0.1518  0.1824 -0.3618
11803W        W26934   7.404   1.604   5.461 -0.1385  0.2735 -0.1387
11804W        W26935  15.912  13.507   2.872  0.1010  0.0307 -0.1098
11805W        W26936  17.868  16.353  15.022  0.3236  0.2497  0.0155
11806W        W26937   7.431   9.170   4.510 -0.0053 -0.3371 -0.0581
11807W        W26938   4.207   8.565   0.639  0.1112  0.0299 -0.0326
11808W        W26939   8.654   8.595   4.279 -0.1160  0.3608  0.0058
11809W        W26940  13.742   5.173  14.872  0.1289 -0.2042 -0.0088
11810W        W26941   8.323  11.474  10.934  0.3350  0.2167 -0.2416
11811W        W26942   6.123   3.480   2.316 -0.2716  0.1083  0.1358
11812W        W26943  10.915   9.987   3.685  0.0393  0.1881 -0.2501
11813W        W26944  14.779   2.566   5.209  0.2839  0.1610  0.1170
11814W        W26945  17.308   6.376  11.318  0.0316 -0.2579 -0.0776
11815W        W26946   0.739   3.899   5.118 -0.1641  0.0740  0.3760
11816W        W26947  10.469   3.053   0.195  0.0174  0.1858 -0.2805
11817W        W26948  13.047  10.823  14.070 -0.0095 -0.2773  0.0652
11818W        W26949   3.090  11.673   1.299 -0.0198  0.1374  0.0221
11819W        W26950   1.218  15.561  15.835  0.1231 -0.3038  0.0770
11820W        W26951   1.725   0.058   0.625 -0.0284 -0.1096 -0.1041
11821W        W26952  12.782  10.481   4.766 -0.1559  0.1204 -0.0076
11822W        W26953   1.990  12.457  12.400 -0.0080  0.1915  0.1352
11823W        W26954   4.809   2.516   4.131  0.1246  0.0103 -0.2536
11824W        W26955   8.311  18.149   3.356 -0.2340  0.0481  0.0201
11825W        W26956   4.277  16.430  13.325  0.2972  0.1973 -0.2547
11826W        W26957   9.247   8.059   1.201  0.3202 -0.0762  0.0331
11827W        W26958   9.777  14.482   3.958  0.1171  0.1823  0.3226
11828W        W26959   0.407   3.241  12.348 -0.0463 -0.2785  0.1872
11829W        W26960  15.025  11.090  13.652  0.0765  0.1352  0.0009
11830W        W26961  16.039  11.925  11.710 -0.2411  0.1072  0.1331
11831W        W26962   9.765   4.693  15.966  0.1641  0.4338 -0.1368
11832W        W26963  15.537   8.114   3.611  0.0273 -0.1069 -0.1519
11833W        W26964  14.776   7.491  11.985  0.2134  0.0072 -0.0511
11834W        W26965  17.678   2.868   0.889 -0.1693 -0.3945  0.2087
11835W        W26966   6.954  13.515   2.359 -0.1730  0.0809  0.0421
11836W        W26967   3.737  11.253   4.154  0.1201  0.1938 -0.2172
11837W        W26968   7.586  17.993   5.441 -0.1737 -0.0789  0.1250
11838W        W26969   5.456   6.237  11.006  0.1855  0.0428  0.0591
11839W        W26970  15.816   7.616   4.947 -0.1048  0.2741 -0.0880
11840W        W26971   2.901  15.546   5.232  0.1933  0.2002 -0.0247
11841W        W26972   3.870  17.634  15.029  0.2244  0.0808 -0.1507
11842W        W26973   2.514  12.051  11.743 -0.0856 -0.2252 -0.1927
11843W        W26974   7.126   3.946  13.638 -0.0257  0.0489 -0.1908
11844W        W26975   1.951  11.852   1.835 -0.0068  0.1745 -0.0946
11845W        W26976  14.208   1.943   0.775 -0.0099 -0.0951 -0.2639
11846W        W26977   2.928  13.237  14.396 -0.1039  0.1759 -0.1589
11847W        W26978   4.672   7.183  12.435  0.0912 -0.0764  0.0372
11848W        W26979   5.113  16.471   3.924 -0.0594  0.1181 -0.1503
11849W        W26980   2.815   5.030   4.739  0.3556 -0.1299 -0.3522
11850W        W26981   1.427   9.197  12.209 -0.0344  0.1499  0.1276
11851W        W26982   2.071  17.865  12.793 -0.2880  0.0376 -0.1065
11852W        W26983   1.451   5.336   0.277  0.4680 -0.4233 -0.0649
11853W        W26984   4.137   9.781   0.169 -0.2722  0.4955 -0.1791
11854W        W26985   8.689  16.325   3.188 -0.0469 -0.2988 -0.3848
11855W        W26986   2.131   2.929  14.985  0.1502 -0.1643 -0.0787
11856W        W26987   2.847  10.959  15.920 -0.2916  0.0890 -0.3324
11857W        W26988   6.928  11.847   1.957  0.2550  0.2950  0.1034
11858W        W26989   9.441   6.816  10.602  0.0737 -0.2086 -0.0407
11859W        W26990  14.459   1.013  12.488 -0.1670  0.3407 -0.2686
11860W        W26991  10.200   9.280   4.371  0.1794 -0.0100  0.1318
11861W        W26992  10.383   0.821  14.953  0.3773  0.0506 -0.2342
11862W        W26993   2.200  11.504   4.103  0.1097 -0.1268 -0.2872
11863W        W26994   2.375   9.924   3.280 -0.0325  0.2726  0.1975
11864W        W26995   0.515  17.124   2.032  0.0605 -0.0770  0.1809
11865W        W26996   2.386   3.678  11.673  0.1533  0.3443 -0.1003
11866W        W26997  15.530  12.271  12.302 -0.2320  0.3253  0.1561
11867W        W26998  12.985   2.049  14.166 -0.1297 -0.0654  0.1429
11868W        W26999   4.053  17.181   4.333 -0.1456 -0.1801  0.1651
11869W        W27000  15.478   2.533   2.312 -0.2126  0.0162  0.1300
11870W        W27001   1.147   6.901   2.029  0.1890 -0.1982  0.0483
11871W        W27002  11.118   1.722  12.051 -0.1759  0.0436 -0.0430
11872W        W27003  14.097  16.574   4.595 -0.3659  0.2752  0.0714
11873W        W27004   6.956  10.252  11.843  0.3601  0.0217 -0.2816
11874W        W27005  14.888  10.325  11.257  0.1012 -0.2871  0.0012
11875W        W27006  13.533   4.423   4.704 -0.4538 -0.0806 -0.0204
11876W        W27007   2.002   6.401   5.792  0.4264  0.0084  0.0651
11877W        W27008  12.068   9.672   5.008  0.0911 -0.3307  0.0818
11878W        W27009   1.899   4.797  10.152  0.2339  0.2820  0.0861
11879W        W27010   7.354   5.919   3.977 -0.2390  0.2064  0.1927
11880W        W27011  12.173   6.446   5.166 -0.1128  0.2423  0.0407
11881W        W27012  13.500   3.302   5.409  0.1504  0.1541 -0.1445
11882W        W27013  15.850  13.039  11.067  0.4779  0.2192  0.0652
11883W        W27014   9.069  13.288   3.668 -0.2445  0.1249 -0.3788
11884W        W27015   6.929   0.228   2.120 -0.1593 -0.1176 -0.2155
11885W        W27016  18.211   5.540   2.176 -0.1195  0.1497 -0.1478
11886W        W27017   2.188   7.861   3.180 -0.1685  0.2552  0.1965
11887W        W27018  12.363  18.164   1.511  0.0640 -0.1536  0.2586
11888W        W27019  17.504  13.274   9.749 -0.1590  0.0608  0.0499
11889W        W27020  10.497   6.964  12.361 -0.1130 -0.3638 -0.1476
11890W        W27021   5.198  14.346  14.825 -0.0288 -0.0900  0.1515
11891W        W27022  14.944  13.470   4.310  0.4605 -0.1028 -0.1649
11892W        W27023   7.492  11.443   1.477 -0.5077  0.3528 -0.4069
11893W        W27024   1.655  17.547   3.800  0.1106 -0.0633  0.1405
11894W        W27025   7.405  13.782   5.235 -0.1076  0.0647 -0.2431
11895W        W27026  15.833   8.371   6.369 -0.0555 -0.0590  0.2212
11896W        W27027  10.517   5.673  12.130  0.1197 -0.1594 -0.0893
11897W        W27028  14.335  13.651   4.136 -0.0155  0.1969  0.2335
11898W        W27029   9.360   2.235  11.525 -0.0105 -0.0037  0.2946
11899W        W27030   9.026   4.045  13.955 -0.0783 -0.1227  0.1104
11900W        W27031   9.199  10.367  13.792 -0.1441  0.3319  0.3841
11901W        W27032  10.219  17.029   4.970 -0.0584 -0.0296  0.0193
11902W        W27033   0.785   4.039  12.944 -0.0625  0.0099 -0.2191
11903W        W27034  10.185   4.961  13.231  0.0098  0.2924  0.1022
11904W        W27035  14.169   7.054   1.526  0.1635  0.1534  0.0661
11905W        W27036  17.467   4.166   1.226 -0.1233 -0.0235 -0.2887
11906W        W27037   8.708  12.168  16.071  0.2111 -0.0592 -0.0835
11907W        W27038  10.100  10.967   4.379 -0.1442  0.3080 -0.1504
11908W        W27039  14.414  13.593   3.631  0.0916  0.2680 -0.0162
11909W        W27040  16.759   4.558  12.926  0.0117 -0.2605 -0.0530
11910W        W27041  13.890   9.949   0.493 -0.0281 -0.2999  0.2592
11911W        W27042  17.190  11.428   5.484 -0.0224  0.0800  0.0498
11912W        W27043   6.676  17.787  15.446 -0.0173 -0.1208  0.1279
11913W        W27044   4.961  11.258   9.874  0.0408  0.3150  0.0391
11914W        W27045  16.897  17.765   0.087 -0.0223  0.2624  0.2774
11915W        W27046   4.812   8.348   3.609 -0.0951  0.3807 -0.2051
11916W        W27047   6.974  17.416  13.994 -0.1424  0.0117  0.3040
11917W        W27048   4.243  17.048  13.122 -0.3373 -0.2154  0.0092
11918W        W27049  10.676   1.100   0.676  0.0372 -0.4074 -0.1195
11919W        W27050   5.438  12.373  10.908  0.1652  0.2520 -0.0788
11920W        W27051   9.889   8.341  15.462  0.0100  0.0015  0.1729
11921W        W27052   3.417  13.548  15.966 -0.3298 -0.2628  0.6193
11922W        W27053  15.991   5.854   1.287  0.0867 -0.1710 -0.6240
11923W        W27054   1.590  18.292   0.131 -0.1504 -0.1991 -0.0770
11924W        W27055   8.891   2.693   1.284 -0.0882 -0.0640  0.0674
11925W        W27056  12.394   6.368   5.775 -0.0292 -0.2785 -0.1580
11926W        W27057   1.759   7.951  11.880 -0.2383  0.2725  0.2919
11927W        W27058   1.708   5.836   4.661  0.0712  0.1370  0.0052
11928W        W27059   5.076   3.744   4.646 -0.2132 -0.0418 -0.0452
11929W        W27060   5.847  17.535  15.920  0.1336 -0.1210 -0.0959
11930W        W27061   1.772  13.475  12.593  0.0138  0.0587  0.0457
11931W        W27062   6.801  17.337   3.793 -0.0278 -0.1213 -0.0729
11932W        W27063   0.976   9.171  14.922  0.1331 -0.1338 -0.5886
11933W        W27064  10.212  11.357  12.880  0.0483 -0.0561  0.3763
11934W        W27065   9.971  15.828  15.476  0.1300  0.1346 -0.2382
11935W        W27066  16.281  13.118  10.779 -0.0546  0.0664 -0.4001
11936W        W27067   6.597  11.400   2.938 -0.0471 -0.0353 -0.1565
11937W        W27068   5.178  15.560   3.226 -0.0366  0.0233 -0.4830
11938W        W27069   6.454   2.650  14.514 -0.3428  0.1095 -0.2716
11939W        W27070   4.473   1.586   1.213 -0.0147  0.0212  0.1623
11940W        W27071   0.009   5.175  13.608 -0.0998  0.0460  0.1473
11941W        W27072   8.310  16.973   0.888  0.0760  0.0876 -0.2469
11942W        W27073  14.710  12.186  11.604 -0.1179 -0.1115 -0.1005
11943W        W27074   2.305   7.219   5.503 -0.2158  0.0036  0.1239
11944W        W27075  14.263   5.979  14.685 -0.0819  0.1779 -0.2349
11945W        W27076  15.944   7.690   0.234  0.0176 -0.1200 -0.0222
11946W        W27077  13.338  13.966  14.395  0.2218 -0.1806 -0.0750
11947W        W27078  17.514  14.737  12.199  0.1217 -0.1302  0.0791
11948W        W27079   7.694  14.093  10.491  0.1364 -0.0850 -0.0087
11949W        W27080  16.181   6.514   4.903  0.1230 -0.0930 -0.0382
11950W        W27081   2.495   8.555   4.460  0.0423  0.0051 -0.0471
11951W        W27082   6.785  12.673   1.794 -0.2809 -0.2884 -0.1293
11952W        W27083  13.279   8.865   1.585 -0.2856  0.0075  0.1779
11953W        W27084  15.860   5.859  12.467  0.2781 -0.1455 -0.1564
11954W        W27085   9.666   9.777  15.262 -0.0632 -0.1463 -0.3356
11955W        W27086  17.472   7.064  12.051 -0.0939  0.2244 -0.1143
11956W        W27087  15.663   4.568   1.473  0.0605 -0.0486 -0.2210
11957W        W27088   8.576   4.105   5.205 -0.0742  0.0730 -0.2035
11958W        W27089  12.192  11.369   4.514  0.0794 -0.0112 -0.3571
11959W        W27090  14.597   4.541   0.552 -0.0775 -0.0134 -0.2183
11960W        W27091  10.977   3.312   0.443  0.0640  0.2396  0.1653
11961W        W27092   1.033  15.910   1.893 -0.0458 -0.1344 -0.0843
11962W        W27093  12.881  14.960  11.209  0.2708  0.0235 -0.1013
11963W        W27094   9.933   7.526   3.885  0.1127 -0.2085 -0.2644
11964W        W27095   8.628  14.960   1.877 -0.1032  0.0523  0.0920
11965W        W27096  12.165   6.974  13.188  0.0294 -0.1747 -0.2413
11966W        W27097   1.511  16.980  13.819 -0.2275 -0.2129  0.0436
11967W        W27098  15.807   6.691   4.658 -0.2091  0.0089 -0.0309
11968W        W27099   8.458   6.396   3.195 -0.0586 -0.1795 -0.2339
11969W        W27100   3.866   8.910   0.759 -0.4475  0.1010 -0.0158
11970W        W27101   6.539   2.472  12.948 -0.2891  0.0414 -0.0467
11971W        W27102  13.753  14.054   3.585 -0.0803 -0.0140  0.1516
11972W        W27103  13.860  16.013  15.711  0.4978  0.2143 -0.2104
11973W        W27104  17.754   3.208  13.628  0.2482  0.0194 -0.1857
11974W        W27105   1.325  17.888   2.998 -0.4232 -0.0014  0.2430
11975W        W27106   3.419  16.871   1.198 -0.0032 -0.1322  0.1068
11976W        W27107   9.230  15.567  13.392  0.2583  0.0038 -0.0030
11977W        W27108  17.200  10.532   5.069  0.1752 -0.2057 -0.1407
11978W        W27109  12.767   0.928  12.754 -0.1053  0.0420 -0.0413
11979W        W27110  14.236  11.899   4.991  0.0793 -0.1399  0.0257
11980W        W27111  14.302  16.801   4.121 -0.1810  0.0216 -0.0655
11981W        W27112   1.026  16.802   1.046  0.0061 -0.2233 -0.3026
11982W        W27113   6.893   6.910   2.478  0.3106  0.0652 -0.0267
11983W        W27114  14.208  16.680   2.022  0.1303  0.0644 -0.3741
11984W        W27115   2.296  16.624  13.315 -0.0673 -0.2300  0.2193
11985W        W27116   3.846  17.243  15.354 -0.1825  0.0878  0.0876
11986W        W27117   3.324  17.754  14.352 -0.2014  0.1857 -0.1748
11987W        W27118   0.088   6.032   3.952  0.0840 -0.1143  0.0615
11988W        W27119   3.316  13.363  13.707 -0.2141  0.0622 -0.1830
11989W        W27120   4.659   3.330  11.251  0.1321  0.1620  0.1030
11990W        W27121   2.316   5.986   5.732 -0.0542  0.1136 -0.0081
11991W        W27122   1.333   5.281  14.749 -0.0278 -0.1030  0.1232
11992W        W27123   5.881  13.060   1.066 -0.1186 -0.0718 -0.0688
11993W        W27124   2.618   3.715   5.628  0.0519  0.1183 -0.2930
11994W        W27125  17.555   3.923   4.086 -0.1532 -0.0442  0.1578
11995W        W27126   9.348   4.379   0.135  0.0433 -0.1041 -0.2998
11996W        W27127   3.628   8.280  13.150  0.2634  0.0079  0.1595
11997W        W27128   1.835   9.887  15.704  0.4323  0.1082 -0.0319
11998W        W27129   8.205  15.161   1.758  0.1116  0.0358 -0.1616
11999W        W27130   2.421   1.278   0.535 -0.0516  0.1789  0.0444
12000W        W27131   7.694  12.697   2.930 -0.0474  0.1711  0.1006
12001W        W27132  13.513   2.219  15.350  0.1143 -0.2158  0.1137
12002W        W27133  10.542  13.098  14.619 -0.3106 -0.1689  0.2033
12003W        W27134   2.091  10.090  12.857 -0.1792  0.0955  0.1611
12004W        W27135   8.239  14.586  12.854  0.0459  0.0995  0.3092
12005W        W27136  12.805   2.097   6.038 -0.1551  0.1044 -0.0703
12006W        W27137   3.636  14.359  11.673  0.2990 -0.0368  0.0646
12007W        W27138  17.807  17.609   1.407  0.0474 -0.2678  0.2996
12008W        W27139   9.776  15.815  12.337  0.0841 -0.1906 -0.2246
12009W        W27140  11.152  12.612   5.414 -0.0001  0.2659 -0.2292
12010W        W27141  12.178  14.399   0.554 -0.2291  0.1923  0.2023
12011W        W27142  14.325   3.689  11.417 -0.1607  0.1098 -0.0030
12012W        W27143   1.122   0.706   4.628 -0.0255  0.1896  0.2118
12013W        W27144   2.632   3.941  10.053  0.0798 -0.1583 -0.1684
12014W        W27145   7.073   4.864  15.178 -0.3379  0.0709  0.1813
12015W        W27146  13.861   0.306   4.045 -0.0624  0.1566 -0.2109
12016W        W27147   3.515   1.598   1.160  0.0766  0.1542  0.2503
12017W        W27148   1.770   0.562   5.699  0.1876 -0.2512 -0.1929
12018W        W27149  12.593   5.619  15.603  0.1221 -0.1279 -0.0884
12019W        W27150   5.932  17.795  12.015 -0.1703 -0.3500 -0.1977
12020W        W27151  15.226  17.148  15.949 -0.2030  0.1478  0.0094
12021W        W27152  11.829   5.439  12.205  0.0932  0.0216 -0.3120
12022W        W27153  12.571  16.750  13.216  0.0829  0.0101 -0.1909
12023W        W27154  14.829  17.268   4.518  0.0526 -0.0925  0.0325
12024W        W27155  16.689   4.618   4.665  0.1699 -0.0421 -0.0895
12025W        W27156   4.414   3.254   1.048 -0.0697  0.0252  0.0385
12026W        W27157  15.979  17.578   1.993 -0.1118 -0.0744 -0.2139
12027W        W27158  16.740   6.361  12.651 -0.2836 -0.0584  0.1272
12028W        W27159   3.335  10.984  14.798  0.0393  0.0093  0.0697
12029W        W27160  13.323   1.855   2.434 -0.1020 -0.1388 -0.2764
12030W        W27161  12.133  16.296  13.106  0.0889 -0.2467 -0.1344
12031W        W27162  16.161   4.710  10.756 -0.0342  0.0224 -0.0553
12032W        W27163   0.146  11.454  12.667  0.1084  0.1246  0.1775
12033W        W27164   7.487  13.371   0.619 -0.1476 -0.0654 -0.0511
12034W        W27165  16.840  17.945   5.183 -0.0500  0.1945  0.1598
12035W        W27166   7.309  14.533  11.714  0.2382 -0.4915 -0.1009
12036W        W27167   3.895   8.748  10.438 -0.0192 -0.1238 -0.0652
12037W        W27168   5.060   9.022  11.545 -0.1340  0.0679 -0.0491
12038W        W27169   7.757  17.325  11.782 -0.0795 -0.0200 -0.0686
12039W        W27170   9.515   6.145   1.585 -0.0617  0.0712 -0.1330
12040W        W27171   3.915   3.517   2.815  0.0131 -0.2390  0.1999
12041W        W27172   6.874   2.971   3.045 -0.3365  0.3065 -0.0338
12042W        W27173   8.286  12.598  12.954 -0.0828  0.0906  0.0484
12043W        W27174  14.776   9.680  12.543 -0.1360  0.0918  0.0457
12044W        W27175  14.731   1.765   1.944  0.1614  0.3479  0.0235
12045W        W27176   2.929  14.934   1.193 -0.0194  0.1479  0.1461
12046W        W27177  10.274   1.048  11.333  0.0517  0.0696 -0.1260
12047W        W27178  10.001  15.831   4.392 -0.0839  0.3581  0.2364
12048W        W27179   4.893   1.521  15.983  0.1234  0.1225  0.1911
12049W        W27180  13.214  15.214   4.443 -0.3474  0.1649  0.0656
12050W        W27181  11.357  11.933   4.326  0.0013 -0.1681  0.0830
12051W        W27182  14.413  10.794  11.003 -0.0400 -0.1815 -0.1778
12052W        W27183   4.894  13.722  12.906  0.1626  0.2548  0.2224
12053W        W27184  15.257   0.137  15.109  0.0702 -0.1883 -0.0048
12054W        W27185   5.494  15.383  11.164  0.0037  0.2095  0.0146
12055W        W27186  13.834  10.326   3.231 -0.0012 -0.1288  0.2548
12056W        W27187   8.304  11.657   4.950  0.1019 -0.2881  0.1443
12057W        W27188  13.463  18.331  15.913 -0.2435  0.0282 -0.3174
12058W        W27189   8.751   4.823  12.241 -0.2045 -0.2131 -0.0427
12059W        W27190   4.655   0.923  15.125 -0.0223  0.0915 -0.2105
12060W        W27191   5.243   2.091   3.249 -0.2028  0.1052 -0.0741
12061W        W27192  10.416  14.964   0.535 -0.1859 -0.2269  0.0606
12062W        W27193  16.733   8.057  12.268  0.1943  0.3523  0.0836
12063W        W27194   8.214   1.700   2.584  0.0963  0.1771 -0.0464
12064W        W27195  15.873  17.722   4.190 -0.1370 -0.0179  0.2878
12065W        W27196  17.813  15.472   5.141  0.1404  0.1226 -0.1154
12066W        W27197  17.859   9.359  11.559 -0.3310  0.0148 -0.0634
12067W        W27198   3.838  14.785  15.363 -0.0137  0.1596 -0.2182
12068W        W27199   0.816   9.111  12.267 -0.2489 -0.0199 -0.0823
12069W        W27200  17.600   7.883   1.851 -0.3015 -0.0206 -0.0928
12070W        W27201   4.617   9.333  14.995 -0.0124  0.1741  0.2350
12071W        W27202  11.962   9.842   3.833  0.0054  0.3279  0.0665
12072W        W27203   7.479  10.453  13.653 -0.3435  0.0566  0.0695
12073W        W27204  14.230   2.237  15.737  0.1129 -0.0518  0.2249
12074W        W27205  13.070  17.720  12.477 -0.1750  0.0384  0.1791
12075W        W27206  17.105  10.908   3.076 -0.1103  0.3470  0.1706
12076W        W27207   0.542   8.344   4.889 -0.0244  0.1307 -0.2119
12077W        W27208   6.138   6.840   2.883  0.0144  0.0078 -0.1525
12078W        W27209   8.936   1.734  10.849  0.2249  0.0444 -0.0768
12079W        W27210  11.775   0.431   2.703 -0.5714  0.1028 -0.1860
12080W        W27211   4.946   5.835  14.229 -0.1331  0.1646  0.2412
12081W        W27212   9.903   1.651  14.207 -0.1222 -0.1271 -0.2415
12082W        W27213   5.782   7.525  16.087  0.2296 -0.2012  0.0719
12083W        W27214  15.428  13.623  13.181  0.0074 -0.0552 -0.3974
12084W        W27215  12.681   4.649  14.191 -0.1270  0.4273 -0.1185
12085W        W27216   1.576  10.656  11.335  0.1356 -0.2274  0.2476
12086W        W27217  14.925   3.238  13.686  0.0840  0.0187  0.0402
12087W        W27218  15.847   6.567  14.550 -0.0548 -0.0009  0.0008
12088W        W27219  12.424   9.967   4.006  0.0378  0.2112 -0.2382
12089W        W27220  12.917  10.551   2.856 -0.0187 -0.0030 -0.0245
12090W        W27221  15.506  14.669  12.486 -0.1447  0.1403 -0.1926
12091W        W27222   0.660   9.648  14.918  0.0205  0.3645 -0.4478
12092W        W27223  11.204   0.277   1.121  0.1251 -0.1740 -0.2091
12093W        W27224  10.833  15.939  14.209  0.1911 -0.2163 -0.0335
12094W        W27225  17.102   8.837  13.925  0.0842  0.2065 -0.1724
12095W        W27226   6.789   4.449  14.314 -0.0152 -0.0989 -0.0031
12096W        W27227   5.168   0.566   5.221  0.1779 -0.2453 -0.3741
12097W        W27228  11.026   4.418  13.138 -0.0835 -0.0249  0.0806
12098W        W27229   4.096  13.521   2.041  0.0792  0.2627  0.2456
12099W        W27230   7.465   1.928  15.760  0.0837 -0.0437  0.2713
12100W        W27231  11.634   0.200  15.190  0.1320 -0.0534 -0.0617
12101W        W27232  17.071   2.407  13.263  0.3391 -0.0606 -0.0712
12102W        W27233  12.765  13.468  15.119  0.2894 -0.1692 -0.0211
12103W        W27234  14.787   5.784  14.587  0.1509 -0.3633  0.1312
12104W        W27235   4.492  12.497  15.521 -0.2068 -0.1496 -0.0079
12105W        W27236  17.917   1.888   1.234  0.0394  0.4338  0.1186
12106W        W27237   6.339  16.010   2.024 -0.0301 -0.0077  0.0676
12107W        W27238   7.664  13.513  12.271  0.0918 -0.1407  0.2300
12108W        W27239  14.074  14.198  14.790  0.0191  0.0072 -0.3009
12109W        W27240  16.175   8.258  14.708  0.2812  0.0950 -0.5544
12110W        W27241   9.813  13.515  11.243  0.3324 -0.1030 -0.1249
12111W        W27242  15.421   4.693   3.137 -0.0884  0.3215  0.2305
12112W        W27243   2.108   2.943   1.897  0.1813  0.3120  0.3716
12113W        W27244   6.056  15.828   3.503  0.2812 -0.2236  0.0616
12114W        W27245   8.439   2.427  11.281 -0.1562 -0.1294 -0.1814
12115W        W27246   8.515  17.679  12.017  0.0126 -0.2318  0.1002
12116W        W27247   1.236  13.558  11.630  0.3792  0.3443  0.1733
12117W        W27248   3.096   9.097   0.478  0.0797 -0.3599 -0.0990
12118W        W27249   2.474  13.884   2.709 -0.0039  0.0689  0.2111
12119W        W27250  13.465   9.794  13.797  0.0936  0.0664 -0.1024
12120W        W27251   7.204   5.791  10.460 -0.0749  0.1345 -0.1559
12121W        W27252   4.996   8.963  14.487  0.2982  0.2007  0.0928
12122W        W27253  17.891  16.061  10.116  0.0813  0.0028  0.0482
12123W        W27254  18.044   7.377   3.087  0.1024 -0.0990  0.1645
12124W        W27255  12.770   4.447   0.180  0.1332  0.0369 -0.1353
12125W        W27256  10.723   0.382  11.410 -0.1725 -0.0178  0.2165
12126W        W27257   5.746  15.817  10.852 -0.1699  0.1529 -0.0109
12127W        W27258   4.570  12.731   5.082  0.2486 -0.0466 -0.1658
12128W        W27259  11.100   2.625   4.597 -0.1846 -0.0738 -0.1354
12129W        W27260   0.279  11.469  11.048  0.0568  0.3437  0.0863
12130W        W27261   1.484   9.161   0.036 -0.3258 -0.4229  0.2842
12131W        W27262   5.739  12.709   0.638  0.1393  0.0474 -0.3824
12132W        W27263  16.310   7.953   0.512 -0.2105  0.0434 -0.1937
12133W        W27264  17.893   9.107  15.515 -0.0073  0.0405  0.1805
12134W        W27265   4.380  16.799   4.470 -0.1466 -0.1317  0.2179
12135W        W27266   3.480   8.520   5.875  0.3741 -0.0464  0.0884
12136W        W27267  16.751  17.625  11.561 -0.2421 -0.2249 -0.0224
12137W        W27268  17.676   0.364   5.300 -0.1728 -0.1395 -0.1507
12138W        W27269  10.226  11.868  14.571 -0.1061  0.0230  0.1298
12139W        W27270  10.216  10.553  11.758 -0.0785 -0.1721 -0.1528
12140W        W27271   5.513  11.308  12.602 -0.0588 -0.0184 -0.2694
12141W        W27272   2.013  16.141  14.907 -0.1891  0.0536  0.0904
12142W        W27273  10.669   1.964   2.233 -0.1777  0.1249 -0.0549
12143W        W27274   6.737  11.025  11.090  0.1959 -0.0866 -0.2562
12144W        W27275  15.787   7.675  15.259  0.2943  0.0731 -0.2643
12145W        W27276  10.736  14.592   4.452 -0.1051 -0.0514 -0.1395
12146W        W27277   7.364  14.313   5.204  0.0356 -0.1304 -0.1484
12147W        W27278   7.414  12.500   3.456  0.0077  0.1361  0.1669
12148W        W27279   1.808   3.289   5.519  0.0453  0.1127 -0.1126
12149W        W27280  10.453  16.841   3.127  0.2795 -0.1908 -0.0486
12150W        W27281   9.317   6.185  12.907 -0.2425  0.0668  0.2014
12151W        W27282  12.378  13.907   5.287  0.1001 -0.2215  0.1702
12152W        W27283   9.557  11.896   5.146 -0.2183 -0.2167 -0.1237
12153W        W27284  18.218   4.082  10.499  0.0821 -0.0475  0.1503
12154W        W27285   0.253   3.443  10.961  0.1009  0.0811  0.3762
12155W        W27286   9.997  14.296  13.547 -0.2409  0.0076 -0.0627
12156W        W27287   4.630  10.191   4.369  0.1457  0.0134  0.1021
12157W        W27288  10.173   8.536  14.462  0.2341 -0.1932 -0.0805
12158W        W27289   1.132   0.422   1.360  0.0860 -0.1017  0.1879
12159W        W27290   3.427   4.572   5.261  0.1572 -0.1737 -0.3399
12160W        W27291   9.554   4.901  12.145 -0.0706 -0.1921  0.0769
12161W        W27292  16.004   1.264   0.173 -0.1125  0.0517 -0.1352
12162W        W27293   2.961   2.521  12.988 -0.1339 -0.0602 -0.0704
12163W        W27294  11.218   3.673  15.470  0.0356  0.0466 -0.2200
12164W        W27295  12.824   7.252   2.903 -0.1750  0.0073  0.3709
12165W        W27296  13.940  18.317  10.435  0.3326  0.0249  0.1111
12166W        W27297  14.900   1.281  14.913 -0.0632 -0.1274 -0.0145
12167W        W27298  15.814   0.197  15.321  0.0293  0.2953  0.1977
12168W        W27299   6.930  16.530   4.548  0.1585 -0.0083  0.0173
12169W        W27300  11.479   2.398   5.741 -0.1630 -0.1688 -0.1259
12170W        W27301   0.080   4.351  13.528 -0.2449 -0.0212  0.1197
12171W        W27302   8.922   2.434   1.838 -0.1453  0.1026 -0.0841
12172W        W27303  14.919  18.123  11.975  0.1389 -0.0010  0.0812
12173W        W27304   8.788  12.691   3.556 -0.0866 -0.1870 -0.2782
12174W        W27305  11.494   0.132   5.288 -0.2848  0.0205  0.0658
12175W        W27306   6.168   6.600  11.154 -0.3321 -0.2197  0.0578
12176W        W27307   3.965  16.804   4.842 -0.4354 -0.1491  0.0534
12177W        W27308   8.865   8.987   0.147  0.1447 -0.1282 -0.1397
12178W        W27309  11.161  17.364   2.268  0.1685  0.0941  0.0316
12179W        W27310  13.129  14.333  12.281  0.2005  0.0721 -0.0629
12180W        W27311  17.277   4.641  14.284  0.1580 -0.1570  0.0874
12181W        W27312   8.405   9.320   5.045 -0.0926  0.1274 -0.0101
12182W        W27313  10.159   8.434   5.671  0.3124  0.3752 -0.0887
12183W        W27314   8.512   6.754   0.019  0.1075  0.0083  0.1511
12184W        W27315  11.069  11.037   2.160  0.1661 -0.2997 -0.1332
12185W        W27316   8.994  12.567  13.397  0.0128 -0.0070  0.0569
12186W        W27317   3.886   1.709   3.382  0.1098 -0.3313  0.1635
12187W        W27318   3.300   5.672   1.505  0.2153  0.1939 -0.1077
12188W        W27319  15.525   1.021  15.305 -0.2440  0.0005  0.2595
12189W        W27320   6.193  15.334   2.858  0.1158  0.2711 -0.0964
12190W        W27321   8.793   4.464  11.894  0.0903 -0.0506 -0.0254
12191W        W27322   0.304  18.148   4.049 -0.2576  0.0145 -0.3466
12192W        W27323   3.506   0.259   4.729 -0.0222 -0.0453 -0.2125
12193W        W27324  11.690   7.886  10.943  0.1177 -0.1914  0.0440
12194W        W27325  15.885   1.652  13.606 -0.0217 -0.1317  0.1912
12195W        W27326   4.795   7.438  13.735 -0.2188 -0.2293 -0.0464
12196W        W27327  15.863  12.527  11.856  0.1410 -0.2839 -0.2412
12197W        W27328  10.870   0.487  10.382  0.0507 -0.0133  0.2092
12198W        W27329  10.693  12.715   0.999  0.3118  0.4293 -0.1997
12199W        W27330  14.454   5.888   0.766 -0.1006  0.0262  0.1540
12200W        W27331   8.915   8.118  10.864  0.0601 -0.2222  0.2993
12201W        W27332  11.639  17.058   2.609 -0.2159 -0.0619  0.1434
12202W        W27333  11.549   8.501   3.248  0.1128 -0.0993  0.0688
12203W        W27334  12.990  12.225  12.701 -0.0983 -0.0407 -0.1441
12204W        W27335   9.624  14.474   3.474 -0.2184 -0.1358 -0.2070
12205W        W27336   6.317   2.558   0.990 -0.0502  0.1360  0.1091
12206W        W27337  17.278   2.207  16.100 -0.0889  0.1181 -0.1120
12207W        W27338   3.942  16.358   3.998  0.2093 -0.2449  0.2764
12208W        W27339  16.213   4.272   3.835  0.0765  0.2212  0.4281
12209W        W27340  13.448   2.076  12.428 -0.1127 -0.3115  0.3969
12210W        W27341  10.224   6.539   3.243 -0.3813  0.0970 -0.2701
12211W        W27342  11.686  12.523  12.302  0.1509 -0.2107  0.1504
12212W        W27343   8.769   1.562   5.225 -0.1388 -0.1702  0.0226
12213W        W27344  15.424   1.940  12.436  0.5517  0.0632  0.0418
12214W        W27345  17.466  16.361  13.016 -0.3487 -0.0820 -0.0715
12215W        W27346   8.295  16.667  13.142  0.1723 -0.0145  0.0736
12216W        W27347   1.656   0.541   1.369 -0.0484  0.1958 -0.2797
12217W        W27348   0.413   8.723  12.221 -0.1426  0.0564 -0.0988
12218W        W27349   0.961   0.379   4.956 -0.1528 -0.2048  0.1692
12219W        W27350   5.439   0.859  11.251 -0.2113  0.2877  0.0280
12220W        W27351   2.145  10.918   3.277  0.0699  0.1131  0.3908
12221W        W27352  13.459  12.094   2.108  0.0518  0.0912 -0.0887
12222W        W27353  16.221   9.258  11.487 -0.2122  0.0622  0.0521
12223W        W27354   6.588  16.544   0.138 -0.1882 -0.1073  0.1449
12224W        W27355  14.885   0.513  16.053  0.1869 -0.3767 -0.2494
12225W        W27356  16.510  11.109   1.765  0.1230 -0.0921 -0.2791
12226W        W27357  11.164  17.064   0.539  0.0585 -0.3279  0.0369
12227W        W27358  10.871  11.880  13.968  0.1686 -0.1459  0.1412
12228W        W27359   2.592  11.641  15.590  0.2504 -0.0649  0.1102
12229W        W27360  10.088   6.625   0.078  0.0861  0.2922  0.0489
12230W        W27361   7.122   2.355   0.611  0.0747 -0.2779 -0.0791
12231W        W27362   1.714  14.903   3.951 -0.1194 -0.0730 -0.0026
12232W        W27363   1.679   4.739  14.349 -0.0278 -0.0582  0.0170
12233W        W27364   7.594  13.695  14.551 -0.0452  0.0614  0.2246
12234W        W27365  17.137  13.685  11.914  0.0959 -0.0924  0.2958
12235W        W27366   6.368  13.964   5.198  0.0719  0.4841  0.0678
12236W        W27367  16.244   7.658   2.068  0.0573  0.1228 -0.0222
12237W        W27368  14.335  12.321   2.355 -0.0568  0.2462 -0.2873
12238W        W27369  10.752  13.223   4.957  0.2688  0.2242  0.1472
12239W        W27370  18.230  15.892  15.517  0.1940 -0.0722  0.1739
12240W        W27371  16.033   0.840  12.510  0.0961  0.0667 -0.0798
12241W        W27372   6.263  17.776  14.192  0.0519  0.1878  0.2851
12242W        W27373  12.891  14.116  11.343 -0.0123  0.2561  0.0172
12243W        W27374   0.989   5.511   5.967  0.1658  0.0679 -0.0652
12244W        W27375   9.810  15.417   5.098  0.0345 -0.2030 -0.2617
12245W        W27376   0.050   7.416  13.773 -0.1248 -0.2066  0.1837
12246W        W27377  15.336   6.661  12.896  0.4537  0.2089 -0.1997
12247W        W27378   9.138   6.370  12.465 -0.2298  0.2537  0.3257
12248W        W27379   0.727  14.104   4.463 -0.2817 -0.0352  0.1522
12249W        W27380  10.948   1.547  15.386  0.0909 -0.0645  0.1688
12250W        W27381  11.856   5.573   4.738 -0.1431  0.3956 -0.0114
12251W        W27382   9.104  11.268  12.460 -0.0570  0.0434 -0.1325
12252W        W27383  17.648   5.246   3.984 -0.1146 -0.0530  0.2695
12253W        W27384   5.593  13.122  15.634 -0.0137  0.2067  0.0458
12254W        W27385  18.168   5.077  15.677  0.0361  0.0934  0.3478
12255W        W27386   0.445   4.674  10.337 -0.1289  0.3395  0.2137
12256W        W27387   6.666   9.559  11.264 -0.0882 -0.2175 -0.1179
12257W        W27388  16.388  12.543  13.499 -0.3806  0.0177 -0.0335
12258W        W27389   2.076   2.682   2.719 -0.1529 -0.2635 -0.0611
12259W        W27390   0.116   3.076  13.796  0.3435 -0.4078 -0.1255
12260W        W27391  11.045   2.607   2.836 -0.2222  0.0336 -0.4365
12261W        W27392  15.383  11.831   5.887  0.0699 -0.0392  0.0727
12262W        W27393   6.056  17.035   1.879 -0.2418 -0.0636  0.0994
12263W        W27394   1.735   6.072   1.022 -0.3295 -0.0779  0.2515
12264W        W27395  15.731  16.814   4.836  0.0516  0.2639  0.2081
12265W        W27396  17.120   0.219   0.289 -0.1717  0.1099 -0.1591
12266W        W27397   5.416   5.806  14.467  0.2470 -0.2161  0.0637
12267W        W27398  17.196  16.357   0.946  0.0723  0.0809 -0.0663
12268W        W27399   9.314   5.612  12.932  0.0651  0.2181 -0.0919
12269W        W27400   0.463  13.268  15.643 -0.0226 -0.1462  0.0663
12270W        W27401   6.622  10.473  11.505 -0.0026  0.0693  0.1403
12271W        W27402   8.035   4.802   3.031 -0.2437 -0.0564  0.3442
12272W        W27403   5.624  17.165  11.319  0.0989 -0.1483  0.0460
12273W        W27404   6.775   9.861   0.941 -0.0562 -0.1248  0.0203
12274W        W27405  14.156   6.959  13.007 -0.1481 -0.3188  0.2744
12275W        W27406  14.421  16.326   4.265 -0.0160 -0.1397  0.0192
12276W        W27407  17.873  16.057   1.485  0.0567  0.5013 -0.0582
12277W        W27408  10.219  11.269   0.579  0.0293 -0.2132 -0.3024
12278W        W27409  15.694  11.403   1.960 -0.2743 -0.1326 -0.2241
12279W        W27410   3.073  17.004   1.959  0.1245 -0.2601  0.1874
12280W        W27411  13.963   8.957  15.373  0.0480 -0.2784 -0.0819
12281W        W27412   6.882   1.583   3.139 -0.2371  0.0942 -0.2599
12282W        W27413  16.060  16.442   5.049 -0.4188 -0.3280  0.2068
12283W        W27414  12.097  13.987  11.287  0.1783 -0.0560  0.0510
12284W        W27415   6.025   4.511  13.519  0.1061 -0.0478  0.2597
12285W        W27416   7.122   3.926  15.928 -0.0753  0.1927  0.1078
12286W        W27417   4.435   2.036   5.841 -0.0328 -0.0563 -0.3397
12287W        W27418  17.981   9.784   1.096 -0.0081  0.2597  0.2041
12288W        W27419   7.453   2.380   2.738  0.1814  0.1741  0.0570
12289W        W27420   6.998  16.489   5.660 -0.0320 -0.3160 -0.3341
12290W        W27421  10.684   4.091  15.424  0.1991 -0.0555 -0.0334
12291W        W27422  11.008   5.923  13.369  0.0432 -0.0275 -0.2339
12292W        W27423   9.841  17.894   2.214 -0.1786 -0.1043 -0.0812
12293W        W27424   5.585   0.944  14.641  0.2376  0.0180  0.1171
12294W        W27425   2.216   0.783  10.913 -0.1115  0.0489  0.0930
12295W        W27426  13.800   6.033   5.678  0.2592 -0.2142 -0.0644
12296W        W27427  18.169   1.420   0.098  0.2497 -0.2940 -0.4034
12297W        W27428  11.669   7.822  15.379  0.2108  0.1125  0.0556
12298W        W27429   7.956  11.717  13.523 -0.2039 -0.0483 -0.3333
12299W        W27430  17.639  14.570   0.360 -0.0313  0.1306  0.3884
12300W        W27431  14.455   4.042   6.357  0.0035 -0.2471 -0.0128
12301W        W27432  17.888  10.488  12.711  0.1989  0.0615 -0.1855
12302W        W27433   7.610   9.201   2.346 -0.0644  0.0161  0.0677
12303W        W27434  13.151   0.049   2.628 -0.0613  0.3749 -0.0796
12304W        W27435  10.444   8.345  14.842  0.1770  0.1097 -0.3225
12305W        W27436   0.616   5.861  11.434  0.2895 -0.4544  0.1441
12306W        W27437   3.341   2.796  10.484 -0.1865  0.0563 -0.0853
12307W        W27438  11.684   3.043   3.215 -0.0113 -0.0363  0.2513
12308W        W27439   6.282   7.709   2.809  0.1310 -0.1188 -0.0156
12309W        W27440  12.695   3.642  11.890  0.1110 -0.0289  0.0058
12310W        W27441   3.062  10.648   3.723  0.0201 -0.0023  0.0278
12311W        W27442   4.967  11.957  12.328 -0.1046 -0.0915 -0.0140
12312W        W27443  11.613  14.034   4.080 -0.1235 -0.2757  0.0560
12313W        W27444  12.383  11.925   3.025 -0.0108 -0.0075 -0.0816
12314W        W27445  10.556   7.415   4.682 -0.3167 -0.3966 -0.1145
12315W        W27446   2.074   5.704   3.691  0.0673  0.0437 -0.1871
12316W        W27447   7.637  12.655  13.571 -0.0388 -0.1555  0.2845
12317W        W27448  11.197   4.140  13.595 -0.2907 -0.0948 -0.1055
12318W        W27449  13.450   3.967   4.517  0.1432 -0.2808 -0.0037
12319W        W27450  12.984   3.698  12.646 -0.0552 -0.2103  0.2049
12320W        W27451  16.247   6.920  15.761  0.1005 -0.0182  0.2941
12321W        W27452   9.736   3.247   5.019 -0.1232 -0.0257  0.1071
12322W        W27453   7.904   4.683   1.433 -0.0640  0.0964  0.5014
12323W        W27454  13.989   7.004   2.237 -0.3252 -0.3307 -0.1060
12324W        W27455   3.314  10.995  11.876 -0.2093 -0.0822  0.1686
12325W        W27456  12.663  13.473   5.254 -0.2967  0.1373 -0.1114
12326W        W27457  11.106  18.153   3.396 -0.0133  0.1092 -0.0479
12327W        W27458   6.937   9.535   5.305 -0.2105 -0.1157  0.0214
12328W        W27459   8.512   0.211  12.393  0.0994 -0.4226  0.1776
12329W        W27460  14.758   7.184   0.822  0.1470 -0.1112 -0.4792
12330W        W27461   2.953  12.058  11.095  0.1764  0.0218 -0.0409
12331W        W27462  10.409   6.004  11.158  0.0286  0.1642 -0.0391
12332W        W27463   6.723   7.897   6.108 -0.2950  0.0407  0.2256
12333W        W27464   7.304   3.802   3.528 -0.0886 -0.1291  0.3045
12334W        W27465   1.230  10.581   0.891 -0.3346  0.0914 -0.0008
12335W        W27466  11.099  14.619  14.079 -0.0555 -0.2283  0.2717
12336W        W27467  15.168   9.407   1.698  0.0079  0.1061  0.4710
12337W        W27468   4.843  15.066   5.611 -0.1728  0.1206  0.1150
12338W        W27469  14.488   6.554   5.513 -0.2218  0.1776  0.1508
12339W        W27470   7.381   9.790  15.412  0.1658  0.1394 -0.1716
12340W        W27471   4.336  12.295  14.334 -0.1229  0.1847  0.0514
12341W        W27472   2.150   6.007  13.409  0.0042  0.1199 -0.0587
12342W        W27473   0.026   8.318  15.103 -0.1212  0.3396 -0.0824
12343W        W27474   9.321   0.801  15.676  0.2007  0.1457 -0.3352
12344W        W27475  13.909  12.063   0.648  0.0772 -0.0408 -0.0969
12345W        W27476  11.946   6.559  13.140  0.0963 -0.1359 -0.1505
12346W        W27477   1.804  13.985  13.311  0.1045  0.0689  0.1889
12347W        W27478   0.683   3.719  14.955  0.1965  0.0197 -0.0373
12348W        W27479  12.128  13.813  12.229  0.3740 -0.0850 -0.0336
12349W        W27480  11.266  14.398  12.034 -0.1175  0.3190 -0.2054
12350W        W27481  17.156   6.670  14.523 -0.1521 -0.3163 -0.0500
12351W        W27482  18.120  17.011  12.028  0.2333 -0.1582 -0.1734
12352W        W27483   0.502   7.728   0.932  0.0403 -0.0227 -0.0798
12353W        W27484  15.720   0.393   2.541 -0.1281 -0.0491 -0.1325
12354W        W27485  18.114  13.185   1.231  0.0169 -0.3666 -0.0639
12355W        W27486   2.045   3.084   0.334  0.2488 -0.0605 -0.0832
12356W        W27487  11.251   6.774   2.916 -0.1601 -0.4647  0.3142
12357W        W27488   3.483  13.158   1.162  0.0236 -0.0014 -0.3140
12358W        W27489  16.133  14.821   2.071  0.0755 -0.1226  0.3666
12359W        W27490  10.810  10.239   4.554  0.0472 -0.1471 -0.2220
12360W        W27491   6.164  11.462   2.038  0.2439 -0.0524  0.1135
12361W        W27492   8.745   7.692   3.344 -0.5857 -0.3609  0.2602
12362W        W27493  13.227  14.949  16.144  0.3423  0.0616  0.0767
12363W        W27494  11.247   9.094  11.662  0.0324 -0.0080  0.0741
12364W        W27495  17.627  18.178   3.510  0.2885  0.0099  0.1451
12365W        W27496  16.168  17.115   0.778 -0.3348 -0.1614  0.2225
12366W        W27497  15.231   1.573  12.155  0.2481  0.1006  0.3260
12367W        W27498   1.988   3.145  15.505 -0.2611 -0.2300 -0.3437
12368W        W27499   1.094  13.092  14.365 -0.0697 -0.4466  0.3618
12369W        W27500   4.909   4.004  12.824  0.0529  0.4058  0.2210
12370W        W27501   5.633   3.418  12.297  0.0487  0.1276  0.0544
12371W        W27502  13.808   0.368  15.089 -0.1271  0.1116  0.2989
12372W        W27503   0.539  14.061  12.155  0.1879 -0.1209 -0.1722
12373W        W27504   4.051   8.898   0.303 -0.2576 -0.1546 -0.0825
12374W        W27505   0.261   9.222  13.868  0.2046 -0.0089  0.0618
12375W        W27506   4.641   5.744  15.028  0.2578 -0.1559  0.0916
12376W        W27507  15.231   6.676  13.832 -0.0742  0.0576  0.0554
12377W        W27508  14.699   4.742  13.971 -0.0845  0.0217  0.1504
12378W        W27509   8.523  12.270  15.235 -0.1455 -0.1678  0.1505
12379W        W27510   3.648  18.182  11.768  0.0464  0.2274 -0.1477
12380W        W27511  16.571  12.264  14.511 -0.0119  0.2074 -0.0691
12381W        W27512  12.908   4.242   2.109  0.1961 -0.0861  0.2027
12382W        W27513  14.861   1.105  13.246  0.3864 -0.0633  0.1558
12383W        W27514   7.864  13.031  10.342 -0.0092 -0.2092 -0.0935
12384W        W27515  10.937   2.338  13.484  0.0009 -0.1670  0.5512
12385W        W27516  11.685  12.306  11.866  0.1406 -0.2488  0.0891
12386W        W27517   7.353  16.715   4.182  0.1794  0.1985  0.2001
12387W        W27518  17.972  15.838  15.037  0.0811  0.0823 -0.1646
12388W        W27519   8.113   2.873  11.645 -0.3001  0.1214  0.0056
12389W        W27520  17.356   4.441  11.796 -0.2121  0.2038  0.1986
12390W        W27521   0.618   4.440   5.093 -0.1627 -0.1219  0.3980
12391W        W27522   2.550   0.040   1.590 -0.0284  0.3674 -0.3681
12392W        W27523   5.938  10.779  14.554 -0.3210  0.0886  0.0635
12393W        W27524   9.986  15.377   2.382  0.0343  0.2174 -0.0101
12394W        W27525  12.835  13.681  16.015  0.0447  0.0971  0.1398
12395W        W27526  17.014  12.614  14.955  0.0228  0.0361  0.0528
12396W        W27527   1.623   8.317   3.380 -0.1417 -0.3409  0.0229
12397W        W27528  11.909   2.693   4.501 -0.3066  0.1867  0.0437
12398W        W27529   7.930   8.691   1.007  0.0715 -0.2860  0.1553
12399W        W27530   2.344   0.243  10.997  0.0426 -0.1009 -0.0448
12400W        W27531  11.381   7.764  14.688  0.1737 -0.1070 -0.1026
12401W        W27532  10.505   7.523  15.047  0.1336 -0.0482 -0.2326
12402W        W27533  16.494   1.318  15.618 -0.0029  0.3569  0.1982
12403W        W27534  12.192  11.821  15.470  0.0256  0.0232 -0.2324
12404W        W27535   1.571  10.884  12.944  0.0646 -0.1151  0.0985
12405W        W27536   9.861   7.881   2.604 -0.1504 -0.5067  0.1389
12406W        W27537   8.135   7.827   2.144 -0.3114 -0.2614 -0.1470
12407W        W27538   5.525   9.663  13.329 -0.2005 -0.3064  0.0423
12408W        W27539   8.768  10.862  15.696 -0.0513  0.0028 -0.0191
12409W        W27540   2.281   4.443  11.935  0.0129  0.2687 -0.2198
12410W        W27541   6.197   4.963  13.862 -0.1213  0.0373  0.0387
12411W        W27542   6.984  17.916  13.900  0.3428 -0.0449 -0.0160
12412W        W27543   1.245  15.642   4.402  0.0184  0.2164  0.0102
12413W        W27544   3.902  11.994  13.668  0.0072 -0.2293 -0.1047
12414W        W27545   6.300   7.272  11.167 -0.1830 -0.1201 -0.1795
12415W        W27546  14.316  14.147  10.895 -0.2025 -0.1222  0.0783
12416W        W27547  15.937  17.190   3.075  0.2214  0.0199  0.1560
12417W        W27548  14.626   7.039  12.301 -0.0782 -0.4067 -0.0468
12418W        W27549   8.486  17.869  13.037 -0.1752  0.0457 -0.0909
12419W        W27550   4.851   7.055  15.765 -0.3863 -0.0801 -0.2303
12420W        W27551  18.283   0.311   1.838 -0.1222 -0.0430 -0.1885
12421W        W27552   1.185   0.071  11.319  0.2524 -0.1214 -0.3431
12422W        W27553  10.012   0.280  11.444 -0.1228  0.1110 -0.1895
12423W        W27554   0.372  15.132   5.657 -0.1820 -0.0010 -0.2636
12424W        W27555   6.262  11.497  13.211 -0.0207 -0.1408  0.0204
12425W        W27556   2.295   2.137   0.322  0.3730  0.1178 -0.2802
12426W        W27557   3.683  17.637  13.529 -0.0479 -0.0473  0.2279
12427W        W27558   0.748  11.570  11.351 -0.0266 -0.2279  0.2300
12428W        W27559  11.042  13.802  16.022 -0.0349 -0.1315 -0.1184
12429W        W27560   7.631  10.257  16.015 -0.0501 -0.0811  0.1789
12430W        W27561   5.535   5.346  13.281 -0.1551 -0.1587  0.3483
12431W        W27562   9.825   1.691   3.231  0.0260 -0.3255  0.0689
12432W        W27563   2.656   3.019   1.080  0.2928  0.3539 -0.0197
12433W        W27564   4.913   9.842  11.898  0.1747  0.0039  0.1491
12434W        W27565   1.832   5.336  16.064  0.1576  0.0670  0.0225
12435W        W27566  16.120  15.328   1.805  0.0023 -0.0550 -0.1520
12436W        W27567  14.041   3.665   1.722  0.1888  0.1962 -0.4780
12437W        W27568   2.312   8.880   9.611 -0.0331 -0.0616 -0.2160
12438W        W27569   5.290   5.324   1.739 -0.0990 -0.1710 -0.1666
12439W        W27570  15.339   3.742   4.305 -0.1419 -0.0639 -0.0037
12440W        W27571   9.533  11.891   0.396  0.1231 -0.1118  0.2420
12441W        W27572   6.606  13.676  12.329  0.2345 -0.0022  0.2391
12442W        W27573  12.535   1.466  11.865 -0.0896 -0.1348  0.0420
12443W        W27574   3.970  15.278  15.683  0.2964  0.2104  0.1134
12444W        W27575  13.163  17.867  11.850  0.3451 -0.2138  0.0179
12445W        W27576   7.275   2.041   1.694  0.1037 -0.3460 -0.1984
12446W        W27577  15.622  15.116   4.481 -0.2289  0.1013 -0.0174
12447W        W27578  17.541  11.481   3.410  0.1295 -0.0746  0.1179
12448W        W27579  18.184   3.908  12.743 -0.0432 -0.1713  0.1122
12449W        W27580   7.483   2.795  12.929 -0.2134 -0.0886 -0.1934
12450W        W27581   3.070   0.237   2.929  0.2343 -0.1934 -0.0243
12451W        W27582  15.811   5.753  13.976  0.1122  0.2557 -0.0755
12452W        W27583  10.401  14.993   2.640  0.2407 -0.1504 -0.0562
12453W        W27584  17.036   5.913   1.102  0.0917  0.2080 -0.1881
12454W        W27585  10.648  11.458   0.429  0.0417  0.1654  0.0309
12455W        W27586   4.710   1.462   0.770  0.1062 -0.1498 -0.0464
12456W        W27587   4.440   3.825  10.988 -0.0159  0.1002  0.2581
12457W        W27588   6.659   1.621   3.774  0.2759 -0.2258  0.1266
12458W        W27589   7.058  13.563  14.600 -0.2982 -0.1075  0.1725
12459W        W27590   7.923   5.269  11.302  0.0379 -0.1488 -0.2633
12460W        W27591  17.302   6.430   3.831  0.0672 -0.0312 -0.1729
12461W        W27592  16.559  11.155  12.565  0.2273 -0.0964 -0.2015
12462W        W27593  11.426   2.983  14.018  0.0967 -0.0369 -0.1461
12463W        W27594   0.909  18.248  13.649  0.0251  0.0762 -0.0656
12464W        W27595  15.472  18.299   5.597 -0.1669 -0.3214 -0.1178
12465W        W27596   1.202   6.251   4.659 -0.0101 -0.2405  0.2484
12466W        W27597  10.911  15.557   1.247 -0.0063 -0.4680 -0.0434
12467W        W27598   7.242  10.578   2.540  0.1781 -0.1303 -0.1305
12468W        W27599   0.405  17.151   2.652  0.3899 -0.3334 -0.1649
12469W        W27600  14.556   9.757  11.837  0.0192  0.2688 -0.0768
12470W        W27601  17.933  16.244   4.318  0.0688 -0.2178  0.2273
12471W        W27602  18.069   5.817  15.135 -0.2348 -0.0446  0.3263
12472W        W27603   4.422  18.357  12.831 -0.0341 -0.2256  0.0188
12473W        W27604  11.030   5.138   4.302 -0.3825 -0.4129  0.2295
12474W        W27605  13.322  18.101  11.402  0.1339  0.0797 -0.0510
12475W        W27606  11.273   6.235   3.077 -0.7004 -0.0683  0.1939
12476W        W27607   3.782  17.547  11.773 -0.2651  0.0290  0.2166
12477W        W27608  13.138   8.571  13.662 -0.0338  0.0588 -0.0936
12478W        W27609   6.210  10.010   4.243 -0.0341  0.1675  0.1461
12479W        W27610   3.276   9.699   5.742 -0.0496 -0.0642 -0.2767
12480W        W27611   5.224  13.183   5.390  0.1835  0.0754 -0.0425
12481W        W27612   7.370   1.691   1.214  0.1063 -0.5702  0.0222
12482W        W27613   1.443   6.140   4.094  0.0010  0.3147 -0.1408
12483W        W27614   6.522   4.770   2.165  0.0183 -0.2133  0.3383
12484W        W27615  12.195  11.277   0.541  0.0796 -0.2045 -0.2175
12485W        W27616   0.198   7.170   4.213 -0.0320  0.2067  0.0210
12486W        W27617  16.497   1.024   5.118 -0.0779  0.2229 -0.1318
12487W        W27618  11.492   0.178   2.336 -0.1998  0.3530  0.2938
12488W        W27619  13.263  15.388  15.311  0.0471  0.0762  0.2349
12489W        W27620   2.574  17.896  12.733 -0.2323  0.1401  0.1921
12490W        W27621   3.995   0.847  13.326 -0.2642 -0.2630 -0.2849
12491W        W27622   2.292   0.764  15.118 -0.0934  0.1053 -0.1036
12492W        W27623   0.218   5.972  15.855 -0.1893  0.0472 -0.1558
12493W        W27624   6.230   6.372  16.101  0.0322  0.3916  0.0048
12494W        W27625  10.863   0.406  11.902  0.1793  0.1285 -0.2535
12495W        W27626   2.292   3.429   1.925 -0.1866  0.0401 -0.0585
12496W        W27627  14.777  14.130  14.239 -0.1067  0.0866 -0.1566
12497W        W27628  11.563   0.632  14.441  0.1872  0.0925 -0.0644
12498W        W27629   5.606   1.867  11.915 -0.1290  0.1572 -0.0404
12499W        W27630  12.111  14.623  14.090  0.2753  0.3598  0.0574
12500W        W27631  15.564   5.025   1.757 -0.2553 -0.0650 -0.3180
12501W        W27632   6.902  14.902   4.637 -0.4056 -0.3008  0.3781
12502W        W27633  13.894   4.456  11.630 -0.2124 -0.1079 -0.2113
12503W        W27634   1.210  15.058   2.648  0.1776 -0.0005 -0.1742
12504W        W27635  17.644   4.328  15.741 -0.1965 -0.0707  0.0944
12505W        W27636  10.465  12.839  12.255  0.1223  0.1533  0.0682
12506W        W27637  17.978   7.409   0.427 -0.0015  0.1068 -0.0069
12507W        W27638   1.919   8.652  15.918 -0.2392  0.2333 -0.2489
12508W        W27639   8.350  10.177   0.559  0.2982 -0.1301 -0.0394
12509W        W27640  12.474   4.371  14.528  0.1911 -0.0050 -0.1404
12510W        W27641   8.510  18.298   0.293 -0.3432 -0.1262 -0.0239
12511W        W27642   7.667   8.351  12.481  0.1693  0.1569 -0.0307
12512W        W27643  17.499  11.815  15.255  0.0674 -0.1126 -0.1209
12513W        W27644   5.595  17.776  10.980  0.0948  0.1004  0.0251
12514W        W27645   3.719   1.422  16.085  0.1733 -0.2325  0.3610
12515W        W27646  13.945   6.622   3.982 -0.1057 -0.0880 -0.0353
12516W        W27647   8.681  17.702   4.956  0.1511 -0.4392 -0.0336
12517W        W27648   0.109  10.615   2.776 -0.0915 -0.3370 -0.0595
12518W        W27649   3.267  12.388   0.529 -0.0643  0.5344  0.2392
12519W        W27650   4.809  11.475  13.245  0.2032 -0.1202 -0.1027
12520W        W27651  11.412   7.469   5.154 -0.3161 -0.2258 -0.0226
12521W        W27652  10.137  17.191  13.436 -0.1610 -0.1246 -0.2017
12522W        W27653  11.344   4.688  11.315 -0.0996  0.0804  0.1147
12523W        W27654  14.187  16.084   5.851  0.1314  0.2147 -0.2902
12524W        W27655   9.408  18.193  13.242  0.0762  0.0399  0.0442
12525W        W27656   7.458   3.777   1.453  0.0968  0.0058  0.0265
12526W        W27657  12.293  13.034   2.077 -0.1068  0.0467 -0.1798
12527W        W27658   6.527   4.992  14.965  0.3037 -0.1605 -0.3068
12528W        W27659  16.412   8.756   3.460 -0.1550 -0.0668 -0.3687
12529W        W27660  11.788   1.530  10.478 -0.1901 -0.1895  0.3348
12530W        W27661  12.895   6.739  14.817  0.1247  0.0344  0.0395
12531W        W27662  11.900   6.712  12.247  0.0387  0.0876 -0.0328
12532W        W27663   7.829   6.854   3.227 -0.2120  0.0046 -0.0906
12533W        W27664   8.048   5.698  13.914 -0.0881  0.1696 -0.1630
12534W        W27665   8.367  16.761  16.025 -0.2097 -0.2533 -0.0824
12535W        W27666  14.158   0.192   3.122 -0.2325 -0.1216  0.1677
12536W        W27667   5.440   4.931   4.434  0.3128  0.0220  0.2121
12537W        W27668   1.505  11.536  10.423  0.0794 -0.2718 -0.0486
12538W        W27669  17.690   2.463   0.615  0.1110 -0.0068  0.0931
12539W        W27670  10.325  16.556  12.310 -0.2717  0.0584 -0.2315
12540W        W27671  14.849   0.831   1.570  0.0205  0.1879 -0.0638
12541W        W27672   8.705   6.152   5.187 -0.0624 -0.0350  0.3182
12542W        W27673  15.801   7.131   0.486 -0.2428  0.2412 -0.2294
12543W        W27674   0.495   7.535  14.066  0.2219 -0.2415 -0.2648
12544W        W27675  13.254   8.545   0.710 -0.0212 -0.2947  0.0035
12545W        W27676  10.454   1.067  11.916 -0.2383 -0.0668 -0.2670
12546W        W27677  14.048  15.599   5.610 -0.0146  0.1202 -0.0366
12547W        W27678   5.870   2.895  12.957  0.2191  0.1896 -0.1090
12548W        W27679  14.399   8.171  11.209 -0.0214  0.0408 -0.1060
12549W        W27680  13.383  11.301   4.939 -0.1990  0.1718 -0.2286
12550W        W27681  18.128   4.646   2.447  0.0574 -0.0468 -0.0841
12551W        W27682   4.382  13.114  13.332 -0.0548  0.0664 -0.2155
12552W        W27683  16.740   2.354   2.784 -0.0697  0.2640  0.0874
12553W        W27684  10.170  10.364  11.259 -0.0409  0.0506  0.0028
12554W        W27685  10.728   9.377   1.851 -0.0465  0.3537 -0.3296
12555W        W27686  17.010   6.543  15.485  0.0265 -0.4731  0.1054
12556W        W27687  12.269  14.935   5.476 -0.0929 -0.3355 -0.4799
12557W        W27688  16.146   0.582  14.494 -0.1233  0.0212 -0.2259
12558W        W27689   4.279  15.203   3.159 -0.1209 -0.1593 -0.3619
12559W        W27690   4.738  16.521   1.651 -0.0621  0.0456  0.1177
12560W        W27691   1.830  12.493   4.953  0.2715  0.0566  0.2096
12561W        W27692  11.345  15.900  14.304 -0.0685  0.1931  0.0212
12562W        W27693  12.568  13.206   0.054 -0.0275 -0.1700  0.0447
12563W        W27694   5.939   7.301   3.107 -0.1465  0.2918 -0.1240
12564W        W27695   4.192  14.971   1.797  0.0708 -0.1208 -0.0666
12565W        W27696   4.445   4.262  12.659 -0.2036 -0.3337 -0.1409
12566W        W27697  14.296   1.755   2.815 -0.0595 -0.1744 -0.1398
12567W        W27698   6.825  12.272   3.051  0.3619 -0.0726  0.0678
12568W        W27699  16.469   1.793  14.378 -0.0273 -0.0090  0.1545
12569W        W27700  17.872   5.143   5.067 -0.3273  0.0837 -0.2656
12570W        W27701  10.751   8.850   0.905 -0.1864  0.1057 -0.0533
12571W        W27702  15.754   5.579  11.132 -0.0492 -0.0403  0.0686
12572W        W27703  10.512   8.276   3.025  0.1588 -0.2896  0.0424
12573W        W27704  13.420   3.870  13.017  0.3079  0.0732  0.0615
12574W        W27705   6.792  17.393  10.902  0.0925 -0.1414 -0.0316
12575W        W27706  14.687  17.430  13.632  0.2548 -0.1706  0.0071
12576W        W27707  12.693   1.344  12.476 -0.1038 -0.0428 -0.2623
12577W        W27708   8.644  10.316   2.509 -0.0294 -0.3428  0.2591
12578W        W27709  10.878  12.280   9.725  0.0420 -0.0577  0.0439
12579W        W27710   0.069   0.007  13.126  0.0015 -0.1412  0.2031
12580W        W27711   3.910   8.186  14.413  0.2902  0.1320 -0.1647
12581W        W27712  16.446  17.982  14.689  0.1229 -0.0705  0.1536
12582W        W27713  18.183   6.856   4.094  0.1748  0.0044  0.4659
12583W        W27714   8.695  17.785   3.279 -0.3986 -0.1460  0.1622
12584W        W27715   0.107  15.309  14.306 -0.0900  0.1339  0.0957
12585W        W27716   4.748   1.164   5.556 -0.0465 -0.0637  0.2219
12586W        W27717  11.967   9.179   0.739 -0.1443  0.3521 -0.0814
12587W        W27718  11.730  11.581   1.968 -0.1752  0.4318 -0.0326
12588W        W27719   4.830   4.334   0.569 -0.0333 -0.0928 -0.0802
12589W        W27720   9.517  14.880   3.157  0.0308 -0.0181  0.0390
12590W        W27721   5.592   1.218   6.079 -0.0512  0.4155  0.2406
12591W        W27722   8.456   3.577   5.346  0.4382  0.1119 -0.1126
12592W        W27723  14.119   0.813  12.170  0.1762 -0.1912 -0.0303
12593W        W27724   9.157  12.706   2.488  0.0770 -0.1753  0.1779
12594W        W27725   2.273   7.055   4.427  0.0816  0.1822  0.0693
12595W        W27726   8.035  17.988  13.970 -0.3368  0.0855  0.1507
12596W        W27727   9.974   9.652  11.479  0.1022 -0.0615  0.3754
12597W        W27728   1.887  11.459   3.181  0.2509 -0.0217 -0.2123
12598W        W27729  17.901  12.462   3.577  0.1705 -0.1260 -0.0063
12599W        W27730  16.982   7.390  15.856 -0.0889 -0.0582 -0.3245
12600W        W27731   4.145  13.253  12.592  0.1352 -0.1106 -0.3908
12601W        W27732   5.031  17.186  10.468  0.0804 -0.0345  0.0928
12602W        W27733   2.821  11.585   4.572  0.1304 -0.3350 -0.1425
12603W        W27734   5.473  10.151   4.995  0.0180 -0.0802  0.1000
12604W        W27735   3.000  15.336   4.622 -0.1884 -0.3307  0.0187
12605W        W27736   3.168   0.491  14.147 -0.0089 -0.3399  0.3243
12606W        W27737   0.295   7.084  10.774 -0.1510  0.0106  0.0443
12607W        W27738  16.079  15.033   3.926  0.4141 -0.1050  0.2055
12608W        W27739   6.968   8.722  12.673  0.0563  0.1710  0.1706
12609W        W27740  16.733   7.707   0.228  0.0958 -0.2568 -0.1714
12610W        W27741   3.504  11.832  14.992 -0.0961 -0.0069  0.2342
12611W        W27742   5.044   8.725   3.926 -0.3712 -0.0682 -0.0392
12612W        W27743  15.003  17.591   1.815  0.0826  0.0217  0.2246
12613W        W27744  13.613   4.856   5.004 -0.2207  0.4086  0.1493
12614W        W27745   1.189   7.193   0.532 -0.0186 -0.0029 -0.0097
12615W        W27746   5.912  11.956  13.731  0.3891 -0.2366 -0.0238
12616W        W27747  17.059  13.113  14.352  0.0167  0.0797 -0.0907
12617W        W27748  12.100  18.032  15.474 -0.3301 -0.0089  0.0042
12618W        W27749   0.856  12.640  11.503 -0.2455  0.2462 -0.0271
12619W        W27750   4.418  13.256   4.917  0.2075 -0.0009 -0.0056
12620W        W27751  14.777   0.015  12.417  0.0799 -0.1802  0.1861
12621W        W27752  18.065  16.722  12.780  0.1626 -0.0529 -0.3540
12622W        W27753   9.945  10.249   1.791 -0.4448  0.0876  0.0389
12623W        W27754   4.074  14.678   2.286 -0.0082 -0.1761  0.0224
12624W        W27755   2.245  13.694   3.974  0.0143  0.1699 -0.0347
12625W        W27756   1.882  17.872  12.322 -0.0704  0.2029 -0.0977
12626W        W27757   7.950   9.799  13.412 -0.1428 -0.0753  0.3494
12627W        W27758  15.430   5.566   3.656  0.1563 -0.0167  0.0468
12628W        W27759   3.028   0.930   6.364 -0.0583 -0.0899 -0.2736
12629W        W27760  11.182   9.558   2.604 -0.0225 -0.0621 -0.0098
12630W        W27761   4.574   3.748  12.551  0.0459 -0.3790  0.1153
12631W        W27762   7.033   9.370   2.388 -0.1240 -0.1107 -0.0590
12632W        W27763  15.026  16.914  14.987 -0.1233  0.0893 -0.0757
12633W        W27764   0.720   0.041  13.235  0.2331  0.2295  0.1290
12634W        W27765   4.545   2.312  11.797  0.1403 -0.1695  0.0312
12635W        W27766  16.481  11.246   0.520 -0.3757  0.0340  0.3777
12636W        W27767   3.997  11.988   0.364  0.3623  0.1063 -0.0885
12637W        W27768  13.903  11.906   3.867  0.1327  0.0350  0.0364
12638W        W27769   9.103  10.829  11.139  0.3205  0.0580 -0.1317
12639W        W27770   1.260   6.188  16.053  0.0338  0.2059 -0.4245
12640W        W27771   5.236  13.756   9.883  0.2942 -0.3565  0.0343
12641W        W27772  15.957   9.492   3.821 -0.0439  0.2099  0.1494
12642W        W27773  10.809  15.815   2.981  0.0205  0.2036 -0.2306
12643W        W27774  13.140   0.124   3.117  0.1578  0.0711  0.0806
12644W        W27775  17.054   9.080  12.403 -0.0220  0.2596  0.0364
12645W        W27776  10.144  14.577   3.568 -0.3081  0.1255  0.1903
12646W        W27777  10.865   4.712   2.018  0.1723 -0.1601  0.1037
12647W        W27778  10.220  17.489   9.743 -0.1058 -0.2776  0.0514
12648W        W27779  16.831  15.234   5.014  0.2225  0.1121  0.1157
12649W        W27780  10.349   8.861  14.853 -0.0106 -0.0267 -0.1338
12650W        W27781  15.200  17.059   3.729 -0.1803  0.0605 -0.0232
12651W        W27782   9.060  12.754   1.444  0.0995  0.2193  0.2198
12652W        W27783  12.389   0.722   1.522  0.0805 -0.0856  0.2367
12653W        W27784   2.522   4.957  11.261  0.0424 -0.1246  0.0001
12654W        W27785   5.872   7.688  13.635  0.3253 -0.1523 -0.2871
12655W        W27786  12.429  15.517   1.730 -0.1222 -0.3119 -0.6092
12656W        W27787   9.040   8.826  11.103 -0.1855 -0.2154  0.1043
12657W        W27788   7.777   1.579  12.319 -0.2969 -0.1809  0.0614
12658W        W27789   7.274   8.632   2.970  0.1218 -0.2905 -0.0582
12659W        W27790   2.929  17.767  14.032 -0.2433 -0.1793  0.0515
12660W        W27791   4.252  12.782   1.245  0.0847  0.1632  0.3186
12661W        W27792  13.631   2.061  13.439  0.3267  0.0431  0.0259
12662W        W27793   9.212   1.808   5.469  0.0302  0.2369  0.0257
12663W        W27794  13.190   8.906  13.193  0.1650  0.3341 -0.1992
12664W        W27795   2.638   2.710   2.508  0.3455 -0.0294  0.0519
12665W        W27796  12.883   6.922   2.501  0.2530 -0.0971 -0.1805
12666W        W27797   8.675   1.658  12.766  0.2844  0.0533  0.1033
12667W        W27798   4.841   9.097  10.560  0.0149  0.2532  0.1291
12668W        W27799   6.204  10.616   2.348  0.4202  0.1510  0.0301
12669W        W27800  18.309  17.771   0.076  0.1486 -0.2684  0.1520
12670W        W27801  11.411  17.951  14.830  0.0968 -0.1465 -0.2515
12671W        W27802  11.931   3.197   1.017  0.0270 -0.3666 -0.0309
12672W        W27803   7.688  13.772  12.700 -0.0833 -0.1296  0.1639
12673W        W27804  17.828  12.239   1.026 -0.1707  0.0184 -0.3017
12674W        W27805  15.698   6.224   0.247 -0.1083 -0.0762 -0.0457
12675W        W27806   4.381   4.377   5.490  0.0055  0.1781  0.0963
12676W        W27807   0.006  16.397   5.884 -0.2482 -0.2518 -0.0753
12677W        W27808   9.308  11.490   2.767  0.1686  0.2914 -0.0303
12678W        W27809  10.309  17.575  15.357 -0.1245 -0.1560 -0.0594
12679W        W27810  12.710  12.645   4.221 -0.0906  0.1647 -0.1123
12680W        W27811   7.521  14.886   9.899  0.2617  0.1268 -0.1450
12681W        W27812  12.806  17.348   3.907  0.0317 -0.2804 -0.0559
12682W        W27813   1.629   0.504  11.483 -0.1168  0.0206  0.0375
12683W        W27814  15.585  12.611  13.509 -0.0160 -0.0424  0.6287
12684W        W27815   1.728   2.522   0.876  0.1125  0.0709 -0.0488
12685W        W27816  16.618   8.372   5.742 -0.3157  0.2071  0.3751
12686W        W27817  10.959  15.447   0.769  0.1472 -0.0241  0.1936
12687W        W27818   3.888  15.275   2.831 -0.3530  0.1087 -0.1535
12688W        W27819  10.807   6.637   1.548  0.1906  0.0721  0.2308
12689W        W27820   4.498  11.433  12.796 -0.0539  0.1194  0.0057
12690W        W27821   7.277   7.904  13.181 -0.1715  0.0497  0.3160
12691W        W27822   1.978   2.562   0.382  0.1129  0.2989 -0.2527
12692W        W27823   5.095   7.787  14.079  0.0709 -0.1183 -0.4906
12693W        W27824   8.575  11.318  15.463 -0.3027  0.0124  0.2395
12694W        W27825   6.415   1.833  13.488 -0.4518  0.1128  0.1402
12695W        W27826   2.263  14.182  12.308 -0.0482 -0.3048 -0.2398
12696W        W27827   6.535   2.319   2.903 -0.1762  0.2324  0.1478
12697W        W27828   7.063  12.562   1.300  0.3042  0.0276 -0.6650
12698W        W27829   3.816   1.458   5.671 -0.0572 -0.1256  0.0778
12699W        W27830   0.709  15.309  15.878  0.1980 -0.1503  0.0765
12700W        W27831   3.029   1.122   3.268  0.1482  0.0469 -0.2226
12701W        W27832  15.454   4.069  10.783 -0.1383  0.1937 -0.2312
12702W        W27833  17.074  10.582  14.520  0.0384  0.4531  0.2048
12703W        W27834   3.024  16.631  13.553  0.0614  0.0456  0.0507
12704W        W27835   9.751   3.325  13.842 -0.1707 -0.1736  0.1460
12705W        W27836  10.094   8.358   4.093 -0.0469  0.1423  0.1765
12706W        W27837  10.633  13.193  11.879  0.2637 -0.3796  0.1759
12707W        W27838  12.503   8.552   3.253  0.0821  0.0569  0.1459
12708W        W27839  14.751   1.589   2.436  0.3020  0.0058  0.1312
12709W        W27840   4.815  15.324   3.583 -0.3127  0.1737  0.0272
12710W        W27841   3.302   9.132   9.744 -0.1205 -0.2948 -0.1054
12711W        W27842   4.879   5.997   2.597 -0.1121 -0.1207  0.2465
12712W        W27843   4.150  14.122   3.411  0.0089  0.2073  0.0549
12713W        W27844   1.329   3.401   2.592  0.0957 -0.2538  0.1010
12714W        W27845   6.505   1.241  14.565  0.0994  0.0935 -0.1056
12715W        W27846  15.907  12.656   2.693 -0.0317 -0.0219 -0.2093
12716W        W27847  10.905   1.983   4.395  0.1661  0.0417 -0.0879
12717W        W27848   8.441  17.987   1.057  0.2214 -0.2022 -0.0736
12718W        W27849  15.702  12.839  14.306  0.0313 -0.1633 -0.1384
12719W        W27850  12.536   1.647   5.302  0.2522 -0.1206 -0.2776
12720W        W27851  11.042  16.757   1.870  0.0917 -0.0097 -0.0414
12721W        W27852   6.058   3.806   5.640 -0.1084  0.2734  0.2487
12722W        W27853   8.589   5.013  10.244 -0.0603  0.1134  0.0691
12723W        W27854   2.236   0.739   2.140 -0.2160  0.1111 -0.1727
12724W        W27855   0.440   9.665  15.442 -0.1512  0.2120 -0.2672
12725W        W27856  10.331  10.509  15.062 -0.0404  0.1273  0.2662
12726W        W27857   0.554   7.409  15.602 -0.0561 -0.1056  0.0826
12727W        W27858  12.163   2.468   5.574  0.0120  0.2305 -0.0044
12728W        W27859  17.783   5.864  15.582  0.1875  0.2216  0.2209
12729W        W27860   8.017  11.506   0.176  0.1011 -0.2388 -0.5473
12730W        W27861   2.593   3.188  12.999  0.1155 -0.0174  0.0573
12731W        W27862  12.945  15.931   5.580  0.3384  0.0674 -0.0843
12732W        W27863   3.318  16.045  11.928  0.1696 -0.2621 -0.1984
12733W        W27864   7.229   7.909   1.684 -0.0159  0.1098  0.2948
12734W        W27865  16.067   8.066  15.205 -0.1376  0.0514 -0.0221
12735W        W27866   2.387   1.866  13.095 -0.2791 -0.3777 -0.0517
12736W        W27867  10.212   0.865   4.663 -0.1403  0.4089  0.0090
12737W        W27868  12.059   6.180  15.014 -0.2003 -0.2644  0.0588
12738W        W27869   7.781  14.644   2.217  0.1196 -0.1238 -0.0175
12739W        W27870   8.011   1.318   2.424 -0.2197  0.0913  0.0773
12740W        W27871   2.733   4.590   4.976 -0.0450  0.2053 -0.0004
12741W        W27872   7.512  13.371   2.667 -0.1421  0.2015  0.0353
12742W        W27873   3.204   0.149  12.462 -0.1747  0.0461  0.0233
12743W        W27874  14.289  13.946  10.349  0.5455 -0.2062 -0.2884
12744W        W27875   6.714   2.831   1.185  0.2734  0.2860 -0.2121
12745W        W27876   7.718  10.407   2.566  0.0512  0.1388  0.1141
12746W        W27877   6.763  14.769  11.654 -0.0435  0.2439 -0.1510
12747W        W27878   7.648   5.633  11.485 -0.0096 -0.4065 -0.0385
12748W        W27879   5.548  17.841   0.029  0.1519 -0.2346  0.4522
12749W        W27880  12.149   6.222   4.282  0.2670  0.1535  0.0278
12750W        W27881   8.642  12.707  14.987 -0.0661  0.0305 -0.3341
12751W        W27882   8.896   8.076  12.585 -0.2655  0.0801 -0.1166
12752W        W27883  17.322  12.348   3.511  0.1619 -0.2498 -0.0549
12753W        W27884   1.499   6.639   2.260 -0.1230  0.2357 -0.0225
12754W        W27885  14.298  10.900  12.829  0.2740 -0.2224 -0.1677
12755W        W27886   1.959  12.712   0.912 -0.0497 -0.0518  0.4115
12756W        W27887   9.061  11.062  13.933 -0.4669 -0.1168  0.0423
12757W        W27888   8.909   6.226  13.586  0.3729 -0.0735  0.0621
12758W        W27889  10.476  17.216   2.789 -0.1267 -0.0612 -0.3060
12759W        W27890  17.087  13.695   4.008  0.0394  0.0919  0.2695
12760W        W27891   4.815   8.894  15.001  0.2156 -0.2732 -0.0327
12761W        W27892   7.570  17.266   2.051 -0.0042 -0.0227 -0.5096
12762W        W27893   4.198   9.930   2.141 -0.2112 -0.0895 -0.0624
12763W        W27894  14.479  14.646  11.441  0.0268 -0.0621 -0.3694
12764W        W27895  15.852   8.994  11.170 -0.0518  0.2862  0.1641
12765W        W27896   2.705  16.904  12.587  0.1819  0.2331 -0.1360
12766W        W27897   0.511   3.540  13.182 -0.0852  0.2065  0.0182
12767W        W27898   9.321  17.724  13.553 -0.0513 -0.1102  0.0300
12768W        W27899  14.141   7.741  12.528  0.0180  0.0071  0.3710
12769W        W27900   5.910  14.270  14.154 -0.1907  0.0455  0.0496
12770W        W27901  15.255   6.156   4.992  0.4940  0.1141 -0.0348
12771W        W27902   6.174   1.042   3.674 -0.1750 -0.4546  0.0711
12772W        W27903   7.838   4.460   2.697 -0.0643  0.1468  0.1679
12773W        W27904  14.579   6.573   3.151  0.0254 -0.2340 -0.4166
12774W        W27905  10.072  12.043   5.358 -0.0028  0.1568 -0.1359
12775W        W27906  11.092   3.998   5.257  0.0926  0.3045 -0.0123
12776W        W27907  14.143   7.015   5.241  0.1363 -0.3146  0.1431
12777W        W27908   9.093  16.195   3.884  0.1100  0.0625 -0.1042
12778W        W27909   3.101  13.669  15.098 -0.2031  0.1796 -0.0097
12779W        W27910   3.012  15.345   3.495 -0.0356 -0.0995 -0.0609
12780W        W27911  13.680   4.229   1.594 -0.4084  0.2606 -0.0678
12781W        W27912  11.999  11.745  11.754  0.2574 -0.2571  0.1094
12782W        W27913   7.184  13.413  15.938  0.1619  0.0077  0.1606
12783W        W27914  17.080   7.400   0.478  0.0399  0.0804 -0.1359
12784W        W27915  17.389  16.569   3.552  0.2184  0.2215  0.0315
12785W        W27916   0.849   2.025  11.176 -0.2097  0.4038 -0.2537
12786W        W27917   7.489   0.619   1.632 -0.2154  0.0240 -0.1698
12787W        W27918   6.576  13.707   3.934 -0.2972  0.1245 -0.1889
12788W        W27919   7.108   5.144   4.636 -0.0102 -0.0696  0.1397
12789W        W27920   3.363  15.411   3.928  0.0687  0.1080 -0.2470
12790W        W27921  16.226   0.067  12.652 -0.0116  0.1332  0.0225
12791W        W27922  12.156  17.451   1.448 -0.0928 -0.0680 -0.0971
12792W        W27923  10.470  14.313  11.623  0.0702  0.0749 -0.2463
12793W        W27924   7.220   4.071   4.199 -0.2055 -0.0780  0.0741
12794W        W27925   7.292  10.075  11.073 -0.3127  0.1121 -0.0251
12795W        W27926   4.259   7.165   4.801 -0.1505  0.1010 -0.0460
12796W        W27927  15.003   4.436   3.545 -0.1396 -0.1050 -0.0537
12797W        W27928   0.718   0.911  11.440 -0.2029 -0.0357 -0.0090
12798W        W27929   6.294  11.937   1.759  0.1372 -0.0210  0.0745
12799W        W27930  15.902  16.074   6.308  0.3173 -0.0882  0.2382
12800W        W27931  16.189   9.762  13.370  0.1002 -0.2161  0.4033
12801W        W27932   6.872  13.895  11.169  0.0663 -0.0346  0.5093
12802W        W27933  15.465  15.966   3.456  0.2735  0.1526  0.1258
12803W        W27934   2.496  13.123   2.050  0.2156  0.1753  0.1607
12804W        W27935   2.892   4.254   4.654  0.0368  0.3326 -0.0658
12805W        W27936   6.290   7.032   5.328 -0.0969 -0.3127 -0.1780
12806W        W27937   0.142   5.124   2.384  0.1049  0.2307  0.0972
12807W        W27938   5.958   9.310  14.188 -0.0678 -0.2023  0.1009
12808W        W27939  16.992   0.405  11.483 -0.0650 -0.1216 -0.4373
12809W        W27940   8.085  15.681   1.709 -0.3489 -0.0227 -0.0485
12810W        W27941  17.195  17.381   0.894  0.2620  0.0523 -0.1415
12811W        W27942  13.135  11.771  12.321  0.2012  0.1085  0.2463
12812W        W27943   3.125  15.504  11.273  0.1341 -0.0618  0.0193
12813W        W27944   3.916   7.033  13.324  0.1602  0.2869 -0.0082
12814W        W27945  15.809  10.778  14.768  0.5515 -0.1842 -0.1163
12815W        W27946  11.746   7.474  10.689 -0.1795 -0.0280  0.0462
12816W        W27947   3.453  14.417  15.536  0.1818  0.0346  0.0805
12817W        W27948   2.536  16.223   2.113  0.0515 -0.1334  0.0403
12818W        W27949   5.467   1.350  11.163  0.1101 -0.2295 -0.0479
12819W        W27950   9.495   5.675  14.075  0.0045 -0.0486  0.1585
12820W        W27951   5.332   1.892   3.714  0.4445 -0.1650  0.1122
12821W        W27952  10.671  15.859   1.554  0.1140 -0.2493 -0.0502
12822W        W27953  11.108  11.073  15.324  0.1259 -0.1074 -0.1506
12823W        W27954  10.569   5.153  15.212  0.3149 -0.0295  0.2395
12824W        W27955   7.368  16.198   0.366 -0.1962  0.1557 -0.0832
12825W        W27956  13.391  14.977  13.420  0.0010  0.0689  0.4569
12826W        W27957  11.841   7.111   4.046 -0.2346 -0.0864 -0.0951
12827W        W27958   4.126  17.749   2.338 -0.2498  0.1516 -0.2437
12828W        W27959   3.156  10.521  12.013 -0.1123  0.3932  0.0577
12829W        W27960   0.611  12.327   1.811  0.1058 -0.3029 -0.2694
12830W        W27961   3.151   6.289  13.070 -0.1455 -0.0045 -0.0458
12831W        W27962   2.637  17.487  14.361  0.0670 -0.0081  0.0474
12832W        W27963  14.407   9.453  12.820  0.2222  0.2156  0.2268
12833W        W27964   8.107  11.868  11.163 -0.0431 -0.0852 -0.0246
12834W        W27965  15.254  10.755   3.216  0.0001  0.1148  0.1795
12835W        W27966  15.362  16.904  12.977  0.0295 -0.5282  0.0609
12836W        W27967  16.486  17.251   1.763 -0.0442 -0.0235 -0.1174
12837W        W27968  16.852  12.529  16.022  0.1715  0.0915 -0.0669
12838W        W27969   0.687   5.239  11.578 -0.2487 -0.1275 -0.0654
12839W        W27970   0.204   4.550   4.750 -0.1100 -0.1573 -0.1468
12840W        W27971   8.707   9.059  13.238 -0.1544  0.0719  0.0949
12841W        W27972   9.054  14.005  13.607  0.1278  0.0952 -0.1019
12842W        W27973   6.107  16.269   4.709  0.0407  0.0633 -0.0005
12843W        W27974   7.816   0.401  13.761  0.1611 -0.0593  0.1882
12844W        W27975  15.907  18.046  15.485 -0.0570  0.0018  0.0800
12845W        W27976   4.816  16.608  14.731 -0.0892 -0.1003  0.0021
12846W        W27977  16.454  16.410  15.939 -0.3145 -0.1795  0.1153
12847W        W27978   6.953   1.876   2.110  0.0078 -0.2261  0.1294
12848W        W27979  15.745  13.016   0.845 -0.0883  0.0612  0.1280
12849W        W27980   0.383   6.446   1.427 -0.0594  0.0553 -0.3713
12850W        W27981   0.594   4.416  14.099 -0.1765 -0.2799  0.1050
12851W        W27982   7.082  13.599   4.020  0.1323  0.1842  0.0936
12852W        W27983   3.171  13.333   5.033  0.2457  0.1672 -0.2021
12853W        W27984  11.651   2.572  12.219 -0.1555  0.2404  0.0379
12854W        W27985   2.751  10.828   4.458 -0.0108 -0.2392  0.0929
12855W        W27986  12.507  14.020  11.692  0.0703 -0.2482 -0.1577
12856W        W27987   4.001   7.129   3.263  0.3457 -0.0765  0.3184
12857W        W27988   9.770   7.940   4.213 -0.2268 -0.1778  0.0626
12858W        W27989   6.326   6.125   1.131 -0.1316  0.1001 -0.0444
12859W        W27990  11.551   5.679   4.392  0.4667 -0.0533 -0.2284
12860W        W27991   4.215   8.231   1.378 -0.1924  0.3572  0.0760
12861W        W27992   4.577  17.387  10.236 -0.0326 -0.1171  0.0124
12862W        W27993   4.644  12.033  14.852 -0.2205 -0.0571  0.0271
12863W        W27994  11.024   6.859  14.725  0.1355 -0.0489 -0.0612
12864W        W27995   3.581  11.945   0.684  0.1934  0.1199 -0.0191
12865W        W27996  14.131  16.066   3.148  0.0171 -0.0404  0.1518
12866W        W27997  18.025  17.045  11.561 -0.5367  0.0773 -0.0430
12867W        W27998   3.589  11.553   1.960 -0.0457  0.0141  0.2036
12868W        W27999  10.613   9.288   1.020 -0.0289  0.2624 -0.0371
12869W        W28000  12.414  14.257   2.577 -0.2043  0.0773  0.1766
12870W        W28001  10.159   7.975  13.561  0.2166 -0.1100  0.2968
12871W        W28002   1.582  13.260   4.375  0.0974 -0.2338 -0.0066
12872W        W28003  15.493   4.526  13.602 -0.0217 -0.1455  0.0168
12873W        W28004  15.006   2.992  14.198 -0.1112  0.0543  0.2034
12874W        W28005  13.103  16.973  12.025  0.0665  0.0696 -0.0486
12875W        W28006   8.140  16.048  12.138 -0.2762 -0.0720  0.1548
12876W        W28007   1.091  16.017   2.469 -0.1258 -0.0700  0.0092
12877W        W28008  16.833   3.478  12.827 -0.3664 -0.3912  0.2651
12878W        W28009   0.181  11.120   5.423 -0.1540 -0.0930 -0.1719
12879W        W28010   4.166   5.298  16.067  0.2594 -0.5035  0.0680
12880W        W28011  15.667  13.986  14.256 -0.2332  0.3016  0.0050
12881W        W28012  17.332  18.049  16.128 -0.1915  0.2288  0.4619
12882W        W28013  14.979  11.495  13.282  0.0515  0.1201 -0.3691
12883W        W28014  14.761   9.256  15.058 -0.0254  0.0365  0.0326
12884W        W28015   8.007  11.423   4.587 -0.2220 -0.0307  0.4099
12885W        W28016   8.073  14.024  13.602  0.2332 -0.1397  0.3228
12886W        W28017  11.102   8.163   3.117  0.1225  0.0435 -0.0428
12887W        W28018  13.797  11.658   2.978  0.3206  0.3470  0.3281
12888W        W28019   6.832   5.513   4.412  0.0354  0.2636  0.1790
12889W        W28020  10.828  13.984  15.182 -0.2662 -0.1076 -0.1518
12890W        W28021   1.965   1.881   0.036 -0.0153 -0.0336 -0.3308
12891W        W28022   0.339   8.686   3.062 -0.0611 -0.3035  0.1285
12892W        W28023  17.430  15.238  12.363  0.1735  0.0591 -0.2584
12893W        W28024   5.976   5.999   4.573  0.1336  0.0445 -0.0012
12894W        W28025   5.647  10.057   1.999  0.2893  0.0021 -0.2132
12895W        W28026  12.901   2.309   5.022 -0.0266  0.0948 -0.1800
12896W        W28027  12.511   1.075  13.273 -0.0137  0.0882  0.0217
12897W        W28028   5.976   1.843   1.479 -0.0545 -0.1867 -0.0771
12898W        W28029   7.930  12.348  14.493  0.1657 -0.0596  0.0315
12899W        W28030   9.730  12.840   2.496 -0.3008 -0.1895 -0.2153
12900W        W28031   0.875  17.528  14.902  0.1847 -0.1351  0.1105
12901W        W28032   3.073  14.177   4.601 -0.1820  0.0887 -0.2140
12902W        W28033   7.939   5.537   4.367  0.2110  0.0665  0.1710
12903W        W28034  13.120  13.519   1.507  0.0649  0.1529  0.1681
12904W        W28035  14.544  16.009  12.211  0.4324 -0.0804 -0.2544
12905W        W28036   3.762   5.404   0.266  0.2364  0.0291  0.1484
12906W        W28037   5.728   9.056   1.439 -0.1157 -0.2297  0.0532
12907W        W28038  12.718  16.853  14.964 -0.1401  0.0865 -0.0901
12908W        W28039  17.353   3.969   1.650 -0.4344 -0.1431 -0.0990
12909W        W28040  15.010   7.906   0.299 -0.1469  0.0501 -0.0427
12910W        W28041   7.195   0.157   1.670  0.0406  0.2379 -0.0677
12911W        W28042   7.340  11.184  13.038  0.0157 -0.1950  0.1665
12912W        W28043  15.091   5.971   0.228  0.2147  0.1228  0.1324
12913W        W28044  10.269   2.321   5.535 -0.0210 -0.0476 -0.2173
12914W        W28045  18.264   2.513   1.022 -0.1244  0.1128 -0.3828
12915W        W28046   4.599   3.456  13.637  0.3978  0.1438  0.0847
12916W        W28047   5.146  14.963   3.715 -0.1869 -0.2148 -0.1995
12917W        W28048   6.748   8.439   4.413  0.2823 -0.0407  0.0700
12918W        W28049   2.980  13.430  13.133  0.0229 -0.0612 -0.0505
12919W        W28050   6.759   9.060  14.361 -0.0456  0.2382 -0.1330
12920W        W28051   3.617   5.529  15.140  0.0164  0.0225  0.0269
12921W        W28052   3.053   4.912   5.326 -0.2704  0.0729 -0.0010
12922W        W28053   3.033   7.844   4.578  0.0660  0.0743 -0.0150
12923W        W28054  14.629  16.954  15.814  0.0816 -0.2063 -0.1038
12924W        W28055   8.916   8.462  12.943 -0.0885  0.0032  0.2503
12925W        W28056  11.081  14.940  10.345 -0.2537 -0.0199  0.1537
12926W        W28057   0.562   3.150  14.089  0.0743  0.2999 -0.1965
12927W        W28058  11.899  17.942   0.033  0.0698  0.2133 -0.0033
12928W        W28059  14.141   9.157   2.323 -0.0313 -0.0188  0.0321
12929W        W28060   2.317  15.313  14.330  0.0809 -0.2901  0.0068
12930W        W28061  13.517  10.784   3.347  0.0876 -0.0916  0.1649
12931W        W28062  14.484  16.603  13.801 -0.0676  0.2056 -0.0553
12932W        W28063   8.856   9.906  10.835  0.4087 -0.0956 -0.0098
12933W        W28064   5.732   2.458   4.092  0.1681  0.0224 -0.0344
12934W        W28065   4.776   4.182  14.560  0.1584  0.2162  0.0994
12935W        W28066  18.355  10.253  13.563 -0.0717 -0.0027  0.1168
12936W        W28067  14.397  16.441  11.964  0.2284 -0.2393 -0.0570
12937W        W28068   8.262  12.720  11.967 -0.0727 -0.1472 -0.0734
12938W        W28069   3.611   8.202  14.042 -0.0085 -0.1038  0.0259
12939W        W28070   0.901  16.114   3.012  0.1499 -0.0623  0.1355
12940W        W28071   2.003   9.556   3.438 -0.1361 -0.0410 -0.0078
12941W        W28072  10.513  11.703  11.375  0.1864 -0.2531  0.2526
12942W        W28073   5.037  12.352   2.230 -0.1684 -0.1353 -0.0027
12943W        W28074  16.149  15.872   3.036 -0.2732  0.1102 -0.1498
12944W        W28075   7.163  16.302   3.866  0.0150  0.2058  0.0048
12945W        W28076  15.280   2.893  11.130  0.0254 -0.0482 -0.1696
12946W        W28077   1.100  13.761  13.779  0.0546  0.1525  0.0790
12947W        W28078   7.384   9.120  10.669 -0.2853 -0.0691 -0.2632
12948W        W28079  10.144  16.090   1.539  0.0484 -0.0152 -0.1106
12949W        W28080   4.912   3.037   0.130 -0.0738 -0.0776  0.4798
12950W        W28081   9.251   5.584   2.786 -0.5830 -0.2831 -0.0852
12951W        W28082   1.074   7.101   3.003  0.1149  0.2038  0.2886
12952W        W28083   5.059   5.666   4.719 -0.0811  0.1532 -0.1472
12953W        W28084   5.178   3.967   3.310  0.0864 -0.0011 -0.2019
12954W        W28085  10.354  12.879   1.664  0.1796  0.1661  0.1107
12955W        W28086   1.274  16.519  15.562  0.1844 -0.2472  0.0607
12956W        W28087   3.401   2.763   4.486  0.0386  0.1065 -0.0997
12957W        W28088  16.246  12.025  13.474 -0.1019  0.1036 -0.2703
12958W        W28089  13.312   2.581  15.082  0.0494  0.1754 -0.2875
12959W        W28090   4.029   0.326   1.413  0.1964  0.2330  0.0620
12960W        W28091  17.793  14.818  14.041  0.0624 -0.1422  0.1515
12961W        W28092   1.177   5.780   1.526 -0.0011 -0.1405 -0.2184
12962W        W28093  11.898  12.118  15.082  0.0891  0.0095  0.1070
12963W        W28094  13.715   3.831  13.554  0.0964 -0.0493 -0.0370
12964W        W28095   8.858  10.243  13.310 -0.2524  0.2807 -0.3015
12965W        W28096   3.746   8.151   4.222 -0.1209 -0.3206 -0.1324
12966W        W28097   6.547  15.493   5.240  0.3116 -0.0240 -0.0703
12967W        W28098  17.493   1.667  14.694  0.1888  0.1780 -0.0300
12968W        W28099  13.004   2.949  13.885  0.1536  0.0391  0.0790
12969W        W28100   7.366   6.625  14.652  0.1325  0.0050 -0.2108
12970W        W28101  14.493   1.821   5.614  0.0784 -0.1552  0.0293
12971W        W28102   5.372   2.840   5.106  0.0583  0.2201  0.0451
12972W        W28103   2.148  14.186   0.876 -0.1534  0.0224  0.2566
12973W        W28104  15.258   7.592  12.387  0.1749 -0.1348  0.3341
12974W        W28105  14.628  17.940   1.765  0.2009 -0.3832 -0.1070
12975W        W28106   3.999   9.187   4.167 -0.1911 -0.2515  0.0192
12976W        W28107   8.000  12.384  15.888 -0.0210 -0.1188 -0.1212
12977W        W28108   1.018  15.760   1.014  0.0081 -0.1768  0.2645
12978W        W28109   5.438   6.759  13.407  0.1391  0.0542 -0.1457
12979W        W28110  15.191  11.496   1.933 -0.0168 -0.0387 -0.3107
12980W        W28111  18.033   9.719  12.349  0.0753  0.1244  0.0597
12981W        W28112   4.704  17.472  12.755 -0.2212  0.3378  0.1028
12982W        W28113   8.387  10.293  14.124 -0.0048  0.2309  0.1516
12983W        W28114   7.552  15.066   0.897  0.4053 -0.1974  0.1561
12984W        W28115   1.826   6.448   0.683  0.1188 -0.0196 -0.1640
12985W        W28116   6.145   5.070   4.241 -0.0365  0.0025  0.0540
12986W        W28117  14.138   8.849   5.204  0.2510  0.0896  0.3230
12987W        W28118  17.236  16.623  12.494  0.0188 -0.2535 -0.3515
12988W        W28119  13.684  11.769   4.911 -0.0561  0.0317 -0.0435
12989W        W28120   6.229   3.042  11.219  0.0625  0.1269  0.1214
12990W        W28121   6.479   1.478  12.552 -0.0656  0.0255  0.1664
12991W        W28122  13.472   4.773  13.652  0.0086 -0.0932  0.0754
12992W        W28123   0.472  10.940   1.097 -0.1361 -0.4233  0.1156
12993W        W28124  17.721   6.785   2.036 -0.0032 -0.1779 -0.2426
12994W        W28125  14.785   0.913  11.588 -0.3939 -0.0954 -0.0331
12995W        W28126   7.051  17.554  12.429 -0.0185  0.0171 -0.0521
12996W        W28127   5.078  17.334   4.472  0.3637  0.1999  0.1365
12997W        W28128  13.079  15.337   0.266  0.1796  0.3920  0.1370
12998W        W28129  15.156   3.321  12.325 -0.2457 -0.0884 -0.2835
12999W        W28130   2.064  16.924   1.664 -0.0567 -0.0196 -0.2449
13000W        W28131   2.120   0.567   3.572  0.0307 -0.1413 -0.1515
13001W        W28132   0.985  10.188   0.012 -0.0835  0.4034 -0.0447
13002W        W28133  12.323  13.023   2.952 -0.3259 -0.1307  0.2433
13003W        W28134   1.201   9.985  12.422 -0.0030  0.0268  0.1038
13004W        W28135   1.920   3.445   3.734 -0.0498 -0.1817 -0.0196
13005W        W28136  12.031   0.922  12.137  0.1515  0.0606 -0.3115
13006W        W28137  14.274   0.565  13.160 -0.2526 -0.2611 -0.1781
13007W        W28138   9.024  13.766  15.051  0.3070  0.0001  0.0548
13008W        W28139   5.109   2.734   5.530  0.0344 -0.3090  0.1725
13009W        W28140   1.268  10.928   2.567  0.0395  0.2414  0.3997
13010W        W28141   0.939   1.747   1.650  0.0529 -0.0020 -0.0756
13011W        W28142   9.701  12.051  14.358  0.1138 -0.3134  0.3935
13012W        W28143   7.161   6.360  10.997  0.1600 -0.0754 -0.0472
13013W        W28144   8.297   3.125   4.089  0.1260  0.0465 -0.0620
13014W        W28145   5.226  17.519   2.147 -0.0042  0.0036  0.1063
13015W        W28146  10.144   2.159  16.073  0.1281  0.2843 -0.3086
13016W        W28147  14.638  10.170   1.525  0.5280  0.0188 -0.0242
13017W        W28148   5.858   5.911   0.779 -0.1216  0.6333 -0.0990
13018W        W28149  17.620   9.822   2.065  0.0881 -0.2071 -0.0094
13019W        W28150  11.907   0.078  11.863  0.0315  0.1399  0.2866
13020W        W28151  16.909   5.406  12.619 -0.4114  0.1754  0.0509
13021W        W28152  16.862   8.213   3.169 -0.3369  0.1424 -0.1285
13022W        W28153   9.263   9.467   4.484  0.1297 -0.0160 -0.1133
13023W        W28154  14.881   3.265   0.879 -0.0587 -0.2051  0.2640
13024W        W28155   1.727   8.694  15.485 -0.1117 -0.1154  0.0600
13025W        W28156   4.554   2.788  15.998  0.1079  0.0373  0.0349
13026W        W28157   3.682   5.821  11.197  0.0592 -0.0389  0.2545
13027W        W28158   1.368  18.249   1.005  0.0826 -0.1974  0.1615
13028W        W28159  15.982  11.236  15.690  0.1331  0.1246  0.1310
13029W        W28160   0.864   4.649   2.694 -0.0165  0.1660 -0.0946
13030W        W28161   7.143  14.041   2.218 -0.1941 -0.1244 -0.1830
13031W        W28162   4.653   6.727  10.740  0.2906  0.1297 -0.0045
13032W        W28163   3.204  17.513  12.830  0.1451  0.1444  0.0416
13033W        W28164   0.592  16.480  14.053 -0.6726  0.1018  0.0197
13034W        W28165  11.650  18.339  11.451 -0.3473 -0.7533 -0.1947
13035W        W28166   9.716   3.194  14.991 -0.1877  0.1882  0.0528
13036W        W28167   5.359   9.028  14.891  0.2099 -0.2067 -0.1624
13037W        W28168  18.311   1.254   4.215  0.4786  0.4014  0.0975
13038W        W28169  12.083  15.068  11.820 -0.2414 -0.2774 -0.1904
13039W        W28170  11.713  16.205   4.462 -0.0138  0.1975 -0.0499
13040W        W28171   7.154  11.411   1.853  0.2231  0.0524  0.1691
13041W        W28172  15.736  14.778  11.275  0.2335 -0.1628 -0.0238
13042W        W28173   9.660   3.531  13.296 -0.0890  0.0252 -0.3684
13043W        W28174  17.977  12.975   5.399 -0.0152 -0.0171 -0.3259
13044W        W28175   1.049   1.256  12.753 -0.2115 -0.1903  0.0504
13045W        W28176   1.001   9.410   1.409  0.0496 -0.1158 -0.0644
13046W        W28177  17.223  10.877  11.470 -0.1778 -0.1598 -0.3179
13047W        W28178  12.157   4.460   1.783  0.3033 -0.1098 -0.0025
13048W        W28179  14.936  13.221  14.423  0.0866  0.0088  0.1968
13049W        W28180  18.047   2.118   4.274  0.2630  0.1180 -0.2616
13050W        W28181   7.392  15.368  11.178 -0.0515 -0.0516 -0.1455
13051W        W28182  13.073   4.613   4.840 -0.3104  0.1517 -0.1787
13052W        W28183   6.372  10.314  12.312 -0.2610 -0.2630  0.1962
13053W        W28184  15.830   8.556   4.951  0.0079 -0.0701  0.0806
13054W        W28185  15.231   1.857   0.098  0.0659  0.2872 -0.0485
13055W        W28186  11.969  16.090   3.835 -0.0840 -0.4457 -0.1841
13056W        W28187  16.429  17.380   5.912 -0.2409  0.1711 -0.0812
13057W        W28188  18.149  12.083   1.853 -0.1547 -0.2738 -0.2822
13058W        W28189   2.517   0.914  12.869  0.0835  0.4164  0.1265
13059W        W28190  13.415  14.736   0.888 -0.2485  0.0396  0.0027
13060W        W28191   6.887  17.908  11.446 -0.1569 -0.4166  0.2103
13061W        W28192  16.363  15.737  12.376  0.3067 -0.0875  0.0549
13062W        W28193   7.537   2.105   5.276  0.1618  0.3342  0.0324
13063W        W28194   5.567  15.276   2.148 -0.0276  0.0829  0.2939
13064W        W28195   4.540   6.009  12.479 -0.3513 -0.2167 -0.0875
13065W        W28196  12.302   2.609  14.988 -0.0076  0.4579  0.0915
13066W        W28197   8.450  16.090   1.938  0.3052 -0.0283  0.0202
13067W        W28198  11.640  17.479  11.176 -0.1055  0.1955 -0.3175
13068W        W28199  14.004   6.590   5.553  0.3937  0.1101 -0.2695
13069W        W28200   2.962   7.215   4.970  0.0986 -0.1101  0.0866
13070W        W28201   6.388   2.125   1.336  0.0258  0.0174 -0.0544
13071W        W28202   4.761  11.406   1.179 -0.1600 -0.2410  0.2250
13072W        W28203  16.560  14.072   2.365  0.1555 -0.2422  0.1261
13073W        W28204  16.868   9.645   3.780  0.0911  0.1861  0.1129
13074W        W28205  17.518   5.864   1.029  0.2021 -0.4255  0.0086
13075W        W28206   9.936  12.319   4.948  0.0200 -0.1038  0.2238
13076W        W28207   3.503  16.607   0.746 -0.5215 -0.3235 -0.0259
13077W        W28208   4.558   9.676  15.974 -0.0708  0.3485  0.0409
13078W        W28209   9.628  12.666  12.774  0.0315 -0.0122  0.1433
13079W        W28210  12.849   3.824  13.322 -0.0761  0.1609 -0.1439
13080W        W28211   9.469   5.535  12.297  0.0264  0.4091  0.1349
13081W        W28212   5.720  11.043   2.945 -0.0310 -0.2514 -0.2997
13082W        W28213  14.591  15.245   4.888 -0.2058  0.0642  0.3139
13083W        W28214   0.513  15.637   0.816 -0.0822  0.0438 -0.1131
13084W        W28215  17.245  12.848   3.536 -0.0108 -0.0535  0.0000
13085W        W28216  11.634  10.746   5.137  0.1102  0.1545 -0.1760
13086W        W28217  13.226   7.305  11.135 -0.2627 -0.0693 -0.1531
13087W        W28218   2.177   3.027   2.380  0.0404 -0.4190 -0.1394
13088W        W28219  17.682   6.746  14.118  0.1923  0.0104 -0.1250
13089W        W28220  15.199   4.940  12.284  0.2267  0.0476  0.1301
13090W        W28221  10.201   3.577   4.458 -0.3385  0.1837  0.0168
13091W        W28222   6.677   0.745  15.670  0.2913  0.1565  0.1029
13092W        W28223  14.940   9.271   5.721  0.4633 -0.1636 -0.1326
13093W        W28224   8.160  12.384   2.103  0.1341 -0.1566  0.0770
13094W        W28225  10.816   7.605   4.123  0.3322  0.0340 -0.0682
13095W        W28226   6.859  10.176   2.600  0.2276 -0.0121  0.1934
13096W        W28227  15.145  10.967  13.164 -0.1262  0.4313  0.0605
13097W        W28228  12.951   6.838   1.995  0.3194  0.1406  0.0273
13098W        W28229  16.495   9.121   3.163  0.1735 -0.0277  0.0742
13099W        W28230   7.891   5.686   1.831 -0.1009  0.0941  0.2789
13100W        W28231   3.309  16.778  13.183  0.0047  0.3346 -0.4135
13101W        W28232   8.001   2.118   0.822 -0.0913  0.0964  0.1287
13102W        W28233   9.673   6.355   3.903  0.1085 -0.3107  0.0954
13103W        W28234   0.046  13.946  14.407  0.0451 -0.2632  0.0122
13104W        W28235   9.327   4.950  15.564  0.3183  0.2952 -0.0441
13105W        W28236  12.176  11.329  12.262  0.0069  0.2069  0.1540
13106W        W28237   6.035   3.779   0.682 -0.2178  0.0316  0.0346
13107W        W28238  13.079   5.173   1.872  0.0247  0.2388 -0.4245
13108W        W28239  18.314  15.364  11.034  0.0091  0.0227  0.2385
13109W        W28240   0.506   0.652  13.967 -0.0497 -0.0861  0.1736
13110W        W28241  14.858   4.052   3.122 -0.0520  0.4159 -0.0662
13111W        W28242   3.113  15.773   3.084 -0.1454 -0.0509 -0.0436
13112W        W28243   5.874   9.552  11.875  0.1639  0.2152 -0.2869
13113W        W28244   9.256   6.597   0.230 -0.1592 -0.0117 -0.0931
13114W        W28245   4.143   0.808   2.782  0.2793 -0.1676  0.3235
13115W        W28246  15.675   3.409   5.523 -0.2075  0.2503 -0.2162
13116W        W28247  15.734  14.449  14.517 -0.0944  0.0392 -0.2766
13117W        W28248   4.037   1.071   1.387  0.0361 -0.1024  0.0852
13118W        W28249   0.032   8.976  10.888  0.0134 -0.1708  0.1468
13119W        W28250   3.440  15.785  15.039  0.2479  0.1555 -0.3295
13120W        W28251   4.083  14.784  15.829  0.1812  0.1378  0.2251
13121W        W28252   9.670   7.279   0.587  0.0156 -0.2577  0.0746
13122W        W28253  11.661  10.054  12.464 -0.2794  0.2461  0.2213
13123W        W28254   3.508   0.136   0.722 -0.2195  0.0423  0.0710
13124W        W28255  14.280   5.953  15.873 -0.0872 -0.1201  0.1603
13125W        W28256  13.325  16.502  11.286  0.3579 -0.0545 -0.0942
13126W        W28257   8.098   2.277  14.469  0.2282  0.0276 -0.1917
13127W        W28258  16.991   1.569   6.257 -0.1046 -0.1184  0.0016
13128W        W28259   0.310   6.654   1.883  0.2947  0.1648 -0.1741
13129W        W28260   9.098  16.642   2.414 -0.1875  0.0289 -0.1153
13130W        W28261  16.169   5.036   5.528  0.1894  0.1957 -0.0445
13131W        W28262   9.864   5.143   2.623 -0.2018 -0.1041  0.2176
13132W        W28263   8.114  11.166   0.803 -0.4589 -0.1827 -0.0999
13133W        W28264  10.443   5.924  12.537  0.1437 -0.3204  0.2518
13134W        W28265   7.212   1.042   1.926  0.0699  0.0603  0.1970
13135W        W28266   0.511  17.550   1.723  0.3356 -0.0947 -0.0418
13136W        W28267  11.287  16.095  13.851  0.2136 -0.2069  0.4391
13137W        W28268  10.598  12.625  11.219  0.3448 -0.0162 -0.5039
13138W        W28269  11.376   7.439  13.550  0.2107 -0.2330  0.0182
13139W        W28270  11.045  14.598  15.347 -0.3584  0.0147  0.0185
13140W        W28271   4.144  11.577  13.563 -0.0199 -0.3104 -0.1680
13141W        W28272   3.115   0.261   5.606 -0.2622  0.0552 -0.0388
13142W        W28273   3.919   6.549   1.448 -0.0998 -0.0293  0.1724
13143W        W28274  10.304   1.914  15.095  0.3106  0.1698  0.4150
13144W        W28275   8.517   4.055  15.635 -0.5747 -0.3681  0.2242
13145W        W28276   9.862   2.310  12.113  0.3338  0.0917 -0.1753
13146W        W28277   3.290  11.254   1.066  0.0819 -0.3592  0.0629
13147W        W28278  13.670   5.805   1.968 -0.0013  0.0413 -0.0816
13148W        W28279  11.970   6.189   5.673 -0.1781  0.0200 -0.0831
13149W        W28280  10.544   6.169   0.704 -0.3128  0.0559 -0.0276
13150W        W28281  14.293  14.615   1.711  0.1088  0.1984 -0.0760
13151W        W28282  14.033  13.819  13.857  0.1069 -0.0432 -0.1817
13152W        W28283  17.552   5.766   2.100 -0.1186  0.1737 -0.1679
13153W        W28284  11.881   2.101   1.286  0.1349 -0.0088  0.0850
13154W        W28285   2.755   6.823   0.333 -0.0870 -0.4584 -0.1517
13155W        W28286  11.004   1.563   4.600  0.1668 -0.0624  0.2871
13156W        W28287   6.714  12.328  13.642  0.2860 -0.2166 -0.1989
13157W        W28288  11.246   8.966  14.740  0.1425  0.1581  0.4055
13158W        W28289   7.900   4.244   1.098  0.1870 -0.0359 -0.1129
13159W        W28290   0.450  18.037  15.506 -0.2852  0.2942  0.2247
13160W        W28291  14.425   2.477  11.142 -0.0006 -0.0129 -0.3245
13161W        W28292   8.773   9.308  14.976  0.1317  0.0095 -0.1200
13162W        W28293   6.772   1.760   4.890 -0.3751 -0.1748 -0.2357
13163W        W28294   2.691   2.528  15.802  0.1734  0.1296 -0.1515
13164W        W28295  16.333  14.214  11.715  0.1982 -0.0686  0.3558
13165W        W28296   2.619   0.899   4.940  0.0012 -0.1710  0.0405
13166W        W28297   3.511  12.876  13.519  0.1440  0.0075 -0.1809
13167W        W28298   7.988  10.529  13.820 -0.2517  0.0535 -0.2955
13168W        W28299  13.479   4.151   1.148 -0.1977  0.2182  0.0725
13169W        W28300   2.367   9.748  11.100  0.2942 -0.2147 -0.2722
13170W        W28301   2.302   5.297   4.813  0.0878 -0.0527  0.1295
13171W        W28302   3.992   6.217   3.129 -0.0884  0.3007 -0.0283
13172W        W28303  14.408   6.827   2.677 -0.3150 -0.2637  0.1167
13173W        W28304   3.465   0.627  13.617  0.2475 -0.0010 -0.0146
13174W        W28305   9.286   6.988   3.409 -0.2859  0.1039  0.1089
13175W        W28306  16.845  13.680   1.523 -0.0748 -0.2312 -0.0980
13176W        W28307   6.974  17.586   5.821 -0.0911 -0.1725  0.1848
13177W        W28308   1.130  10.872  12.065  0.1864  0.2323 -0.0589
13178W        W28309  18.114  14.702  13.045 -0.1352  0.1233  0.0373
13179W        W28310   7.459   5.993  12.608  0.1996  0.0964 -0.1835
13180W        W28311   4.647   6.413   0.210 -0.0483  0.1825 -0.1011
13181W        W28312  10.500   1.332  15.627 -0.1896  0.1074  0.2261
13182W        W28313  16.190  13.605  14.323 -0.3531  0.0974 -0.3564
13183W        W28314  15.901   9.488   5.468 -0.0299 -0.0981  0.0468
13184W        W28315  13.101   5.982  11.547  0.2233 -0.3670 -0.2179
13185W        W28316  11.944   2.863  14.078  0.0346 -0.0182 -0.2019
13186W        W28317   3.780  12.919  10.505  0.0717  0.2149 -0.0677
13187W        W28318   4.716   3.126   4.273 -0.3058  0.1814 -0.1558
13188W        W28319   6.060  18.061   1.142  0.0026 -0.0616 -0.0491
13189W        W28320   7.384   0.149   6.505  0.3408  0.1207  0.2209
13190W        W28321   7.827  14.759  14.320  0.1132  0.0804 -0.1764
13191W        W28322  10.549  17.600  11.824 -0.0199  0.2655 -0.0594
13192W        W28323  15.223  14.188  12.393  0.2757 -0.1916 -0.1128
13193W        W28324  15.872   4.045  12.652 -0.0830 -0.1699  0.5693
13194W        W28325  15.881   5.414   1.559 -0.0558 -0.2109  0.2847
13195W        W28326  16.926   1.473   2.277  0.3771  0.0811 -0.0962
13196W        W28327   7.897   5.783   4.790 -0.5068 -0.1668 -0.1241
13197W        W28328   6.869  16.008   1.238  0.1460  0.0097  0.1499
13198W        W28329   5.957  16.271   3.963 -0.0454  0.1840  0.0152
13199W        W28330   3.440   8.863   4.907  0.0354  0.1951  0.0517
13200W        W28331   3.106   8.208  11.275  0.2722  0.0485  0.2620
13201W        W28332   9.536  13.029   4.386  0.3959 -0.2589  0.4003
13202W        W28333  15.447   8.688   5.568  0.0257 -0.2838  0.0434
13203W        W28334  13.581  12.077   4.265  0.0333  0.0176 -0.3836
13204W        W28335   1.516   9.133   1.731  0.2231 -0.1972  0.2212
13205W        W28336   9.611   4.809  13.088 -0.0784 -0.2039  0.0873
13206W        W28337   6.033   4.214  12.751  0.3646 -0.2314 -0.0797
13207W        W28338   9.101   3.665   4.139  0.0896 -0.0770 -0.2915
13208W        W28339  17.540   0.027  12.724 -0.2866  0.0747  0.0296
13209W        W28340   8.651   9.708   4.740 -0.0805  0.0327 -0.1161
13210W        W28341   0.953   5.917   3.336 -0.3749 -0.1752 -0.1420
13211W        W28342  11.090   9.905   4.847 -0.3982 -0.0281  0.1292
13212W        W28343   8.833   6.732  12.777 -0.1290  0.0187  0.4058
13213W        W28344  13.061   4.473  14.584 -0.0940 -0.2118 -0.2421
13214W        W28345   5.077  10.972  11.109  0.0512  0.0710 -0.0143
13215W        W28346  14.604   6.465   3.613  0.0678  0.3940 -0.0755
13216W        W28347  11.219  15.494   1.670  0.0086  0.2509 -0.1481
13217W        W28348   7.857  12.141  15.492 -0.0132  0.2489 -0.1164
13218W        W28349   1.327   0.514   3.771  0.0817 -0.0529 -0.1915
13219W        W28350  16.823  16.493   4.901  0.3675 -0.4448 -0.3725
13220W        W28351  12.546   4.913   0.991 -0.0583  0.0616 -0.2356
13221W        W28352   3.013   4.248  12.798  0.1596  0.0857 -0.1288
13222W        W28353   4.221   9.453   4.553  0.0555 -0.1452  0.1012
13223W        W28354  14.331   3.437  14.511  0.1650  0.5271  0.0226
13224W        W28355   7.797   1.090  10.994  0.2702  0.1346 -0.0672
13225W        W28356   9.225   9.457  12.749 -0.3563  0.1259 -0.3641
13226W        W28357  15.030  11.037   2.756 -0.2785  0.1547  0.2315
13227W        W28358   4.069   3.593   5.106 -0.3427 -0.2885 -0.0617
13228W        W28359   4.079  14.960   5.724  0.0243 -0.2936  0.1494
13229W        W28360   6.520  14.904   0.642 -0.0781  0.0151  0.2956
13230W        W28361   2.529  10.696   2.998 -0.0271 -0.0622 -0.2587
13231W        W28362  13.521  18.302   4.896 -0.0488 -0.2961 -0.0264
13232W        W28363   0.096   7.508  11.015  0.0562  0.0231 -0.3684
13233W        W28364   9.134   4.908   0.829  0.2032  0.0591  0.0363
13234W        W28365   6.548  17.154   5.095  0.0219  0.0115 -0.2280
13235W        W28366   3.471  10.949   1.488 -0.0713  0.4943  0.0364
13236W        W28367  12.294   7.011   5.533  0.1867  0.1606 -0.0817
13237W        W28368  12.273   9.496   3.561 -0.0274  0.0649 -0.0299
13238W        W28369   6.893   8.501  13.702  0.1186  0.0592 -0.0991
13239W        W28370   0.072  15.851  14.934  0.0370 -0.0280  0.1975
13240W        W28371   8.905   5.895   1.948 -0.0061  0.1616 -0.2369
13241W        W28372   6.373   8.775  11.995 -0.0707  0.0738 -0.0088
13242W        W28373   2.151  17.856   4.567 -0.0460  0.1853  0.0179
13243W        W28374   0.088  11.180  10.243  0.1437  0.2910 -0.0213
13244W        W28375   6.057   3.553  13.649  0.0283  0.2381  0.2109
13245W        W28376  18.012  16.538   2.949 -0.1065  0.3541  0.0556
13246W        W28377   9.219  14.078   4.283  0.0754  0.2150  0.0027
13247W        W28378  11.466  14.907  12.847 -0.2026  0.1288  0.0636
13248W        W28379   2.165   2.095   5.955  0.2047  0.0209 -0.0331
13249W        W28380  14.814   9.581  13.315  0.0232 -0.1249 -0.1028
13250W        W28381   4.824  18.332   2.010  0.0604  0.0177 -0.2299
13251W        W28382   4.234   3.878   2.576 -0.2966  0.1915  0.1843
13252W        W28383  16.188   4.155  15.699 -0.2959 -0.5932  0.0400
13253W        W28384   4.552  13.888  13.565 -0.0172  0.0925  0.2841
13254W        W28385   9.673  15.362   4.275 -0.1174 -0.1413  0.0563
13255W        W28386   2.307  17.347  13.580  0.0969  0.1181  0.2192
13256W        W28387   2.505  11.055  13.813  0.1238 -0.1324 -0.3171
13257W        W28388  18.157  18.111   0.555  0.0584 -0.1596  0.1965
13258W        W28389  16.437   0.646   5.503 -0.0858 -0.1839 -0.2316
13259W        W28390  11.155  14.432  11.161 -0.0084  0.0993 -0.1365
13260W        W28391   9.029   7.459   5.884  0.3185  0.0749  0.0280
13261W        W28392   0.908  12.573   0.163 -0.0459  0.1506  0.2116
13262W        W28393   8.050   0.858   2.816  0.2152  0.0301 -0.1352
13263W        W28394  16.631   2.694  14.576  0.1431  0.0070  0.0562
13264W        W28395  17.336  12.379  14.466 -0.2165  0.1213  0.2673
13265W        W28396   7.173   5.439  14.551 -0.1640 -0.0725  0.1827
13266W        W28397   4.787  17.051   1.547  0.0676 -0.0611  0.1575
13267W        W28398  13.501   3.678  12.550  0.2227 -0.0533  0.3264
13268W        W28399   5.403   7.845  12.329 -0.1041  0.2725  0.0899
13269W        W28400   9.253  16.630  15.719 -0.1755 -0.1701 -0.0835
13270W        W28401   9.172   7.547   5.446 -0.0073 -0.1014  0.3588
13271W        W28402   9.623   8.546   4.348 -0.2763 -0.1688  0.1110
13272W        W28403   6.639  18.357   0.355 -0.0299 -0.0904 -0.0452
13273W        W28404  17.525  15.138  14.308  0.2505 -0.0180  0.0586
13274W        W28405   9.648  15.355  15.652 -0.1710 -0.2051  0.0877
13275W        W28406   7.296   4.361   2.476  0.1105  0.2118  0.1426
13276W        W28407   3.199   3.714  12.657 -0.1524 -0.0461 -0.2485
13277W        W28408   3.078  12.982  11.506  0.0324  0.0332 -0.0394
13278W        W28409  16.684   6.013  15.510  0.2096 -0.0877 -0.0128
13279W        W28410  11.474  12.923   0.664  0.1843  0.1462 -0.1587
13280W        W28411   7.717   9.596  13.914  0.0457 -0.0743 -0.1413
13281W        W28412  17.842  12.005  11.081 -0.0420 -0.2188  0.0822
13282W        W28413   1.616   3.267   1.099  0.0709  0.0503  0.1734
13283W        W28414  15.901  14.353   0.279 -0.2303  0.2538  0.0088
13284W        W28415   1.652  13.755  10.721 -0.0502  0.3480 -0.4630
13285W        W28416  11.485   2.201   2.737  0.2970 -0.1685  0.1699
13286W        W28417  17.094  11.008   4.847  0.0096 -0.2039  0.1198
13287W        W28418   3.547   7.880   4.666  0.1264 -0.1533 -0.2675
13288W        W28419   6.072  16.907  15.392  0.3183 -0.0847 -0.0190
13289W        W28420   1.894  13.620  15.111  0.2930  0.1177 -0.3990
13290W        W28421  14.563   5.749   5.233  0.3267  0.2718 -0.2219
13291W        W28422   5.621  18.222  13.271 -0.0761  0.0635  0.1953
13292W        W28423  13.634  13.346  15.029  0.1320  0.1371 -0.0975
13293W        W28424   3.474   9.875  10.835 -0.2071  0.0403 -0.0482
13294W        W28425  13.376  12.802  15.176  0.3697 -0.3279  0.1319
13295W        W28426   7.202   3.114  13.469  0.1962 -0.0415 -0.1451
13296W        W28427   1.716   7.155   1.256  0.2656  0.2103 -0.1106
13297W        W28428  12.105   1.833  12.003  0.0884 -0.2382  0.1735
13298W        W28429   7.250   1.387  13.259 -0.2751  0.1014  0.0285
13299W        W28430   0.770   1.683  12.889 -0.2972 -0.1381 -0.0639
13300W        W28431   3.096   8.215   1.168 -0.1879  0.0365  0.1716
13301W        W28432   3.236  15.177  16.114 -0.0749  0.3744  0.1665
13302W        W28433   0.056   7.603   4.924  0.2283 -0.2097  0.2225
13303W        W28434   5.751   8.791   3.342  0.3533  0.1565  0.1077
13304W        W28435   3.505  10.835  14.066  0.0917 -0.2780  0.0585
13305W        W28436  12.856   0.927  14.339 -0.1981  0.2331 -0.0438
13306W        W28437  14.118  16.636  15.187  0.0388  0.2990  0.1061
13307W        W28438  18.307   4.384   3.892 -0.0065  0.5160 -0.1892
13308W        W28439   4.739   9.961  14.558  0.0887 -0.0598  0.0059
13309W        W28440  15.196   1.398  11.393 -0.0058  0.3995  0.1791
13310W        W28441   7.682   4.669   0.939  0.1194 -0.0192 -0.2559
13311W        W28442  18.282   0.359   5.687 -0.0500 -0.1473  0.0004
13312W        W28443  11.697   3.681  12.804  0.0418  0.1708 -0.2356
13313W        W28444   7.033   9.767  15.000 -0.2826  0.0305 -0.1611
13314W        W28445   9.304   3.146  15.901 -0.2184 -0.1160  0.0184
13315W        W28446   2.418   3.474   2.491 -0.1144 -0.3018 -0.1837
13316W        W28447  13.720   8.927   4.550  0.1792 -0.3290  0.1102
13317W        W28448  15.612   2.483   3.242 -0.3002  0.1220  0.0688
13318W        W28449   7.765   9.685   0.175  0.0574 -0.3216 -0.0345
13319W        W28450  13.948  11.752   4.440 -0.0317  0.0750 -0.0476
13320W        W28451   4.392  14.489   0.708 -0.2396 -0.0418  0.1379
13321W        W28452   4.856  13.308  11.524  0.0547  0.0755  0.1037
13322W        W28453   1.102  16.964   3.268 -0.1793 -0.0521 -0.0761
13323W        W28454  13.469   2.519  13.027  0.1814 -0.0904  0.2061
13324W        W28455   7.841  12.694  13.062  0.1785 -0.0920  0.2207
13325W        W28456  10.136   0.308   1.548 -0.1911  0.2907 -0.1468
13326W        W28457   8.697   6.177   4.610 -0.2286 -0.3978  0.3064
13327W        W28458   8.899   3.636  13.116  0.1301  0.1934  0.1005
13328W        W28459  16.959  10.614  11.144 -0.0395  0.0634 -0.2137
13329W        W28460   2.510   6.961   3.577  0.0073 -0.3524 -0.1478
13330W        W28461  11.836   3.241  10.814 -0.0123 -0.0117 -0.0679
13331W        W28462   1.290  18.286   4.979 -0.1653 -0.2216 -0.4041
13332W        W28463   1.196  16.386   2.087  0.2489 -0.1425 -0.0298
13333W        W28464  10.034  14.301   2.188  0.1933  0.0217 -0.1965
13334W        W28465   4.346  13.013   2.062 -0.3144  0.0021 -0.0473
13335W        W28466  10.470  17.474   0.075  0.1437  0.0011 -0.0005
13336W        W28467  17.758  18.325   4.053  0.2774  0.2227  0.0371
13337W        W28468   8.368   8.747  12.159  0.0844 -0.1708  0.0190
13338W        W28469  10.285  10.040  11.651 -0.1867 -0.0545 -0.0483
13339W        W28470   3.160   4.431   2.193  0.2362 -0.1272 -0.0963
13340W        W28471   7.941  16.482  10.871 -0.0906 -0.1315 -0.0318
13341W        W28472  10.916   1.246   2.577  0.0279  0.0980  0.0997
13342W        W28473   1.549  16.844  10.331 -0.1282  0.1552  0.2648
13343W        W28474   5.046   0.292  15.749 -0.2369  0.2069 -0.0143
13344W        W28475   5.028   7.100  10.813 -0.1375 -0.1135  0.1591
13345W        W28476  13.631   9.356  12.070  0.0019  0.1125  0.0895
13346W        W28477  12.276   1.758   2.476  0.2008 -0.1422 -0.0123
13347W        W28478   3.671   5.208  15.962  0.1201 -0.0929  0.1165
13348W        W28479  14.279  16.146  13.184 -0.1581 -0.0732  0.0446
13349W        W28480   3.962   0.164  15.305  0.3578 -0.2045 -0.1096
13350W        W28481  18.113   4.135  14.339 -0.1329  0.0972 -0.1395
13351W        W28482   0.595   4.768  12.169 -0.1565  0.0394 -0.1516
13352W        W28483   5.443   3.029  12.124 -0.0072  0.2706  0.1884
13353W        W28484  15.076   5.414  12.271 -0.1868 -0.1960  0.0012
13354W        W28485  10.421   8.033   1.978 -0.0083  0.1160 -0.1863
13355W        W28486  13.108   6.158  14.181 -0.2718  0.0254 -0.3153
13356W        W28487   4.575  11.702   3.702  0.2114 -0.1405  0.1273
13357W        W28488  10.766  14.618   2.917 -0.0237  0.0130 -0.1535
13358W        W28489  13.124  16.425   4.652  0.0086 -0.0138 -0.1254
13359W        W28490   6.527   7.873  13.047 -0.1086  0.0810  0.0999
13360W        W28491   4.302   5.771   4.029  0.0552  0.1539 -0.1579
13361W        W28492  11.004   2.852   0.253 -0.1065 -0.0492 -0.0724
13362W        W28493  11.609  18.223   2.754  0.1329  0.0854  0.2306
13363W        W28494   9.644   6.129  15.750  0.1300 -0.0971  0.0699
13364W        W28495   8.403   0.145   1.237 -0.0937  0.2045  0.1132
13365W        W28496  16.487   1.212   1.154  0.0953  0.1229 -0.2949
13366W        W28497  15.428   0.674   3.153 -0.2046 -0.0887 -0.0768
13367W        W28498   1.694  12.760   1.980  0.4686 -0.0875  0.1218
13368W        W28499   3.559   0.563   5.235  0.1264  0.1499 -0.1711
13369W        W28500   8.039   4.013  11.601 -0.1556 -0.1965  0.3253
13370W        W28501  15.983  11.833   4.707  0.1023  0.0201 -0.1269
13371W        W28502  12.416   6.890   1.341  0.2915  0.0062 -0.1053
13372W        W28503   3.670   9.451   4.460 -0.0023 -0.0564 -0.0532
13373W        W28504  11.631  13.336   1.320  0.0723  0.0076  0.3331
13374W        W28505   7.540   6.442   2.950 -0.0926  0.1066 -0.0631
13375W        W28506   2.454  12.944  13.759  0.0222 -0.0790 -0.0251
13376W        W28507   0.432   3.929   5.912  0.1695 -0.1525  0.2585
13377W        W28508  16.597  13.155  13.962 -0.0175 -0.0597 -0.1608
13378W        W28509  10.247  16.450  15.791 -0.0994 -0.1070  0.0441
13379W        W28510  12.313   1.620  14.658  0.0545 -0.0571  0.1048
13380W        W28511   1.593   7.239  10.761 -0.1378  0.1010 -0.0872
13381W        W28512  13.097  11.685  14.220  0.0673 -0.0878  0.1574
13382W        W28513   5.867  15.777   4.134 -0.0235  0.0192  0.1831
13383W        W28514  11.316   0.252   4.420  0.0828  0.2042 -0.1390
13384W        W28515  10.051  10.610   1.128 -0.0288  0.1059  0.0785
13385W        W28516  14.108   2.720   2.095 -0.1493  0.3166  0.4177
13386W        W28517   6.487   3.792  13.711 -0.0466  0.0030 -0.2957
13387W        W28518   2.676  15.549   3.197 -0.1981  0.1117 -0.1625
13388W        W28519   4.071   9.107   3.281 -0.1475 -0.0428  0.2631
13389W        W28520  11.660  17.386  14.880  0.1129  0.0987  0.0653
13390W        W28521   3.867  10.102   4.484 -0.5720 -0.2590  0.0276
13391W        W28522  13.466  11.569  11.715 -0.0708 -0.3511  0.0194
13392W        W28523  10.540   1.900  11.532  0.2574  0.1687 -0.1244
13393W        W28524  15.782   4.198   0.319  0.0197  0.1935 -0.0834
13394W        W28525  15.990  10.456  12.064 -0.1463 -0.0622 -0.2286
13395W        W28526   3.040  18.033  13.572 -0.4942  0.2404  0.2742
13396W        W28527  13.688  16.885   1.114  0.0790 -0.1939 -0.2641
13397W        W28528  14.312  11.939   4.140 -0.0727 -0.0964 -0.0882
13398W        W28529   8.875   3.841   0.246 -0.1076 -0.1072 -0.1510
13399W        W28530   4.958  16.053   4.204 -0.0741  0.0025 -0.0083
13400W        W28531  12.164  16.062   4.508  0.1442 -0.2449 -0.2137
13401W        W28532   9.626   5.223  10.362  0.1115 -0.3905 -0.3472
13402W        W28533   9.581   7.742  15.795 -0.0979 -0.0856 -0.1005
13403W        W28534  17.244  10.862   5.514  0.1793  0.3364  0.3318
13404W        W28535  16.819  10.110   3.585  0.1851  0.1990 -0.2894
13405W        W28536   5.166  17.488  13.228  0.3068  0.0253 -0.1422
13406W        W28537  17.684   1.065  15.384 -0.0993 -0.1889  0.0407
13407W        W28538  17.583   9.664   4.335  0.2078  0.0352 -0.4346
13408W        W28539  11.602   8.962   2.987 -0.0753  0.0920  0.1705
13409W        W28540   3.898  15.764  15.526  0.1188  0.1324  0.2171
13410W        W28541  11.839   4.240  10.859 -0.1053  0.0178 -0.1334
13411W        W28542  13.961   0.622  11.659  0.2682 -0.3778  0.0814
13412W        W28543   2.144   1.697   5.620 -0.3538 -0.0392 -0.1104
13413W        W28544  10.921   4.255  14.064  0.0914  0.2012 -0.1493
13414W        W28545  12.959   5.981   4.877  0.0733 -0.0041  0.0641
13415W        W28546   4.573   8.354   3.153  0.1884  0.1360  0.2166
13416W        W28547   4.817   4.120  11.339 -0.0321 -0.0860  0.0847
13417W        W28548  12.899   3.906   5.227  0.0718  0.2586 -0.0564
13418W        W28549   9.559  10.711  13.710 -0.1003  0.1281 -0.0542
13419W        W28550   5.777   6.593  14.729  0.0651 -0.0234 -0.1744
13420W        W28551  15.195  17.774   0.471 -0.0526  0.2359  0.0030
13421W        W28552  17.310  16.036  12.175  0.1450  0.3478  0.0501
13422W        W28553  17.043  18.157  14.925  0.2794 -0.4094  0.0774
13423W        W28554  12.746   5.452  14.564  0.1602 -0.0697 -0.1149
13424W        W28555   1.381   4.079   4.908 -0.1990  0.0461 -0.1188
13425W        W28556  15.764  18.032   2.021 -0.2278 -0.0784  0.2094
13426W        W28557  15.620  13.443   3.854  0.2751 -0.2334  0.5054
13427W        W28558  15.312  14.141  13.299  0.0053 -0.2032  0.0264
13428W        W28559   2.651  10.577  14.054 -0.1486 -0.2537  0.0601
13429W        W28560  13.409  10.002  10.451  0.0992 -0.2275  0.2742
13430W        W28561   7.994  12.228  10.775 -0.2188  0.2635  0.0346
13431W        W28562   1.876  11.429  14.639 -0.3521  0.2375 -0.1305
13432W        W28563  16.962  14.397  13.628 -0.0512  0.0929 -0.1649
13433W        W28564   4.171  10.221  13.389  0.2549 -0.0665  0.0008
13434W        W28565   8.989  11.912   2.974  0.0425 -0.2024 -0.0528
13435W        W28566   4.518   1.330  10.915 -0.0782 -0.1417 -0.1038
13436W        W28567  10.514  12.796  15.819 -0.1990  0.1434 -0.0575
13437W        W28568  17.691  14.574   1.612 -0.1092 -0.0849  0.4256
13438W        W28569   2.047   5.136   5.366  0.1976  0.3095  0.4110
13439W        W28570  11.572   2.057  12.926 -0.1121  0.1563  0.2989
13440W        W28571   9.874  18.179  13.180  0.1147 -0.0173 -0.0127
13441W        W28572   5.960  15.496   1.247  0.2100  0.1264 -0.0019
13442W        W28573   8.667  14.099  15.031  0.3963 -0.1002 -0.0543
13443W        W28574  16.053  11.402   4.886  0.0113  0.1358  0.1274
13444W        W28575  12.938  15.843   1.547  0.2205  0.0617  0.0578
13445W        W28576   8.636   2.725   2.117 -0.0619  0.0770  0.1298
13446W        W28577   9.077   0.168  12.061 -0.0514  0.3347 -0.1992
13447W        W28578  11.579   8.364  10.687 -0.0510  0.0807 -0.1153
13448W        W28579  15.474   6.811   0.314 -0.1193  0.1256  0.0540
13449W        W28580   0.167   2.961   1.069 -0.1294 -0.4948 -0.2373
13450W        W28581   6.741   9.227  15.361  0.0727  0.3950 -0.1032
13451W        W28582   1.297   3.441   5.525  0.0559  0.0973 -0.2004
13452W        W28583   3.590  16.048  16.014  0.1075 -0.1633  0.1877
13453W        W28584   0.142   8.084  11.802  0.1215  0.0906 -0.1532
13454W        W28585   8.187   4.979   5.284  0.0325 -0.0926 -0.2483
13455W        W28586   9.388   1.004   5.040  0.0745 -0.1942  0.3724
13456W        W28587  14.816  12.676   4.328  0.1454  0.1445 -0.5401
13457W        W28588   0.093   1.729  12.764 -0.0414 -0.0094 -0.0157
13458W        W28589   7.365   1.149  12.254  0.3137  0.1900 -0.3299
13459W        W28590  15.814   6.113   0.709 -0.2553 -0.1633  0.0527
13460W        W28591  10.879   5.772  13.830 -0.1867  0.2935  0.1931
13461W        W28592   4.605   0.576   0.012  0.0315  0.2318 -0.0925
13462W        W28593  17.945   3.052  11.421 -0.0624 -0.2682  0.0266
13463W        W28594   9.582  13.710   0.641  0.2336  0.2617  0.1971
13464W        W28595   7.992   8.288  13.036  0.0777 -0.0102  0.4521
13465W        W28596   5.447   5.658  14.983  0.3054 -0.3102  0.1131
13466W        W28597  17.897   9.656   0.204  0.3269 -0.2016 -0.1207
13467W        W28598  11.293  18.276   4.864  0.3117  0.0174  0.1398
13468W        W28599  11.210   6.912   1.891 -0.1853  0.0639 -0.1237
13469W        W28600   8.948  11.617   4.432 -0.0163  0.2183  0.2045
13470W        W28601   9.463   8.244   1.696  0.1530 -0.2500 -0.2554
13471W        W28602   3.276   7.603   3.618 -0.1118  0.3659  0.3003
13472W        W28603   6.445   1.253   0.989  0.2101  0.3774  0.1693
13473W        W28604  17.243   6.968  12.674  0.2715 -0.4926  0.0223
13474W        W28605   9.211  17.216   0.302 -0.0346  0.1688 -0.2542
13475W        W28606   7.466  15.496  14.464 -0.1504 -0.0464  0.3645
13476W        W28607   2.642   1.134   4.457 -0.0862  0.1162  0.0073
13477W        W28608   2.038   3.997  11.846  0.0650  0.2216  0.1683
13478W        W28609   3.217   9.508   1.385 -0.1125  0.0800  0.1784
13479W        W28610   7.213   7.726  11.173 -0.0393 -0.0894  0.1466
13480W        W28611  16.349  10.515   2.628  0.0332 -0.2348 -0.0691
13481W        W28612  16.627  14.040   1.225  0.1380 -0.0528  0.0426
13482W        W28613  11.659   9.007  13.851  0.0765  0.3596  0.0845
13483W        W28614   9.267  17.773   2.247  0.2912  0.0174  0.3662
13484W        W28615   5.882   3.311  12.703 -0.2930  0.3101 -0.0348
13485W        W28616   1.839   9.929  11.137  0.1096 -0.2712 -0.1502
13486W        W28617   2.001  17.731  13.677 -0.1345  0.0847 -0.2010
13487W        W28618   8.978  12.658  14.617 -0.1332 -0.0511  0.0188
13488W        W28619   9.309   5.035  11.451  0.0962 -0.1207 -0.0680
13489W        W28620   4.171   1.462   0.446  0.2993  0.2432  0.1296
13490W        W28621  15.066   8.081  13.392  0.1572 -0.1724 -0.0389
13491W        W28622  13.805  15.932   2.504 -0.1590 -0.3311 -0.1428
13492W        W28623  12.539   3.120   5.607  0.0497  0.1298  0.2207
13493W        W28624   6.807   3.940  12.437  0.0140  0.0303 -0.1832
13494W        W28625  12.790  13.063  11.132 -0.1128 -0.2179 -0.0462
13495W        W28626   3.994  15.803   0.149  0.1025 -0.2214  0.0675
13496W        W28627   9.615  10.455   0.893  0.1332 -0.1166 -0.0397
13497W        W28628   4.432  16.532   0.753  0.1458 -0.0220  0.0701
13498W        W28629  17.545  15.152   5.461  0.1758 -0.0042 -0.1790
13499W        W28630   5.508   3.324  13.766  0.0306 -0.0665 -0.0138
13500W        W28631   4.871   4.574  10.622  0.3714 -0.1564  0.1888
13501W        W28632   3.787  12.016   3.495  0.0292  0.0663 -0.0381
13502W        W28633  14.569   4.211   5.491 -0.1738  0.1275 -0.1286
13503W        W28634  10.727  15.554   1.935  0.0504 -0.1337 -0.3626
13504W        W28635   0.338   7.703  13.519 -0.0434 -0.0773  0.1294
13505W        W28636   8.221   4.256   4.921  0.1911  0.2614 -0.2441
13506W        W28637   9.960   7.561   1.509 -0.2873  0.3568  0.0283
13507W        W28638   5.970  18.328  12.187 -0.1989 -0.0083  0.1315
13508W        W28639   6.913  16.416   2.112 -0.3245 -0.2127 -0.0582
13509W        W28640  11.629   8.620  15.777  0.3812  0.0022  0.0751
13510W        W28641  12.442   4.907   1.952 -0.0031  0.0305  0.0092
13511W        W28642  14.463   7.313   2.742 -0.3039 -0.0656  0.0504
13512W        W28643  16.336  15.741  13.517  0.0988 -0.3335 -0.0792
13513W        W28644   3.974   5.771  15.438  0.1478 -0.0907  0.2012
13514W        W28645  17.485  14.717  15.317  0.3256 -0.0335  0.3017
13515W        W28646  14.095   8.939  12.377  0.1513  0.0431  0.1752
13516W        W28647  15.057  13.651   1.495 -0.3455  0.1183 -0.1739
13517W        W28648   5.983  12.806  12.500 -0.0960  0.2861 -0.0704
13518W        W28649   9.254   9.269   0.305 -0.0921  0.0494 -0.2666
13519W        W28650  11.169   0.989   2.198 -0.3600 -0.3677 -0.0820
13520W        W28651  10.606   8.256   4.939  0.2208 -0.0085  0.1025
13521W        W28652   5.682   7.897  15.745  0.0488 -0.0999  0.0405
13522W        W28653  15.079   9.818   4.666  0.1334 -0.2070  0.3599
13523W        W28654   2.575   4.566  14.017  0.2972 -0.2281  0.1597
13524W        W28655   7.556   7.954  11.461  0.2607 -0.0627  0.0668
13525W        W28656   1.699   4.129  11.529  0.0661 -0.1107 -0.0510
13526W        W28657  13.468   6.852   4.581 -0.3208 -0.0768  0.2294
13527W        W28658   2.184   7.001   3.082 -0.1492  0.1228  0.1878
13528W        W28659   4.062  10.851  12.068 -0.0511  0.1618 -0.0219
13529W        W28660   5.894   2.352  13.758  0.1091  0.1323  0.1398
13530W        W28661   6.953   2.284  12.796  0.1685 -0.3323 -0.0070
13531W        W28662  14.856   0.427   1.312  0.2063  0.0171 -0.4452
13532W        W28663   3.358   1.723  12.972  0.1210  0.0319  0.1568
13533W        W28664  13.954   3.349  11.182  0.0875  0.0463 -0.0251
13534W        W28665   2.190  13.197  12.881 -0.1639  0.0636 -0.1415
13535W        W28666   7.417  11.953  11.845  0.0286 -0.1424  0.1814
13536W        W28667   7.289   6.730   3.892  0.0033  0.0196 -0.3063
13537W        W28668   7.008   8.477   2.072  0.0194 -0.0943  0.0490
13538W        W28669   5.975  11.049   2.280  0.0607 -0.0927 -0.0016
13539W        W28670   6.379   7.271   1.705 -0.0254  0.1809  0.1476
13540W        W28671  11.673  14.721  10.330  0.1922  0.0483 -0.0269
13541W        W28672  11.544   3.940   1.482  0.2246 -0.1025  0.0581
13542W        W28673   1.682   0.082  15.773 -0.3677  0.0714  0.3072
13543W        W28674  14.460   0.153   2.241  0.2542  0.0704 -0.0185
13544W        W28675   0.818   9.875   4.662 -0.0528 -0.0237 -0.2942
13545W        W28676  12.817   2.351  14.472  0.0044  0.0716 -0.1129
13546W        W28677   0.325  13.645   2.981  0.3198  0.3571  0.2111
13547W        W28678   3.156   7.697   0.456  0.0070  0.0015  0.2597
13548W        W28679   3.351  13.714   0.582  0.1288  0.1430  0.0737
13549W        W28680   4.353   2.971  10.970  0.0395 -0.5178  0.1090
13550W        W28681   3.470   7.190  15.435  0.1041  0.1814  0.0983
13551W        W28682  14.294   4.471  14.206  0.1197 -0.1737 -0.0918
13552W        W28683   5.207  10.251  14.060 -0.0735  0.1598 -0.3202
13553W        W28684  11.980   4.084   0.910  0.2332  0.0776  0.0132
13554W        W28685   7.537   1.299   1.021  0.3538  0.0201 -0.0672
13555W        W28686   7.272  17.337  12.832 -0.1123  0.1064  0.1130
13556W        W28687   9.392   3.030  15.446 -0.4322 -0.1858 -0.0106
13557W        W28688   6.501   7.231   0.401 -0.0168  0.2161  0.0435
13558W        W28689  16.278  14.274   0.930  0.0859 -0.1181  0.1333
13559W        W28690   2.545   9.882  11.828 -0.2612  0.1993 -0.1445
13560W        W28691  12.985  16.555  13.024 -0.1453  0.1589 -0.0369
13561W        W28692  17.049   1.491   4.097  0.1687 -0.1420 -0.0645
13562W        W28693  15.849  10.045  12.385  0.1917  0.0230 -0.0230
13563W        W28694  18.187  11.145  14.321  0.1940  0.0716 -0.0359
13564W        W28695  13.484   5.780  15.870 -0.0948 -0.2047  0.0878
13565W        W28696   9.420   6.543  15.562 -0.0391  0.1513  0.3826
13566W        W28697   3.333   4.123  14.133 -0.0260  0.0317 -0.1299
13567W        W28698   4.838   2.368  12.293 -0.1352  0.2645 -0.0623
13568W        W28699   3.430  17.197   5.398 -0.0669 -0.0143  0.2158
13569W        W28700  14.981  11.237   1.567 -0.0580  0.1789  0.1642
13570W        W28701  14.929  12.394   5.271 -0.1827 -0.0170  0.0002
13571W        W28702   3.955  10.943   2.254 -0.0179 -0.3525 -0.4502
13572W        W28703   3.805  16.916  12.301  0.0541  0.2003  0.4488
13573W        W28704   5.169   0.086  13.316 -0.4579 -0.2212  0.0005
13574W        W28705  13.258   7.285  13.367  0.0162 -0.0172 -0.2397
13575W        W28706   1.063  14.617  15.645  0.2652 -0.1330  0.4339
13576W        W28707  10.393   9.554  11.705 -0.1349  0.0807  0.0727
13577W        W28708  17.141   2.857  14.457  0.1021  0.1109 -0.3233
13578W        W28709  13.831   2.559   5.108 -0.0729  0.3672 -0.0848
13579W        W28710  16.042   4.310  14.888 -0.0613  0.2714  0.1413
13580W        W28711   4.662   1.489   4.140  0.1334 -0.0125  0.0046
13581W        W28712  15.079  13.598   5.394 -0.0857 -0.3295 -0.0340
13582W        W28713   9.670  17.923  11.553  0.3977  0.2266 -0.0602
13583W        W28714   1.682   8.301  12.603  0.1390 -0.3688 -0.3298
13584W        W28715  14.377   5.794   2.737 -0.0074 -0.0912  0.1706
13585W        W28716  11.026  17.417   0.840  0.2788  0.1343 -0.1117
13586W        W28717   5.373   7.123  14.565 -0.0935 -0.3088 -0.1398
13587W        W28718  16.862   9.588   5.025 -0.1898 -0.0017  0.2122
13588W        W28719   3.063   4.276   0.495  0.0354  0.2746 -0.1508
13589W        W28720  15.472   8.755  11.968  0.2150  0.2467 -0.0288
13590W        W28721  16.944   9.983  13.021 -0.3563  0.1068  0.2775
13591W        W28722   7.200   6.030   1.237 -0.1820  0.1062  0.1050
13592W        W28723  13.514  16.407  14.058 -0.0713 -0.0268  0.0669
13593W        W28724   8.092  18.059   5.497 -0.2068  0.2392 -0.0222
13594W        W28725  14.471   1.639  13.190 -0.1485 -0.1300  0.0242
13595W        W28726  15.215  13.208  12.309  0.0902  0.2501  0.2137
13596W        W28727   1.522  13.797   5.066 -0.1785 -0.0071  0.2723
13597W        W28728  16.519   0.682   1.083 -0.1789  0.1451 -0.0684
13598W        W28729  16.238   3.891  12.338 -0.0648  0.1236  0.1279
13599W        W28730   6.781  13.401   0.942  0.1993  0.0222 -0.2727
13600W        W28731  16.740   2.931   1.199 -0.0678  0.0685  0.1072
13601W        W28732  10.900   7.086   1.429  0.1528  0.2564 -0.0417
13602W        W28733   1.790   5.149  14.608 -0.2576  0.1382  0.1216
13603W        W28734  11.592  12.299  15.427  0.0078  0.1232  0.1185
13604W        W28735   5.536  12.337  13.644 -0.1340 -0.0042 -0.4490
13605W        W28736  14.499   7.044  14.663  0.1936  0.0168  0.1395
13606W        W28737   4.739   9.433  11.459  0.2047  0.0334 -0.1631
13607W        W28738   1.497   2.400   1.374  0.3676  0.0468 -0.2443
13608W        W28739   2.992  17.130  11.008 -0.4072  0.1757 -0.0717
13609W        W28740   4.375   4.571  15.910  0.2718  0.0136 -0.0037
13610W        W28741   4.276   8.370  15.676 -0.4998 -0.2672 -0.0920
13611W        W28742   7.412  13.794  13.138 -0.1782 -0.0050  0.1982
13612W        W28743  12.955   6.997  12.029  0.0545  0.1113 -0.2888
13613W        W28744  15.269   6.887  10.943 -0.0467  0.1564 -0.2251
13614W        W28745  11.795  13.708   0.510 -0.1703 -0.0924  0.0692
13615W        W28746  10.923  12.147   0.676  0.3557 -0.2012  0.2407
13616W        W28747   1.786  10.997  14.311 -0.3841 -0.0397 -0.0036
13617W        W28748   6.160  10.441   4.818 -0.2027 -0.1340  0.0107
13618W        W28749  17.025  13.236  13.629 -0.1680 -0.2067  0.1263
13619W        W28750   9.089   0.229  13.440 -0.1879  0.0081  0.0012
13620W        W28751  16.534  17.109  10.763  0.0396 -0.0546 -0.1080
13621W        W28752   3.380   6.440   2.667 -0.1983 -0.1003 -0.0828
13622W        W28753  13.602  16.005  14.457 -0.1119  0.1183 -0.2788
13623W        W28754  11.055   4.331  12.494 -0.1743 -0.1297  0.0411
13624W        W28755   2.122  14.254  13.594  0.0698 -0.0681  0.0651
13625W        W28756   5.445  11.057  13.916  0.2262  0.4498  0.0458
13626W        W28757  12.538  13.680  11.324 -0.3035  0.1223  0.1641
13627W        W28758   4.681  15.713   1.760  0.1609  0.1648  0.0960
13628W        W28759  16.258   4.691  15.905  0.1808 -0.2539  0.3417
13629W        W28760  16.811   4.591   2.460  0.2449 -0.1263  0.0928
13630W        W28761  12.147   5.815  12.279 -0.1241  0.0392  0.2074
13631W        W28762  12.968   0.421  14.486  0.2630 -0.2977  0.1099
13632W        W28763  17.824   1.882  14.207 -0.3355  0.4072 -0.2984
13633W        W28764  17.541   7.272   2.106 -0.2155 -0.1145  0.3734
13634W        W28765  11.271  14.859   4.030  0.0755  0.1990  0.0217
13635W        W28766  14.992   7.823  12.756 -0.2159  0.2135 -0.1392
13636W        W28767   2.215   0.256  15.187 -0.2387  0.4234  0.4186
13637W        W28768  15.775  12.415   5.273 -0.0855  0.2450 -0.1783
13638W        W28769  16.809   8.478  12.093 -0.0711  0.0619  0.1097
13639W        W28770   8.605  16.567  11.544  0.1540 -0.1058  0.0200
13640W        W28771   6.053  18.301  14.771  0.2455 -0.1124 -0.2197
13641W        W28772  14.582  18.072   2.818  0.4453 -0.4343 -0.0604
13642W        W28773  16.614  13.041  12.544 -0.2302  0.1427 -0.1881
13643W        W28774   4.542  14.866   4.325  0.0603 -0.3788  0.0401
13644W        W28775  13.984  15.135   2.248  0.0560 -0.1006 -0.0387
13645W        W28776  10.781  15.437   2.564  0.1345  0.0481  0.0426
13646W        W28777   6.657   3.647   5.059 -0.1065  0.0137 -0.1046
13647W        W28778  12.277  10.777  12.383 -0.0521  0.2987 -0.2572
13648W        W28779   6.100   5.558   4.051 -0.0698  0.2290  0.0240
13649W        W28780  16.098  10.989  12.956 -0.1538  0.1279 -0.1026
13650W        W28781   9.697   8.285   2.739 -0.1755 -0.1784  0.1485
13651W        W28782  14.230   9.652  13.287  0.2525  0.1488 -0.0257
13652W        W28783   9.143  16.549   3.124  0.0124  0.2772 -0.0223
13653W        W28784   1.231   4.915  12.850  0.1800  0.1839  0.0553
13654W        W28785   6.674   8.142   9.847 -0.3138 -0.3149  0.0628
13655W        W28786  14.527  11.225   0.411 -0.3370 -0.2911 -0.2286
13656W        W28787   1.529  15.250  14.931  0.0855 -0.2158  0.0631
13657W        W28788  12.932   9.921   1.638 -0.0492  0.1791  0.0663
13658W        W28789  16.302   2.918  16.050  0.2668 -0.0432 -0.2164
13659W        W28790   3.640  16.855   3.356 -0.2178 -0.1305  0.3529
13660W        W28791  10.821   1.838  13.399  0.1042 -0.2418 -0.3420
13661W        W28792  15.689  14.927  14.631  0.1298 -0.1791  0.0736
13662W        W28793   7.529   5.886   2.228 -0.1197 -0.0470 -0.1571
13663W        W28794  14.988  15.704  12.581 -0.1263 -0.0129 -0.2747
13664W        W28795  12.085  10.004   4.582  0.0788  0.1367  0.2026
13665W        W28796  12.826   9.009  13.642  0.2993 -0.0499  0.0602
13666W        W28797  14.985   5.807  11.901 -0.1759  0.0904 -0.2115
13667W        W28798   8.232   3.012   2.812  0.2703  0.0162 -0.2792
13668W        W28799  12.893   4.231  13.039  0.0551  0.0752 -0.0111
13669W        W28800  14.100   5.629   4.210 -0.2397 -0.5213  0.0869
13670W        W28801   8.858  10.506  15.260 -0.2237  0.2980  0.2346
13671W        W28802  10.403   6.793   2.339 -0.0218 -0.2217 -0.0495
13672W        W28803  10.992   4.251  16.119  0.2810  0.1724  0.5152
13673W        W28804  16.044  13.125   2.479  0.1140  0.1666 -0.1272
13674W        W28805   1.182  12.274   5.330 -0.2272  0.0167  0.2274
13675W        W28806  17.598   4.092  14.296  0.1732 -0.0607 -0.0424
13676W        W28807   7.516   5.040  14.549  0.0257  0.2323 -0.2282
13677W        W28808  15.381   7.580   0.559  0.2496  0.3706 -0.0938
13678W        W28809  15.439   4.301   2.784  0.1607  0.1112 -0.1516
13679W        W28810   5.902   3.523  15.477 -0.0553  0.2726 -0.2142
13680W        W28811   6.694   3.064  12.248  0.2111 -0.3213 -0.1051
13681W        W28812  12.460   4.924   4.112  0.0993 -0.2405 -0.1736
13682W        W28813   9.915   5.845  13.820 -0.0031 -0.0832 -0.1508
13683W        W28814   4.988  17.191   3.324  0.0410 -0.1003  0.2265
13684W        W28815   0.846  14.081   1.991 -0.1148 -0.1243  0.5041
13685W        W28816  11.448  15.000  14.407 -0.1572 -0.2296 -0.0953
13686W        W28817   5.837  12.006   1.893  0.1504  0.1002 -0.0639
13687W        W28818   6.884  17.099   1.381 -0.1854 -0.0946 -0.0067
13688W        W28819  14.654  11.339   2.964 -0.4416 -0.0185  0.0396
13689W        W28820  15.827   2.490  13.569  0.0311  0.1889 -0.2790
13690W        W28821  11.005  11.393  12.339  0.0912  0.0307  0.1723
13691W        W28822   7.431  17.705  14.957  0.1565  0.5598 -0.0326
13692W        W28823  11.436  10.405  10.206 -0.3218 -0.1754 -0.1481
13693W        W28824   2.833   1.954   0.441 -0.3650  0.0381  0.0072
13694W        W28825  12.741   1.707   2.373 -0.3153 -0.2290 -0.0312
13695W        W28826   2.375   1.746  15.357 -0.0011  0.0081 -0.0803
13696W        W28827  12.253   4.290   5.948 -0.0229  0.0887  0.3343
13697W        W28828  14.783  16.032   4.047 -0.0492  0.0270 -0.0789
13698W        W28829  11.193   7.425   0.307 -0.3600 -0.1174 -0.1834
13699W        W28830  10.715   6.658   0.605 -0.0163  0.0971  0.0876
13700W        W28831   3.899   3.914  11.303 -0.3272  0.0274 -0.0860
13701W        W28832   9.049   5.904   1.427  0.1973  0.3203 -0.2169
13702W        W28833  15.816  15.173   2.205  0.2953  0.2081 -0.0077
13703W        W28834  16.428   1.704   3.523  0.3215 -0.0431  0.1837
13704W        W28835   8.073   6.249   1.362  0.3004  0.0035  0.1083
13705W        W28836   2.126  16.329  15.363 -0.0173 -0.0654  0.2184
13706W        W28837   9.904   0.193   3.884  0.0641 -0.1181  0.2479
13707W        W28838  18.150  13.533  14.386  0.1018 -0.0643 -0.2023
13708W        W28839   0.536   7.875   3.753  0.2128  0.1117  0.0961
13709W        W28840   6.207  12.662  14.160  0.0559 -0.1782 -0.1008
13710W        W28841  11.675  11.799  15.470 -0.1222  0.1131 -0.3978
13711W        W28842   9.849  10.235  11.821 -0.3131 -0.0924 -0.3168
13712W        W28843   8.081  12.395   0.293  0.0878  0.0332 -0.2743
13713W        W28844  17.957   9.958  11.467 -0.0834  0.1896  0.1190
13714W        W28845   9.815  11.104   0.200 -0.0325 -0.1274 -0.3833
13715W        W28846  15.881   9.918   1.344 -0.0240 -0.1267  0.4522
13716W        W28847   8.748  14.684   0.476 -0.0302 -0.1116 -0.0893
13717W        W28848   7.232   3.998   0.592  0.2080 -0.1477  0.2363
13718W        W28849  16.198  15.418  13.975 -0.0914  0.2724 -0.3289
13719W        W28850  12.694   9.197   4.353  0.0350  0.1748 -0.4603
13720W        W28851  15.466  12.387   2.945  0.0573  0.3683 -0.2261
13721W        W28852   9.704   8.194  11.317  0.3990 -0.0805  0.0580
13722W        W28853  16.129  14.692  12.732  0.3642  0.0144  0.0947
13723W        W28854  18.050   7.005   9.771 -0.2476  0.1763 -0.1984
13724W        W28855  15.706  13.852   0.281  0.2505 -0.1340  0.0162
13725W        W28856  18.262   7.178  10.215  0.2325  0.0586 -0.1769
13726W        W28857  12.386   5.841  14.808  0.4125  0.4111 -0.3186
13727W        W28858   8.060  15.481   2.170 -0.0975  0.1195  0.1047
13728W        W28859  11.739   3.322  12.382  0.0330 -0.0938 -0.0114
13729W        W28860  15.004   4.668   2.192 -0.1557 -0.2194 -0.2227
13730W        W28861   6.727   3.241  13.168 -0.0329 -0.0907 -0.1329
13731W        W28862  16.071  16.013  12.096 -0.2768  0.1106  0.1952
13732W        W28863   3.038  10.346   0.720 -0.3943 -0.1858 -0.1416
13733W        W28864  17.404  13.899  10.844  0.0402  0.2378  0.1269
13734W        W28865   5.098  11.795   1.251 -0.0824 -0.1145 -0.0902
13735W        W28866   7.293  16.978  14.659 -0.0653  0.2923  0.0227
13736W        W28867  14.453   9.488   3.489  0.0316  0.1227  0.0088
13737W        W28868   2.135   7.734   0.940 -0.0070  0.1759  0.1971
13738W        W28869  10.148  10.853   3.527 -0.3104  0.0150 -0.0490
13739W        W28870   5.616  18.311   4.712 -0.2230 -0.0925  0.1194
13740W        W28871  17.307  14.974   3.726 -0.0325  0.2858  0.2166
13741W        W28872   6.818   0.002  13.583  0.0153 -0.0442 -0.3457
13742W        W28873  17.443  11.976  13.467 -0.0028  0.1304 -0.2168
13743W        W28874   6.285  17.830  15.045  0.0266  0.1291 -0.0900
13744W        W28875   4.269  14.620   5.097  0.1391  0.1100  0.0848
13745W        W28876  12.879  13.877  14.051  0.5773 -0.1311  0.1142
13746W        W28877   5.528   9.022  11.426  0.0087 -0.1064  0.2045
13747W        W28878   4.198   5.936  13.911  0.1957 -0.0876 -0.1679
13748W        W28879   9.084  12.588  11.275 -0.0557  0.0399 -0.1128
13749W        W28880   1.762   3.987   0.685 -0.0797  0.4381  0.2100
13750W        W28881   8.631  18.369  15.184  0.0109  0.2743 -0.3081
13751W        W28882   1.827   1.633  11.909  0.0290 -0.0318  0.2433
13752W        W28883   5.112   5.346  12.828  0.2398 -0.0924  0.1719
13753W        W28884   9.250   2.192  15.149 -0.2044  0.1048 -0.1297
13754W        W28885   9.822   8.010   5.095  0.2088 -0.0544  0.2637
13755W        W28886   7.875   5.048   0.679  0.0877 -0.0339  0.3332
13756W        W28887  13.021   0.092  11.200  0.1617  0.0758 -0.3300
13757W        W28888   8.570   0.398  13.523 -0.1461 -0.3418 -0.0144
13758W        W28889   2.539   7.778   4.351 -0.0580  0.1287  0.0397
13759W        W28890   8.207   9.903   2.019  0.1257 -0.0196 -0.1735
13760W        W28891  12.403  17.725  14.537  0.1360  0.2519 -0.0561
13761W        W28892   6.700  10.084   3.578 -0.2066  0.1015  0.1177
13762W        W28893  13.926   9.056   3.265  0.2853 -0.0708  0.0064
13763W        W28894   8.744   9.450  15.443  0.1222 -0.0623  0.0123
13764W        W28895   3.518  17.222   2.670  0.1031 -0.3303 -0.3307
13765W        W28896  11.835   0.875   1.593 -0.0821  0.0169  0.0707
13766W        W28897  14.219   3.724  15.394 -0.0957  0.2019  0.0449
13767W        W28898  13.443   7.313  11.826  0.1062 -0.2646 -0.2631
13768W        W28899  10.454   7.098  13.338 -0.4569 -0.1400 -0.0989
13769W        W28900   2.461   7.650  16.102  0.2221  0.0116 -0.0014
13770W        W28901   7.174   7.329  11.607 -0.3422 -0.3294  0.0152
13771W        W28902   6.744   6.569  15.300  0.0833 -0.1066 -0.0340
13772W        W28903   0.385  18.369   3.592  0.0356  0.1571 -0.0460
13773W        W28904  18.093  10.800  10.293 -0.3407  0.4006 -0.1054
13774W        W28905  12.376   4.023   3.297  0.0031  0.0549 -0.0572
13775W        W28906  15.658  10.101   3.298 -0.0672  0.0046 -0.2596
13776W        W28907  14.843   2.866   5.623  0.1342  0.1048  0.0298
13777W        W28908  11.206  17.092   4.545  0.0518  0.2234  0.1549
13778W        W28909  10.644  10.561  13.661  0.2091  0.2657  0.1177
13779W        W28910   3.600  11.259  15.069 -0.1473  0.2190  0.3574
13780W        W28911   1.694  13.742   4.200  0.0543  0.1824  0.1791
13781W        W28912  14.317  16.297   4.956 -0.0565  0.0488 -0.1392
13782W        W28913   1.355   1.328  14.508 -0.1174 -0.0022 -0.2283
13783W        W28914   0.711  13.011  13.970  0.0531 -0.1334 -0.0770
13784W        W28915   2.732  10.203   3.434  0.0179 -0.1361 -0.1522
13785W        W28916  18.223   6.677  11.488  0.0313 -0.1957  0.0373
13786W        W28917   3.868   0.302  13.565 -0.4073 -0.3027  0.0357
13787W        W28918   8.575   8.576   0.385 -0.2113 -0.0876  0.0267
13788W        W28919   6.579  11.871  10.915  0.1747  0.3510  0.2726
13789W        W28920   3.151   6.788  14.012 -0.0814 -0.1911 -0.0884
13790W        W28921   3.086  10.116  10.678  0.0981 -0.0915 -0.1198
13791W        W28922  17.214  10.227   4.212 -0.1673 -0.2941  0.0261
13792W        W28923  15.569  13.207   2.583  0.0494 -0.3382  0.4020
13793W        W28924  17.374  18.202   5.505 -0.0269  0.0137  0.0484
13794W        W28925   4.975   8.616   1.785 -0.0731 -0.0027  0.1194
13795W        W28926   6.512   7.963   2.469 -0.0692 -0.0651 -0.1230
13796W        W28927   1.448   1.375  15.443 -0.0941  0.0995 -0.0676
13797W        W28928   9.098  16.753   0.496 -0.0929  0.0262  0.1227
13798W        W28929  17.101  15.029  15.487  0.0542 -0.2399  0.1308
13799W        W28930  15.549  16.700  14.839  0.1978  0.2392  0.1525
13800W        W28931   9.670   0.462  15.784 -0.0189  0.0315  0.3246
13801W        W28932  10.791   5.643  14.336  0.1822 -0.1426  0.0911
13802W        W28933   5.600   2.119  13.025  0.0171  0.1897 -0.0496
13803W        W28934  16.092  18.205  13.261  0.0332 -0.0275  0.2025
13804W        W28935   7.346   1.252   5.122  0.2291 -0.1464 -0.2203
13805W        W28936   3.141   8.595   1.489 -0.3322 -0.1176  0.2352
13806W        W28937   2.985   2.823   0.195 -0.0137  0.0799  0.1684
13807W        W28938   3.456   7.427  12.194  0.2004  0.2913  0.3787
13808W        W28939  14.534   1.760  12.279 -0.0668 -0.1096  0.2513
13809W        W28940   7.490   7.626  15.627  0.1248  0.3797 -0.0940
13810W        W28941  12.835  14.696   1.693  0.4340  0.1681 -0.1600
13811W        W28942  17.986  15.417   0.583  0.1374 -0.1114  0.1377
13812W        W28943  16.987   0.999   6.267  0.1580  0.0959  0.2960
13813W        W28944  17.000  12.542  10.723 -0.1384  0.1549 -0.0167
13814W        W28945   6.645   2.234   0.047 -0.1302  0.0224  0.0514
13815W        W28946   1.212   2.140  10.800  0.1736  0.1617  0.1101
13816W        W28947   6.398   5.808   4.346  0.0672  0.0234 -0.0885
13817W        W28948  12.234   2.774  12.781 -0.1283 -0.2606  0.4828
13818W        W28949  18.120   8.661   5.923 -0.1584 -0.0716  0.0186
13819W        W28950   3.987   3.520   0.898  0.2133 -0.1848 -0.0751
13820W        W28951  17.306   0.995   4.827 -0.1763  0.1186 -0.1803
13821W        W28952  14.867  15.563  15.234 -0.3631  0.4693  0.2413
13822W        W28953  13.215   5.243  15.008 -0.3023  0.1568 -0.1167
13823W        W28954   5.522  12.050   3.737  0.3813  0.0571 -0.0844
13824W        W28955  12.323  15.983  15.281  0.0657  0.0945 -0.0495
13825W        W28956   1.293   0.852   1.144  0.1875 -0.2509  0.1700
13826W        W28957  12.370   6.963   2.650  0.0467 -0.3620 -0.0484
13827W        W28958  11.782   3.238   9.964  0.0571  0.0728 -0.1334
13828W        W28959   5.221   0.991   2.620 -0.0711  0.1334  0.0621
13829W        W28960  13.568  12.810  14.674  0.1564  0.2283  0.0460
13830W        W28961   8.287   7.261  12.957  0.1830  0.0926 -0.2188
13831W        W28962  13.530   5.822   4.314 -0.0065 -0.0708  0.0214
13832W        W28963   8.598  17.312  12.393  0.2337  0.0451  0.0308
13833W        W28964  12.563  14.906   3.783 -0.1023  0.1284  0.3486
13834W        W28965   0.206   0.156   0.353 -0.3924 -0.0115 -0.2057
13835W        W28966   6.133  13.315  14.361 -0.2705 -0.2390 -0.0889
13836W        W28967  14.729  10.627  10.723 -0.2890 -0.2129 -0.1019
13837W        W28968   7.540  13.742   2.312 -0.1228  0.1558  0.1415
13838W        W28969   5.486   3.924  13.989  0.2209  0.2196 -0.1515
13839W        W28970   8.311  17.287  15.180 -0.4030 -0.1544 -0.1750
13840W        W28971   2.506  13.570  12.975 -0.0231 -0.0309  0.1070
13841W        W28972   5.590   6.088  15.282  0.0300 -0.1899 -0.2473
13842W        W28973   0.520   0.170   2.720  0.2396  0.1417 -0.1602
13843W        W28974   9.456  14.249  10.933  0.1605  0.2889 -0.0302
13844W        W28975   4.051  16.713  11.851 -0.4996 -0.1832  0.0460
13845W        W28976   5.041   1.493  14.440  0.0583 -0.2103  0.1025
13846W        W28977  17.269   8.323   1.815  0.3872 -0.1850 -0.0302
13847W        W28978   9.579   2.784   6.165  0.0343  0.1438 -0.0567
13848W        W28979  17.457   8.741  13.242 -0.0780 -0.0133 -0.0223
13849W        W28980   4.444  15.785  12.161  0.0340  0.1400  0.1043
13850W        W28981  13.687   5.566   3.830 -0.0087  0.1453  0.1571
13851W        W28982   7.244  14.797  13.035 -0.0563  0.0583  0.2059
13852W        W28983  13.823  13.929  14.339  0.1182 -0.1263 -0.0213
13853W        W28984   1.027   0.804   3.481 -0.1399  0.0860  0.0843
13854W        W28985  17.680  16.080   0.293  0.1645 -0.2049 -0.0366
13855W        W28986   7.567   1.089   4.649  0.0360 -0.3872  0.0657
13856W        W28987  17.194   0.363   5.570 -0.2641  0.0537 -0.5061
13857W        W28988   4.137  13.357  15.274  0.2001  0.1738  0.1585
13858W        W28989  12.208   0.750   3.387  0.0152 -0.1434  0.1076
13859W        W28990   8.098   6.816   1.435  0.0344  0.2020  0.0799
13860W        W28991  11.231   9.001  14.149 -0.1710  0.0483  0.0766
13861W        W28992   2.332  12.246   2.961 -0.1369 -0.0820 -0.2611
13862W        W28993   1.400   4.083  16.025 -0.2417  0.0354 -0.0319
13863W        W28994  17.814   5.563   2.499 -0.1237  0.0069 -0.0894
13864W        W28995   3.264   7.850  12.417 -0.3420 -0.0065  0.0393
13865W        W28996   4.781  16.359   4.884 -0.2954 -0.1733 -0.1102
13866W        W28997   7.898   4.962  10.840 -0.0835 -0.1794 -0.1628
13867W        W28998  12.478  17.368  15.529 -0.0054  0.2892 -0.1480
13868W        W28999   7.482  15.870  11.931 -0.0363  0.0634 -0.3145
13869W        W29000   1.000  12.194  13.294 -0.3533  0.0489 -0.2154
13870W        W29001   0.733   2.675   1.599 -0.1655  0.1550 -0.2920
13871W        W29002  13.316   2.287   2.827 -0.0883 -0.0722  0.2554
13872W        W29003   3.120   8.297   3.700  0.2614  0.0873 -0.1768
13873W        W29004  17.504   4.556   3.149  0.0800  0.0201  0.3237
13874W        W29005   7.133  17.110  16.090 -0.2175  0.2987 -0.1396
13875W        W29006   8.553   5.260  12.118 -0.0598 -0.4007  0.1219
13876W        W29007  14.714  13.205   3.889 -0.0887  0.0585  0.1765
13877W        W29008  17.202  13.944   1.290 -0.1209 -0.1678  0.3965
13878W        W29009   8.135  16.038  10.547  0.2123 -0.0309 -0.1657
13879W        W29010   6.369  17.654  15.890  0.1422 -0.2306 -0.0298
13880W        W29011  13.546  12.883   1.630 -0.1332  0.1668 -0.1710
13881W        W29012  11.323  16.181   0.059 -0.0465 -0.2291  0.0697
13882W        W29013  12.594   3.067  13.702  0.0344  0.1265 -0.0708
13883W        W29014   7.140   5.818  12.219 -0.2084  0.0702 -0.2606
13884W        W29015   5.046  13.900  15.251  0.1500  0.2072  0.1402
13885W        W29016  12.036   4.683   2.199 -0.3534 -0.0592  0.0490
13886W        W29017   3.464   7.507   4.224 -0.1457 -0.0822  0.0723
13887W        W29018  15.756   8.435   4.051  0.2158 -0.2678 -0.3879
13888W        W29019  16.463  11.627   1.776 -0.2470 -0.2356  0.0634
13889W        W29020   4.335   4.870   5.377 -0.3642 -0.0592 -0.2328
13890W        W29021  15.288   8.105  14.721  0.1686  0.1937 -0.0866
13891W        W29022   1.962   5.081  14.146 -0.2154  0.1048 -0.2270
13892W        W29023   2.650   4.168  11.636  0.1595  0.2057  0.0769
13893W        W29024  16.368   6.735  12.684  0.2632 -0.1472  0.1310
13894W        W29025   4.167   2.458  13.941  0.1023 -0.0479  0.1374
13895W        W29026   4.567  13.723  15.430  0.4030 -0.0012  0.1696
13896W        W29027   1.453   9.365  14.156 -0.1396 -0.1729 -0.3102
13897W        W29028   7.433   8.908   5.453 -0.0197  0.1756  0.0477
13898W        W29029   3.094   0.729   2.257 -0.0275 -0.0858 -0.0535
13899W        W29030   8.186   6.778   4.521 -0.0810 -0.2271 -0.1040
13900W        W29031  10.632   7.509   1.010 -0.0440 -0.4932 -0.1263
13901W        W29032   7.794   3.470  12.211 -0.1225 -0.1865 -0.0216
13902W        W29033   9.399  17.249  12.548  0.0539 -0.1566 -0.1171
13903W        W29034  16.727   2.461  13.708 -0.1272 -0.2605  0.1592
13904W        W29035  13.673  17.012  15.198  0.1463  0.1088 -0.0984
13905W        W29036   0.507  15.404   3.350 -0.2849  0.0457  0.0003
13906W        W29037   1.326   9.179  11.301  0.0067 -0.0164  0.4059
13907W        W29038   9.726  14.690   0.549  0.0911  0.2607 -0.1622
13908W        W29039   4.297  17.357   2.658 -0.1504 -0.2769  0.1447
13909W        W29040  16.311   9.932  11.127  0.1359  0.1454  0.1470
13910W        W29041  17.913   1.845  12.818  0.3538 -0.3040 -0.1947
13911W        W29042  17.109   9.515  12.692  0.3126 -0.0177  0.2677
13912W        W29043   4.805   9.196   0.527 -0.0178 -0.3829 -0.1495
13913W        W29044  10.124   6.184   0.333 -0.0344 -0.1352 -0.0179
13914W        W29045   7.403   7.883  13.715  0.0809  0.0844  0.1492
13915W        W29046   7.219   5.482   3.767 -0.1357  0.2124 -0.2516
13916W        W29047  13.626   0.894   1.280 -0.1758 -0.0504 -0.0657
13917W        W29048   1.093   7.467  15.672 -0.2453 -0.1741  0.0749
13918W        W29049  10.277  11.777   0.404  0.0255  0.3247  0.0456
13919W        W29050   7.001  12.745   3.581  0.0559 -0.1240 -0.1993
13920W        W29051   5.175  14.940  15.237 -0.2099  0.3777  0.3584
13921W        W29052   7.752  14.740   9.441 -0.0044 -0.1067  0.3316
13922W        W29053   3.828   8.194  10.579 -0.0774 -0.1066  0.0057
13923W        W29054  15.119   6.295   4.385 -0.2725  0.1038  0.0086
13924W        W29055   5.558   7.910   5.231 -0.1178 -0.1272 -0.3015
13925W        W29056   2.096   9.670   2.214 -0.2593 -0.2556 -0.2335
13926W        W29057  11.197  14.302   4.346  0.2717  0.0209 -0.2314
13927W        W29058   7.127   9.246  12.641  0.1989 -0.1166 -0.2880
13928W        W29059  16.959   8.628  12.666 -0.0238 -0.0658  0.1748
13929W        W29060  10.465   9.407  14.197  0.0324  0.0232 -0.0341
13930W        W29061   3.796  11.242   2.733 -0.0126  0.2241 -0.0247
13931W        W29062  15.523   8.112  14.254 -0.2085 -0.0755  0.0273
13932W        W29063   9.838  10.331   2.823  0.1201  0.3187  0.1195
13933W        W29064  10.179   6.580   0.607 -0.0593 -0.2629  0.3215
13934W        W29065   3.820   0.817  11.443 -0.0899  0.1619  0.1437
13935W        W29066  12.224   5.069   5.388 -0.0072 -0.1227  0.1400
13936W        W29067  15.908   9.476  11.056 -0.0958  0.1901  0.2462
13937W        W29068  14.599  11.859   2.775 -0.0106 -0.0153 -0.1441
13938W        W29069  13.695   6.227  12.510  0.0412 -0.0763 -0.0492
13939W        W29070   4.386  11.105  15.978 -0.1208  0.1007  0.1101
13940W        W29071   5.420  17.608   1.107 -0.1711 -0.3053 -0.2454
13941W        W29072   2.396   1.872   5.205  0.1104  0.1738 -0.2447
13942W        W29073   6.719   9.359  13.561  0.2077  0.0526  0.0741
13943W        W29074   2.934   6.738   3.597  0.0348 -0.1327 -0.0243
13944W        W29075   1.529   2.832   5.280  0.1948 -0.0165  0.0515
13945W        W29076   5.532  13.547   2.632 -0.2179 -0.3280 -0.0829
13946W        W29077   7.802   1.591   5.182 -0.3867  0.2377 -0.2712
13947W        W29078  16.254   7.720  11.486 -0.0423 -0.2271 -0.0842
13948W        W29079  16.393  16.933  11.241 -0.1052 -0.3251 -0.2035
13949W        W29080   6.828  17.597   5.261 -0.1279  0.1672 -0.2727
13950W        W29081   9.193   0.255   4.453 -0.1886  0.1943  0.2070
13951W        W29082  14.976  11.655   6.517 -0.4074  0.0380  0.3173
13952W        W29083  11.876  12.292  15.906  0.1858  0.1152  0.2151
13953W        W29084   9.974  16.218  12.543  0.0889 -0.0211  0.0778
13954W        W29085  18.191   6.620  12.004 -0.1470 -0.2212  0.2326
13955W        W29086   6.186  16.705   3.228 -0.1468  0.1947  0.2674
13956W        W29087   7.477   3.988   5.242  0.0118 -0.0829 -0.0437
13957W        W29088  15.919   2.208  14.014 -0.1111  0.2146 -0.2662
13958W        W29089   9.041  12.209   2.468 -0.3113 -0.2301 -0.0188
13959W        W29090  14.535  17.996  14.389 -0.0466  0.0441 -0.2653
13960W        W29091   2.620   6.736   2.080 -0.0962 -0.0836  0.0392
13961W        W29092   0.713  11.220   2.365  0.0028  0.2352  0.0125
13962W        W29093  17.602  13.536   3.084 -0.0870  0.0472  0.0025
13963W        W29094   6.123  17.796  13.680  0.2199 -0.1720 -0.1718
13964W        W29095  12.661  13.358   2.174 -0.1321 -0.2616 -0.3836
13965W        W29096   0.355  16.695  15.845  0.1067 -0.0205 -0.0811
13966W        W29097   1.237   5.437  12.072  0.0486 -0.0041  0.0467
13967W        W29098  13.279   3.236   4.327 -0.1097  0.5911  0.2558
13968W        W29099   8.960   1.807  14.953  0.3544  0.0839  0.2895
13969W        W29100   2.559   2.119  13.588 -0.0053  0.0082 -0.3341
13970W        W29101  10.202   0.373  14.205 -0.0722 -0.4959 -0.4069
13971W        W29102   7.302   9.826  13.598  0.1734 -0.2485  0.1295
13972W        W29103   3.182  15.367  15.153  0.0390  0.1066  0.0330
13973W        W29104   3.060   2.201   0.823  0.0824 -0.0492  0.2516
13974W        W29105   5.355   9.836   2.350 -0.0648  0.2481 -0.0239
13975W        W29106   7.231  10.403   0.814 -0.1987  0.0437  0.1164
13976W        W29107  15.145   5.365  12.783 -0.2907  0.0035  0.2355
13977W        W29108   4.342   5.114   0.612  0.1328  0.0749  0.2630
13978W        W29109   2.683   9.498   3.487  0.1428 -0.5806 -0.0641
13979W        W29110  15.878   2.634  16.053 -0.1550 -0.0100  0.1000
13980W        W29111  11.482   4.732  12.618  0.2353  0.0892  0.0266
13981W        W29112  16.090   4.921  11.977  0.0984  0.0746 -0.0225
13982W        W29113  17.154   2.196   3.452  0.3292 -0.0782  0.3185
13983W        W29114  12.657  16.177  15.617 -0.3443 -0.3092 -0.0993
13984W        W29115   1.785   4.355   1.026  0.0350  0.4125 -0.1743
13985W        W29116  15.850   3.760  10.870  0.0278 -0.2881  0.1397
13986W        W29117   2.948   8.623   0.620 -0.1123  0.1738 -0.0104
13987W        W29118  17.902  14.168   0.323  0.3385 -0.0143  0.1742
13988W        W29119  12.508  18.315   4.907  0.3622  0.0526 -0.1902
13989W        W29120   0.525  17.622  12.040 -0.0516  0.0762 -0.0038
13990W        W29121  14.197   5.176  12.601  0.1589  0.1464  0.1739
13991W        W29122  13.246   7.910  13.219 -0.3751 -0.2198  0.1480
13992W        W29123  11.180  17.721   1.424  0.4154 -0.1725  0.2593
13993W        W29124   9.798   8.006   5.655 -0.1135  0.0610 -0.0308
13994W        W29125   6.950  17.952   4.561 -0.0571  0.5763  0.0097
13995W        W29126  13.618   2.259   4.359  0.2862  0.4059  0.2334
13996W        W29127   6.255  17.351   2.888 -0.1471 -0.0219 -0.1419
13997W        W29128   2.666  12.808  11.261 -0.0551  0.1529  0.1930
13998W        W29129   9.524   4.355  15.573 -0.1012 -0.3470 -0.0139
13999W        W29130   9.717   9.900   4.998 -0.1720 -0.2435  0.1156
14000W        W29131   3.468  18.208   3.472  0.0652  0.0384 -0.1649
14001W        W29132  15.934   6.683   3.245  0.2750 -0.2819  0.1505
14002W        W29133   5.383  12.893  13.680  0.0301 -0.2815 -0.2273
14003W        W29134   2.951  11.409   2.636  0.3361  0.4799 -0.0569
14004W        W29135   6.406  10.037   2.259  0.0289 -0.2044  0.0561
14005W        W29136   0.148  14.171  16.123  0.2758  0.0805  0.0376
14006W        W29137   2.873   7.189  12.925 -0.0040 -0.2108 -0.4484
14007W        W29138  10.265   6.689   1.535 -0.3419  0.1235 -0.1483
14008W        W29139   6.043  13.828  15.868  0.2724 -0.1505  0.1412
14009W        W29140  11.949   3.807  10.593 -0.1932 -0.1827 -0.0861
14010W        W29141   0.313   3.603  14.124 -0.5289 -0.1630 -0.2080
14011W        W29142   0.952   1.263  14.892  0.0517  0.2495 -0.1107
14012W        W29143   7.763   8.936   3.744  0.0193 -0.0226 -0.1194
14013W        W29144   2.033  11.926  14.624 -0.0320  0.2296  0.1832
14014W        W29145  17.280   3.446   0.589  0.0943  0.1620  0.0091
14015W        W29146  11.625  10.202  10.939 -0.1399 -0.0314  0.0212
14016W        W29147  10.279  17.607  13.001  0.0986  0.1056  0.0790
14017W        W29148  13.732  11.644   2.344 -0.1247  0.0653  0.0913
14018W        W29149  14.187  13.943   4.501  0.1905  0.1124 -0.3156
14019W        W29150   6.066   9.515   4.654  0.4072  0.1704  0.0731
14020W        W29151  14.919  10.988   4.318 -0.2377 -0.2861  0.1847
14021W        W29152   5.922  13.338  14.828  0.1376 -0.3153  0.0478
14022W        W29153  11.694  10.161  13.755 -0.1092 -0.0058 -0.0897
14023W        W29154   0.334  16.538   5.462 -0.0450  0.1228  0.1519
14024W        W29155   7.782   9.634   1.926  0.0221  0.0758  0.0276
14025W        W29156   5.756  10.374  11.256  0.1013 -0.0754 -0.0691
14026W        W29157   8.530   5.581   3.908  0.0476  0.0006 -0.4806
14027W        W29158   8.645   1.489   1.720 -0.0687  0.1237 -0.2212
14028W        W29159   2.831   1.182   0.153 -0.1098  0.1273  0.0444
14029W        W29160  17.405   8.973   5.385 -0.1677  0.3281  0.3450
14030W        W29161   5.853  16.570   0.366  0.2169 -0.0272  0.1109
14031W        W29162   9.209   0.442   1.371 -0.0910  0.1351  0.2489
14032W        W29163  13.763  12.390   1.710 -0.0965  0.0335  0.1865
14033W        W29164   3.404   2.793  12.467 -0.1384 -0.1011  0.0339
14034W        W29165   9.721  15.278  14.116  0.1830  0.0274 -0.0548
14035W        W29166   6.603  10.618  11.999  0.1740 -0.1599  0.0288
14036W        W29167   7.247   6.208   2.575 -0.2745  0.0720  0.1284
14037W        W29168  13.387   8.192   4.038 -0.0246 -0.2717 -0.0811
14038W        W29169   2.532   4.870   1.115 -0.3412  0.2799 -0.2893
14039W        W29170   2.103  11.734  13.167 -0.1809 -0.0182  0.0129
14040W        W29171  11.315   7.412   4.190 -0.4302 -0.1722 -0.2966
14041W        W29172  11.967  10.962   0.258 -0.1776 -0.1126 -0.6177
14042W        W29173   7.333   2.313  13.136 -0.1083 -0.0946  0.1855
14043W        W29174  13.937   1.740  12.568  0.2227 -0.0143 -0.4087
14044W        W29175   2.802  13.799  13.416  0.0498  0.1815  0.0869
14045W        W29176   3.296  13.950  15.541  0.0499  0.3013  0.2003
14046W        W29177   0.506   1.384   0.682 -0.1206  0.2581  0.0342
14047W        W29178   1.068  11.387  15.090 -0.1996 -0.0322 -0.1382
14048W        W29179  11.607  10.951  15.531 -0.0181 -0.1870 -0.2156
14049W        W29180   9.968   2.432  14.033 -0.1172  0.1161  0.1739
14050W        W29181  11.208   9.984   9.957  0.2253 -0.0316  0.0317
14051W        W29182   2.227  11.655  11.193  0.1833 -0.0119 -0.0815
14052W        W29183   9.036   8.510   1.434 -0.0074 -0.0891 -0.0451
14053W        W29184  15.949   1.577   4.198 -0.0353  0.2278 -0.3000
14054W        W29185   2.385  14.336  14.597  0.2683 -0.1251 -0.1131
14055W        W29186  13.845   1.054  11.232 -0.1766 -0.1196  0.1761
14056W        W29187  15.897   6.622   2.318  0.2299 -0.0294 -0.2311
14057W        W29188  12.952  13.728  11.682  0.0509  0.1304  0.0255
14058W        W29189   8.060  11.883   3.287 -0.0536 -0.3273  0.3102
14059W        W29190  17.807  13.143  13.374 -0.0615 -0.1155 -0.1787
14060W        W29191  15.709  16.457  13.216 -0.3654  0.3573 -0.1964
14061W        W29192   5.824   8.762  11.138 -0.1705  0.1355  0.1313
14062W        W29193   2.167   2.639  11.176 -0.1762  0.1324 -0.0639
14063W        W29194   9.602   2.761  13.871 -0.0283 -0.2887  0.5292
14064W        W29195  15.271  18.336   0.636  0.0647  0.1176  0.0748
14065W        W29196   7.405   9.781  12.938 -0.1104  0.1743 -0.2430
14066W        W29197   8.524  15.373   3.801 -0.1934 -0.0672  0.4604
14067W        W29198   3.293  15.056  13.945  0.1362  0.0516  0.1259
14068W        W29199   4.859  18.231  15.483 -0.1661 -0.3122  0.1613
14069W        W29200  10.826   5.226   1.842  0.2924 -0.1692  0.0369
14070W        W29201  11.967   4.000   3.785 -0.1780  0.0574 -0.0813
14071W        W29202   8.802   3.208   4.176 -0.0815  0.1920  0.1537
14072W        W29203  10.586  12.064  13.209 -0.1167  0.3593 -0.1430
14073W        W29204  12.518   9.907  13.215 -0.0896  0.2969  0.1125
14074W        W29205   7.704  12.022  12.242  0.1634 -0.0857 -0.3231
14075W        W29206   4.946  12.745   0.069  0.0384 -0.1837 -0.1724
14076W        W29207  15.407   0.046  14.420  0.1796 -0.1623  0.2872
14077W        W29208  15.802  13.167  12.927  0.0313 -0.3074  0.1954
14078W        W29209  16.683  18.240   2.118  0.3427 -0.0252 -0.0209
14079W        W29210  17.071   0.273   2.076 -0.2528 -0.1521  0.0172
14080W        W29211   3.188   9.210  10.953 -0.0385 -0.2486 -0.0170
14081W        W29212   5.424  16.105   4.029 -0.1026  0.1682 -0.1910
14082W        W29213   7.428  13.465  14.986 -0.0078 -0.0739  0.0757
14083W        W29214  17.454  10.965   0.452 -0.1228  0.0572  0.0125
14084W        W29215   1.099   8.487   3.104  0.3606  0.1251 -0.0818
14085W        W29216  17.066  18.048   4.756 -0.2222  0.4766  0.1691
14086W        W29217  14.264   7.340  12.037 -0.1665  0.0097 -0.1774
14087W        W29218  11.543   5.060  10.441  0.1754 -0.1631 -0.2308
14088W        W29219   7.624  16.480   1.423  0.4100  0.1918 -0.1296
14089W        W29220   4.507   2.475  12.739  0.1510 -0.0868  0.0970
14090W        W29221   6.306   8.124  12.151  0.2282  0.1587  0.1303
14091W        W29222   2.132   0.462   4.883 -0.3741  0.1331 -0.3515
14092W        W29223   3.624  12.284  11.836 -0.3070  0.2239 -0.0351
14093W        W29224  10.998   8.627   4.993 -0.0172  0.1738  0.2493
14094W        W29225   8.454  16.345  12.483 -0.1897  0.0735  0.2366
14095W        W29226   8.627   4.096   3.424  0.0796 -0.3216  0.0156
14096W        W29227   2.240  14.166   0.247 -0.0098 -0.2903  0.1598
14097W        W29228   5.047  14.741  14.269  0.1388  0.2135 -0.0943
14098W        W29229   9.081  13.761  10.935 -0.2133  0.1205 -0.3695
14099W        W29230   4.155   5.793  10.672  0.1454 -0.2279 -0.0623
14100W        W29231   2.345   5.053   1.546 -0.1335 -0.1567  0.0588
14101W        W29232   5.890   2.494   2.230  0.0822 -0.2923  0.1479
14102W        W29233  18.163  12.496  11.802 -0.0416  0.1102 -0.5269
14103W        W29234   4.125   9.140  11.657  0.3043  0.2589  0.1034
14104W        W29235   7.717   2.505  11.518 -0.0279 -0.1770  0.2143
14105W        W29236  11.021   0.347  14.398 -0.1861 -0.1616  0.0228
14106W        W29237  13.131  13.207  16.039 -0.2577 -0.0898  0.4292
14107W        W29238   0.359  18.038   3.149  0.0799  0.3763  0.1750
14108W        W29239  10.779   9.843  13.454  0.3400 -0.2952  0.0818
14109W        W29240  12.659  17.274   2.569  0.2989 -0.1387  0.1244
14110W        W29241   4.708  11.821  11.430 -0.2100  0.0767  0.1317
14111W        W29242   8.928  11.248  15.892 -0.0834 -0.1202 -0.1042
14112W        W29243   5.090   5.502   0.069  0.0349  0.2909 -0.0735
14113W        W29244   3.366   6.634   0.963  0.0696 -0.1852  0.1586
14114W        W29245   4.618  17.292  13.338 -0.3185 -0.0295 -0.0814
14115W        W29246  13.937   5.644   5.282 -0.0759 -0.2676  0.0416
14116W        W29247  10.514   5.712  11.644 -0.1355 -0.1580  0.0832
14117W        W29248  17.768  12.867  13.857 -0.1010  0.1373  0.0326
14118W        W29249   4.714   5.433  11.393 -0.1233 -0.2467 -0.2283
14119W        W29250  11.743  17.544   5.203  0.0142 -0.1060 -0.1597
14120W        W29251   7.163   9.418  11.049  0.1680 -0.3814 -0.1604
14121W        W29252   5.547  13.792  13.390  0.3673 -0.3100  0.1738
14122W        W29253   0.424   3.796   3.007 -0.0779 -0.1453 -0.0542
14123W        W29254   1.283   2.739   4.047  0.1231  0.0527  0.0404
14124W        W29255   8.857   1.567   0.231 -0.0360 -0.1596  0.1803
14125W        W29256  17.765   6.344   0.048 -0.0804  0.0915 -0.2017
14126W        W29257  14.009   8.007  13.223 -0.0528 -0.0766  0.0314
14127W        W29258   3.238  14.329  13.815  0.0134 -0.1483  0.0571
14128W        W29259  15.925   1.763  15.547 -0.4480 -0.0671 -0.0837
14129W        W29260   9.980  10.881  12.878  0.1801 -0.1366  0.0414
14130W        W29261  10.290  18.250   0.621 -0.1964 -0.1521 -0.2012
14131W        W29262   5.312  12.041  12.670  0.1055  0.1840 -0.0841
14132W        W29263  16.236   2.358  11.842 -0.0059 -0.5806  0.0748
14133W        W29264   9.258  11.617   3.341 -0.2060  0.0617 -0.1725
14134W        W29265   1.700   4.612   0.560  0.1128 -0.2727 -0.0270
14135W        W29266   2.746   5.597   0.617 -0.3622 -0.0906 -0.0824
14136W        W29267   0.679   3.544   6.117  0.1042  0.1718  0.2164
14137W        W29268  12.522  11.671   4.922 -0.1480  0.0949  0.0237
14138W        W29269  13.478  17.390   2.192 -0.1152 -0.3767 -0.3365
14139W        W29270   4.569   3.719  12.006 -0.1596 -0.0074  0.0658
14140W        W29271   3.175  17.566  15.709  0.2183  0.3785 -0.1772
14141W        W29272  15.779   0.583   1.642 -0.3265  0.3485  0.0905
14142W        W29273  13.072  14.285   0.848 -0.2824  0.0251 -0.0583
14143W        W29274   8.661  17.553  10.483 -0.2339 -0.0901 -0.2304
14144W        W29275   0.750  11.722   1.612  0.1687  0.0119  0.4746
14145W        W29276   3.003  17.757   0.482 -0.0818 -0.1747  0.2769
14146W        W29277   0.973  15.324   3.508 -0.3070 -0.1137  0.1169
14147W        W29278   7.496   6.482   4.307 -0.1877 -0.0057 -0.1180
14148W        W29279  11.377   8.398   4.298 -0.2835  0.0312 -0.2327
14149W        W29280  13.213   1.774  11.189  0.0549 -0.1321 -0.1762
14150W        W29281  14.316   8.894  11.568  0.2150  0.0688  0.2881
14151W        W29282  14.601   3.508   4.938  0.1134 -0.1467  0.0175
14152W        W29283   5.089   2.387   5.157 -0.0024  0.1570 -0.0538
14153W        W29284  13.503   9.995  14.341  0.0501  0.0534  0.1786
14154W        W29285  15.876   1.662   0.688  0.2212  0.1480 -0.2390
14155W        W29286   0.525   1.708   2.050 -0.1372 -0.0172 -0.0562
14156W        W29287   5.312  11.729   3.235 -0.0113 -0.0169  0.1827
14157W        W29288  17.063   8.087  11.873  0.0461 -0.1431  0.3035
14158W        W29289  13.334  11.540   1.241 -0.3473 -0.3476 -0.0219
14159W        W29290  17.041  17.042   9.914 -0.0274  0.0281  0.0775
14160W        W29291  11.302  10.295   1.448  0.0192  0.3208 -0.1651
14161W        W29292  13.936   4.690   3.989  0.1143  0.0653  0.0565
14162W        W29293  11.620   5.832  15.574 -0.1169  0.1982 -0.0176
14163W        W29294  18.223   7.953   2.164 -0.0708 -0.1742 -0.2804
14164W        W29295   9.968  12.834   4.810 -0.0827  0.1065 -0.0719
14165W        W29296   0.212  12.664  11.379 -0.0605  0.0795  0.0794
14166W        W29297  17.419  13.280  14.020 -0.3304  0.1526 -0.0091
14167W        W29298   5.108  17.109   0.391  0.0098  0.3745 -0.1709
14168W        W29299   7.527   6.868   1.315  0.0186 -0.2498  0.1058
14169W        W29300   6.431  14.185  15.655  0.0232 -0.2644  0.1929
14170W        W29301  11.096   5.231   1.462 -0.3994  0.1947 -0.1614
14171W        W29302  14.508  16.854   2.756  0.0534  0.1086  0.1259
14172W        W29303   2.020  11.672   2.384  0.0631 -0.1143  0.4010
14173W        W29304   0.280   5.932  15.254  0.0209 -0.0138  0.2586
14174W        W29305   4.305  11.876   5.864  0.1398 -0.0003 -0.1967
14175W        W29306  14.782   4.281   4.060  0.0540 -0.0681 -0.0726
14176W        W29307  10.333   9.882  14.322 -0.1528 -0.0215  0.0399
14177W        W29308   1.005   7.531  14.043  0.0605 -0.3760 -0.2688
14178W        W29309   9.562  13.961   3.337 -0.2778  0.0947  0.0272
14179W        W29310   4.221   2.864   0.721  0.2699 -0.0027  0.0352
14180W        W29311  14.182  15.462  14.587  0.2543  0.1412  0.3369
14181W        W29312  12.022   3.196  12.827 -0.1646 -0.2460 -0.1664
14182W        W29313   4.527   9.109   3.066 -0.0869  0.1711  0.4458
14183W        W29314   6.218  14.142  12.408 -0.0744  0.4455 -0.0922
14184W        W29315  11.474  12.400   0.104  0.0133  0.0031 -0.1425
14185W        W29316   1.346  18.036  12.503 -0.0724  0.0578  0.0713
14186W        W29317   5.656   6.217   1.266  0.0978 -0.0275 -0.0662
14187W        W29318  15.161  11.985  12.469 -0.1707 -0.0863 -0.3412
14188W        W29319   8.961   0.874   4.808  0.0209  0.1805 -0.0942
14189W        W29320  14.034  10.775  15.989  0.0786  0.0396 -0.1208
14190W        W29321   6.422  12.374   2.481  0.1033  0.3301 -0.2099
14191W        W29322   1.436  11.080   0.923  0.0468  0.2399  0.1395
14192W        W29323   3.084   1.391   6.177  0.1806 -0.0755 -0.2718
14193W        W29324  16.095  15.445  10.681 -0.0414 -0.0671 -0.0645
14194W        W29325   5.147  17.326  12.636  0.0533  0.1233 -0.1434
14195W        W29326   3.263  14.482   3.763  0.0812 -0.2526  0.1168
14196W        W29327  17.748   7.692   2.296 -0.1607 -0.1342 -0.1000
14197W        W29328   7.138   2.476   4.485  0.3029 -0.0741 -0.0431
14198W        W29329   6.581  14.876  12.507  0.2617 -0.2040 -0.1637
14199W        W29330   2.223   9.564  12.130 -0.0106  0.0004  0.0330
14200W        W29331   7.184   5.658   0.826 -0.2351  0.1473 -0.3142
14201W        W29332   9.423   5.637  15.004  0.2977 -0.3076 -0.0954
14202W        W29333   7.342   5.073   0.697  0.2038 -0.1930 -0.2154
14203W        W29334   6.828  16.159   0.361  0.1080 -0.3310 -0.0550
14204W        W29335   7.310   1.908  13.489 -0.0265  0.2146  0.0191
14205W        W29336  15.967  14.826   5.420  0.0598  0.3322  0.1144
14206W        W29337   3.451  11.232   0.536  0.2636  0.0597 -0.1450
14207W        W29338   0.290  17.934   4.620  0.0817 -0.1319 -0.0452
14208W        W29339  12.922  16.112  12.794 -0.0669  0.0514 -0.1413
14209W        W29340   6.740   0.139   5.442  0.0481 -0.1836 -0.0305
14210W        W29341  16.826   6.821  12.447  0.3265 -0.2830  0.1447
14211W        W29342  14.930   2.389   3.813  0.1198 -0.0961 -0.0772
14212W        W29343   3.653   1.117  13.559  0.1609 -0.1070 -0.0436
14213W        W29344   5.590   0.540   4.867 -0.1150  0.0463 -0.0456
14214W        W29345   5.114   9.292  15.221 -0.1565 -0.3184 -0.1070
14215W        W29346  11.112  18.088   4.443 -0.1152  0.0413  0.3177
14216W        W29347   6.246  13.218  13.437 -0.0234 -0.1698  0.2211
14217W        W29348   0.366   7.031  13.251 -0.0345  0.0139 -0.0408
14218W        W29349   4.594  13.073  12.036 -0.4364 -0.3706 -0.0899
14219W        W29350   6.760   0.418   0.892  0.2866  0.2410 -0.2546
14220W        W29351   4.834  15.447   0.662  0.1015  0.1395  0.1089
14221W        W29352  11.194   3.536  15.997 -0.0817  0.0367 -0.1217
14222W        W29353   5.388   2.922  10.955  0.3927  0.1978 -0.0086
14223W        W29354  17.726   1.808  16.024  0.0353 -0.0447  0.0639
14224W        W29355   4.783   0.169   5.197  0.1860  0.1720 -0.0657
14225W        W29356   1.223   6.181   2.990  0.2530  0.0512  0.0407
14226W        W29357   0.608  10.882  15.789 -0.0028  0.3011 -0.3820
14227W        W29358   6.946   1.214  12.791  0.0588 -0.1183 -0.1809
14228W        W29359   9.770   8.677   2.336  0.1528  0.2700 -0.1403
14229W        W29360  11.495  16.128   5.381 -0.3066  0.2891 -0.0790
14230W        W29361   8.571   2.002   1.912 -0.1489  0.1322  0.3036
14231W        W29362  12.282   2.071  16.068 -0.1165 -0.1344 -0.2259
14232W        W29363   3.761  11.894  11.547 -0.1049 -0.2615 -0.1065
14233W        W29364   8.956   2.049  12.810  0.1049 -0.0063  0.0853
14234W        W29365   2.435  14.300   4.032  0.0393  0.2724 -0.0006
14235W        W29366  15.487   7.799  16.107  0.1489 -0.3860 -0.0215
14236W        W29367   4.701   4.420   1.921 -0.2165  0.0204  0.1104
14237W        W29368   1.509   7.007  12.656 -0.1343 -0.2480  0.1732
14238W        W29369  17.455  10.890  14.527  0.2098  0.0703  0.2388
14239W        W29370  14.095   6.552   3.024 -0.0738 -0.1316  0.2384
14240W        W29371   5.239   1.623   4.966 -0.3907  0.0791  0.2284
14241W        W29372   3.579  12.446   1.837 -0.1682  0.0229 -0.0780
14242W        W29373   2.038   5.963  13.889 -0.3186 -0.2721  0.0392
14243W        W29374  10.598   3.870   5.066 -0.0102 -0.1074  0.2100
14244W        W29375  18.320   8.713  12.936 -0.1262  0.2427  0.1514
14245W        W29376   8.922   0.914  15.327 -0.1109  0.1602 -0.3337
14246W        W29377   0.564   8.288  15.930 -0.4058 -0.1863  0.0386
14247W        W29378   8.654  16.885   4.631  0.1065  0.3057 -0.0372
14248W        W29379   2.514   3.029  14.669  0.1307  0.0073  0.2640
14249W        W29380   0.227  10.277   1.532  0.0064  0.2730  0.2792
14250W        W29381  13.750   8.018   1.797 -0.0060  0.0134  0.0495
14251W        W29382  10.993  11.375  13.467  0.0643 -0.0385 -0.1892
14252W        W29383  16.113   5.533  10.198 -0.0909 -0.1199  0.3073
14253W        W29384   1.486   4.871   4.322 -0.2309  0.2053 -0.0838
14254W        W29385   9.944   6.563  11.884 -0.2740  0.1335  0.0571
14255W        W29386   5.868  14.014   0.774 -0.0321  0.0595 -0.2941
14256W        W29387   0.182  14.157   4.465 -0.2776 -0.4893  0.0613
14257W        W29388   4.958   7.420   4.584  0.1729 -0.7452  0.1790
14258W        W29389  10.217   0.248  12.581  0.0130 -0.1988 -0.0258
14259W        W29390  13.743   0.479   1.591 -0.1517 -0.1416  0.0589
14260W        W29391   7.687  17.458  15.315 -0.2774  0.1698  0.1234
14261W        W29392  10.484  14.281  13.359  0.0673 -0.2485  0.1324
14262W        W29393   6.513   2.738  15.462 -0.0806  0.0076 -0.1231
14263W        W29394  10.556   7.644   2.896  0.2414  0.1143  0.1846
14264W        W29395  10.158   7.729  12.101  0.1066 -0.0594 -0.1507
14265W        W29396   5.042  10.400  14.552  0.0052  0.0627  0.0482
14266W        W29397  11.884  11.078  12.537 -0.1851  0.1380 -0.0471
14267W        W29398   7.429   1.399   3.339  0.0143 -0.1315  0.1226
14268W        W29399  17.454   6.875  13.095 -0.3289 -0.0980 -0.2278
14269W        W29400   2.340  10.762   4.156 -0.0732 -0.0723  0.1421
14270W        W29401   0.105   8.497  16.138 -0.1057 -0.3067 -0.1571
14271W        W29402   8.700   1.694  15.851 -0.0839 -0.2672 -0.2627
14272W        W29403  18.318  12.672  14.356  0.1221  0.1531  0.0877
14273W        W29404   7.498   0.529   4.440 -0.1152 -0.0727 -0.3781
14274W        W29405  14.401  12.685  15.204  0.1036  0.0393  0.4791
14275W        W29406   0.342  13.696   4.520  0.1670  0.2667  0.0550
14276W        W29407  15.851   7.912   0.717  0.0171  0.0398  0.0177
14277W        W29408   9.345   4.944   0.012  0.2714 -0.1191 -0.0379
14278W        W29409  18.014   3.380   4.711  0.1227 -0.1051  0.0935
14279W        W29410   9.791  11.346   2.885 -0.1995 -0.0015 -0.0162
14280W        W29411  10.560   1.897   1.024 -0.2193 -0.5091  0.1929
14281W        W29412   8.261   8.825   3.701 -0.0613 -0.1051  0.0527
14282W        W29413  10.331   8.665   0.408 -0.2713  0.4821  0.1005
14283W        W29414   2.452   8.051  10.590 -0.0197 -0.0625  0.0342
14284W        W29415   4.612   9.052  10.094  0.3533 -0.2030 -0.3496
14285W        W29416  13.360   6.594  12.946  0.2527 -0.0646  0.3983
14286W        W29417   9.074  17.043  14.055  0.0922 -0.5995 -0.1661
14287W        W29418   3.014   2.748  11.227  0.1219  0.0501  0.0144
14288W        W29419   0.631  13.509   3.355  0.4345 -0.0223 -0.1226
14289W        W29420  12.018  12.690  11.945 -0.0497 -0.4556 -0.0073
14290W        W29421  16.513   4.069  11.458 -0.1635 -0.0952 -0.0887
14291W        W29422   5.288  12.867   3.383 -0.2482  0.5052  0.0405
14292W        W29423  10.808  14.141   1.680 -0.1546 -0.0254 -0.1171
14293W        W29424  12.630  13.583  10.783 -0.4676 -0.0405 -0.0689
14294W        W29425  15.792  12.509  11.139  0.2107 -0.2429 -0.0400
14295W        W29426  14.857  12.850  11.053 -0.0413  0.1041 -0.1296
14296W        W29427   7.730   7.672  14.654  0.1164  0.2941  0.2181
14297W        W29428   8.197   3.344   3.234  0.0098  0.0569 -0.0881
14298W        W29429   8.923  18.318   5.651  0.0995 -0.2177 -0.0069
14299W        W29430  10.455  11.796  16.075 -0.1490 -0.0106  0.2785
14300W        W29431   7.667   1.724   0.719 -0.0088 -0.0683  0.0923
14301W        W29432  14.586   4.053   0.482 -0.2184 -0.1145  0.1769
14302W        W29433   7.017  14.343  14.821 -0.2433  0.1861  0.2544
14303W        W29434  10.172  10.080  10.834  0.0391 -0.3377  0.0371
14304W        W29435  18.157   0.048  13.579  0.0668 -0.0886 -0.0512
14305W        W29436  16.491  17.012  15.614  0.3122 -0.0107  0.2653
14306W        W29437  12.463   7.346   5.125 -0.3970  0.5340  0.0449
14307W        W29438  16.604   9.091  11.240 -0.1245  0.0634 -0.1765
14308W        W29439   8.130   8.306  12.197 -0.2718 -0.1346 -0.2743
14309W        W29440   3.281   8.998   2.377 -0.1720 -0.0153  0.2916
14310W        W29441   4.628   5.269  14.838 -0.1143 -0.0816  0.0452
14311W        W29442   5.508  10.387   0.281  0.0990  0.0147  0.1270
14312W        W29443  16.959  13.847   0.297 -0.1098 -0.0837  0.1022
14313W        W29444   0.302   0.801  13.055  0.1189  0.1756 -0.0439
14314W        W29445  18.124   6.844  14.433  0.0153  0.2383  0.0572
14315W        W29446   4.425   5.578  13.478 -0.0537  0.1513 -0.0269
14316W        W29447  17.627   6.292   4.216  0.0463  0.0149  0.0552
14317W        W29448  15.500  15.950  16.048  0.1934  0.2622  0.1046
14318W        W29449   1.124   4.684  13.589  0.2473 -0.5113 -0.2122
14319W        W29450  12.795  16.232   3.109  0.0703 -0.1687 -0.1898
14320W        W29451  16.139   0.103  14.957  0.0863  0.1103  0.0005
14321W        W29452   2.286  15.202  12.453  0.1188 -0.2640  0.0815
14322W        W29453  10.536   4.314   0.906  0.2625 -0.0616 -0.1754
14323W        W29454  14.422  16.629   1.460 -0.1166  0.1428  0.0789
14324W        W29455  11.158   9.510   4.501 -0.0691  0.0328 -0.0434
14325W        W29456   1.304  15.486   1.783 -0.0258 -0.0382 -0.1502
14326W        W29457  17.938  12.666  11.260 -0.1063  0.1008 -0.0195
14327W        W29458   0.685  16.718   0.653 -0.1245 -0.1389 -0.0925
14328W        W29459  15.701  16.820   3.541 -0.1389  0.0408  0.0648
14329W        W29460  16.901   6.104  13.561  0.1674 -0.5482  0.1633
14330W        W29461  18.110  10.999   5.219  0.2582  0.1502 -0.0615
14331W        W29462  11.398   5.549  13.537  0.1447 -0.0589 -0.3296
14332W        W29463   4.648   4.526   3.878 -0.1852  0.0168 -0.1805
14333W        W29464  10.860   7.444   1.764 -0.0915 -0.2186 -0.6130
14334W        W29465   5.558  15.760  12.383  0.3355  0.0499 -0.0841
14335W        W29466  11.838   2.780  11.762  0.0600 -0.2537 -0.4527
14336W        W29467   5.695  14.499  10.918  0.0448 -0.0701  0.0224
14337W        W29468   8.993   7.502  12.593 -0.2392 -0.0007 -0.1015
14338W        W29469   2.610   7.180  10.942  0.0305 -0.0976 -0.1580
14339W        W29470  16.407   5.176   4.095 -0.2837 -0.1554 -0.0349
14340W        W29471  15.665   9.192  15.439 -0.0516 -0.0785 -0.1545
14341W        W29472  11.715  17.517  12.507  0.2645  0.1780 -0.0959
14342W        W29473  17.802  15.856   2.965 -0.2402 -0.1255  0.0353
14343W        W29474   3.898   0.319   0.934  0.0323  0.0425 -0.0944
14344W        W29475   6.067  17.500  12.898 -0.0743 -0.0664 -0.1258
14345W        W29476   7.876  17.176   1.222  0.0279 -0.2898 -0.1264
14346W        W29477  12.015   2.048  15.660 -0.0279 -0.3947 -0.1048
14347W        W29478   7.504   7.666  12.347  0.1418  0.0727  0.2845
14348W        W29479  12.568  13.478   3.032  0.1625  0.0360  0.1909
14349W        W29480   6.568  12.803  12.248 -0.5275  0.0762  0.0858
14350W        W29481  14.586   4.752   3.870  0.0325 -0.0686 -0.0220
14351W        W29482  16.901  15.451   2.328  0.3217 -0.0016  0.1780
14352W        W29483   8.388  14.213  13.166 -0.2789  0.0339 -0.0683
14353W        W29484   2.332  16.124   0.036  0.0442  0.0453  0.1710
14354W        W29485  17.513  15.670   4.223 -0.0045  0.2905 -0.1689
14355W        W29486  16.347   0.537  15.916 -0.1619  0.3130  0.1285
14356W        W29487   2.588   4.451  11.242  0.0922 -0.2614 -0.4105
14357W        W29488  17.115   5.572   1.922  0.0551  0.1538  0.2611
14358W        W29489  10.946   7.414  14.535 -0.1486 -0.2521  0.2994
14359W        W29490   4.232   7.562  11.041  0.1678  0.1733 -0.1113
14360W        W29491  15.945  11.483   0.646  0.1192  0.1935  0.1377
14361W        W29492  10.111   3.371  15.451  0.0438 -0.0645 -0.3408
14362W        W29493  14.067   8.142  15.559  0.0709 -0.1967  0.2463
14363W        W29494  13.087   7.666  11.437  0.2057 -0.3165  0.2919
14364W        W29495   9.795  10.113  15.624  0.1516 -0.1009  0.1015
14365W        W29496  17.603  14.841  14.716  0.0224 -0.2889 -0.2304
14366W        W29497   8.622  14.240   4.866  0.0709 -0.3993 -0.0632
14367W        W29498  15.727   5.903   4.964  0.1300 -0.2088  0.1364
14368W        W29499   0.345   9.207   2.939  0.2561  0.2244  0.0012
14369W        W29500   2.289  16.332   3.762 -0.1942 -0.0820 -0.1678
14370W        W29501  12.492   1.542   3.836  0.1018 -0.0078 -0.0721
14371W        W29502   7.356  14.952   0.170  0.0591 -0.2000  0.1421
14372W        W29503   1.796  11.044   1.269  0.2295  0.0723  0.1326
14373W        W29504  17.145  11.607  14.947 -0.1710 -0.1720 -0.0443
14374W        W29505  14.061  13.820  15.163  0.1178 -0.2609 -0.0418
14375W        W29506  16.507  11.789   0.627  0.0905 -0.1500  0.0845
14376W        W29507   5.415   9.242  11.856 -0.0380 -0.1309 -0.0718
14377W        W29508   7.107   1.860   3.520 -0.1610  0.1832  0.0365
14378W        W29509  14.749  16.767   2.237  0.1298 -0.3492  0.0434
14379W        W29510   5.728  11.561   0.951 -0.2309  0.1864 -0.1647
14380W        W29511   8.613  14.800   2.889 -0.2027 -0.0950 -0.0551
14381W        W29512   3.484   8.108   2.814  0.2917 -0.0837 -0.4526
14382W        W29513   1.397  16.273   0.167 -0.1074 -0.1063 -0.1849
14383W        W29514   9.214   3.088  13.151  0.0671 -0.0806 -0.0423
14384W        W29515  14.419  15.358   1.855  0.1797 -0.1725 -0.0117
14385W        W29516   2.103  16.177  13.206 -0.1834  0.1426 -0.1403
14386W        W29517  13.710  12.638   0.931  0.1393 -0.0104  0.3825
14387W        W29518   1.953   1.858   4.737  0.0549  0.0684  0.1391
14388W        W29519  16.015   5.132   0.653 -0.0966  0.0552 -0.2755
14389W        W29520   2.648  12.488   4.429  0.2746 -0.1015 -0.2531
14390W        W29521   3.074   0.282   1.957 -0.4257 -0.2910 -0.1586
14391W        W29522  12.863   8.298   2.806  0.1781 -0.1911 -0.2421
14392W        W29523  12.313  16.989   1.400  0.1636 -0.2987  0.2818
14393W        W29524   9.260   3.739  13.561 -0.5729  0.1757  0.2082
14394W        W29525  16.521  11.613  13.518  0.0790  0.1816  0.0053
14395W        W29526  17.229  10.401  13.032 -0.0002  0.0904 -0.1960
14396W        W29527  13.223   5.747   1.065 -0.2843  0.0407 -0.1591
14397W        W29528  17.748  16.139   5.747 -0.2288 -0.2478 -0.2497
14398W        W29529  10.958  10.598   3.440  0.2026 -0.0503  0.3448
14399W        W29530   7.663   8.284  12.013 -0.1066  0.0283  0.0775
14400W        W29531   4.188   4.317  12.184  0.1030 -0.1125 -0.0511
14401W        W29532   9.854   1.992  15.467 -0.0220  0.1027 -0.1698
14402W        W29533   7.492   7.098  15.415  0.2207 -0.0494  0.0429
14403W        W29534  12.504   5.598  14.084 -0.1140 -0.1376  0.0064
14404W        W29535   3.256  11.620   4.945  0.1904  0.0649 -0.2003
14405W        W29536   4.180  18.306  11.893  0.0409  0.1700 -0.0702
14406W        W29537  16.156   1.449   2.016  0.0473 -0.0112 -0.3817
14407W        W29538   0.884   7.869  16.001 -0.0430 -0.1911  0.0023
14408W        W29539   4.640   2.195  13.182 -0.0165  0.0521  0.0676
14409W        W29540   8.923   4.462   3.302  0.0850 -0.1661  0.4058
14410W        W29541  16.052  18.350  13.716  0.1484  0.0439 -0.0591
14411W        W29542  17.778  10.062   3.506 -0.0667  0.1774 -0.1039
14412W        W29543  15.498  11.236  13.350 -0.2855 -0.4688 -0.1445
14413W        W29544  18.045  13.296   3.165 -0.1406 -0.2260 -0.5505
14414W        W29545   9.108   3.452   2.767 -0.0178  0.1230  0.1287
14415W        W29546  12.421   9.052  15.508  0.0620  0.0975 -0.2797
14416W        W29547  17.917   2.905   4.866 -0.0297  0.1373 -0.0838
14417W        W29548  17.679  17.779  15.805  0.0608  0.0382  0.0467
14418W        W29549  12.057   7.765   2.107 -0.1205  0.2031 -0.0648
14419W        W29550   8.984   4.363   4.205  0.2195  0.0044  0.2002
14420W        W29551  13.321   6.203   1.127  0.0165 -0.1316 -0.1551
14421W        W29552   4.314   0.273   3.357 -0.1322  0.0090 -0.0915
14422W        W29553   1.711   9.356   5.586 -0.0658  0.2341 -0.1599
14423W        W29554   9.025   6.894   1.824 -0.1070  0.2130  0.3821
14424W        W29555  15.599   3.684  12.954  0.3483  0.5850  0.3275
14425W        W29556   5.170  17.099  11.999 -0.0220 -0.0096  0.2008
14426W        W29557   8.762  16.367  13.330 -0.1963  0.2641 -0.0100
14427W        W29558  16.306   0.497  11.336 -0.0760  0.3585  0.0129
14428W        W29559  16.475  12.572   2.895 -0.1662  0.2794 -0.0598
14429W        W29560  15.267  12.174   0.446 -0.0757  0.2001  0.2509
14430W        W29561  10.677   0.062  15.013 -0.0239  0.0373  0.2713
14431W        W29562   2.035  13.209   3.945  0.1458  0.3154 -0.0956
14432W        W29563  16.169  16.358  14.257 -0.0601  0.3045  0.3748
14433W        W29564  18.291   4.068  15.787  0.1047 -0.0320  0.3237
14434W        W29565   7.557   1.005  13.038  0.4318 -0.1839 -0.3057
14435W        W29566   7.205  14.472  15.890  0.0741 -0.0157  0.2248
14436W        W29567  11.691   5.054  12.966  0.2070  0.0905 -0.0560
14437W        W29568   4.544   4.117   2.905 -0.0974  0.0065 -0.1335
14438W        W29569  13.764   6.705   3.535 -0.0363 -0.1018  0.3176
14439W        W29570   3.618  11.078   6.070 -0.1608  0.0072 -0.1407
14440W        W29571  14.717   9.491  15.564 -0.0682 -0.0019 -0.1449
14441W        W29572  17.216  12.786  14.049  0.1677  0.0089 -0.1038
14442W        W29573  14.915   2.453   5.976  0.3570 -0.2544 -0.0657
14443W        W29574  15.123   3.985   3.756 -0.2099  0.0692  0.0589
14444W        W29575   8.459   2.864  12.833  0.1882 -0.0867 -0.3935
14445W        W29576   9.454  11.200  13.486  0.5824 -0.3917  0.0005
14446W        W29577   1.584  13.501  13.081  0.1276  0.0833  0.0803
14447W        W29578   6.056   3.649  14.593  0.0238 -0.1054  0.0196
14448W        W29579  17.667   4.738   2.295  0.2436  0.0906  0.1251
14449W        W29580  15.785  11.427  12.975  0.0867  0.2840  0.0153
14450W        W29581  11.087  16.229   3.850 -0.2737  0.0596 -0.1418
14451W        W29582   8.084   9.708  12.584 -0.1434 -0.1108  0.2310
14452W        W29583   6.823  12.904  12.821 -0.0879 -0.1868 -0.3557
14453W        W29584   2.827  17.088   0.326 -0.2427  0.0272 -0.2218
14454W        W29585   7.614   3.842  13.406  0.0403 -0.1572  0.3114
14455W        W29586   0.758   5.141   1.351 -0.0632  0.0760  0.2809
14456W        W29587   7.028   6.045   1.716 -0.4998  0.0574  0.1146
14457W        W29588  15.792   9.617  11.940 -0.2682 -0.0855 -0.1002
14458W        W29589  18.363  15.500   0.939 -0.1251 -0.1585 -0.0165
14459W        W29590   1.678  15.594  10.176  0.2106  0.0344  0.1849
14460W        W29591   4.498   4.188   0.947  0.1091  0.0435  0.1212
14461W        W29592  12.437   2.273  12.658 -0.1681 -0.1718 -0.4101
14462W        W29593   8.138   6.833  11.681 -0.0923  0.2925 -0.0810
14463W        W29594  12.704   6.480   5.233  0.2038  0.2675 -0.2770
14464W        W29595  17.043   8.902  15.900  0.1312  0.0391 -0.2234
14465W        W29596  15.746  12.113   2.613  0.0698 -0.1415  0.2001
14466W        W29597   3.024   9.017   4.424 -0.1414 -0.0530  0.2278
14467W        W29598  11.460  12.779  11.888  0.3553 -0.0160 -0.0518
14468W        W29599  10.166   4.517   2.993 -0.1310  0.0111  0.2888
14469W        W29600   9.453   7.622  12.838  0.1138 -0.3200 -0.3725
14470W        W29601  17.619   0.713   3.783  0.3651 -0.1377  0.1884
14471W        W29602  13.992   5.651  13.309  0.2174 -0.0436  0.1510
14472W        W29603  16.244   5.708   2.118  0.1744 -0.1539 -0.2237
14473W        W29604  14.165  17.731   3.016 -0.1392 -0.2165 -0.1806
14474W        W29605  13.044   4.647   0.852 -0.0846  0.1252 -0.0496
14475W        W29606  10.179   5.517   5.607 -0.2421  0.2217  0.1727
14476W        W29607  11.244   5.203  15.809 -0.0940 -0.0562  0.1952
14477W        W29608   0.845   8.090   3.393  0.1273 -0.2363  0.1410
14478W        W29609   3.678   7.029  12.389 -0.1657  0.2110 -0.3147
14479W        W29610  17.073   7.192   1.987  0.0033 -0.1104  0.0891
14480W        W29611   9.461  16.014  11.419 -0.1289  0.0035  0.0303
14481W        W29612   3.359   3.855   1.585  0.0479 -0.0532  0.1920
14482W        W29613   2.708   9.736   2.045  0.0961  0.0404  0.0239
14483W        W29614  16.069  14.659  11.721 -0.1562 -0.0280  0.1499
14484W        W29615  17.635   0.146   0.147  0.0279  0.1634 -0.3813
14485W        W29616   4.109   9.136  11.168 -0.3237 -0.2587  0.2846
14486W        W29617   2.130   7.413  13.007  0.0172  0.4208  0.0733
14487W        W29618   5.811   8.866  15.548  0.3379  0.2508  0.0736
14488W        W29619  15.253  15.599   2.548 -0.2854 -0.2358 -0.0979
14489W        W29620   1.536   7.123  11.754  0.2484 -0.4662  0.1532
14490W        W29621   4.863  17.194   4.966  0.2088  0.0484  0.0311
14491W        W29622   6.961  18.021  12.016 -0.2657 -0.0633 -0.0152
14492W        W29623  10.548   7.795  14.129 -0.0307  0.1413  0.2867
14493W        W29624   1.385  10.621   5.224 -0.0663 -0.2039  0.0146
14494W        W29625  18.246   5.801   4.355 -0.1577 -0.0741 -0.2524
14495W        W29626   2.568  14.981  13.977  0.0233  0.0621  0.0603
14496W        W29627   7.340  13.212  12.581  0.0940 -0.2041  0.2690
14497W        W29628  10.579   0.919   3.698  0.3590 -0.2397  0.4334
14498W        W29629  13.697  12.900  13.272 -0.0896 -0.1686 -0.1901
14499W        W29630  15.134   9.747  11.173 -0.2054  0.0866  0.2994
14500W        W29631  13.658  17.514   5.051  0.2924 -0.2361 -0.1522
14501W        W29632   1.061  14.724  13.721  0.1705  0.2824  0.0356
14502W        W29633   2.248   6.421   4.916  0.0165  0.1227  0.0401
14503W        W29634  18.202   7.056  15.241  0.2682  0.3476 -0.1383
14504W        W29635   9.979  15.590   1.245  0.1654 -0.0581  0.0305
14505W        W29636   3.548   4.108   0.372 -0.2749  0.0730  0.4927
14506W        W29637   1.628  15.748  15.268  0.0564  0.1354 -0.4352
14507W        W29638   9.829  15.097  10.709  0.0178  0.0536  0.1218
14508W        W29639  11.594   4.912   0.456 -0.1992  0.3492 -0.2247
14509W        W29640  10.314  10.094   1.385 -0.2065 -0.0733 -0.4346
14510W        W29641  15.563   8.658   3.580 -0.0465 -0.0387 -0.0243
14511W        W29642  10.585  11.575   3.852 -0.0316  0.2695 -0.1149
14512W        W29643   0.147   0.838   4.115  0.1501  0.0307  0.3030
14513W        W29644   2.798  11.013  15.304  0.1749 -0.1022  0.1658
14514W        W29645  18.149   2.052  12.411  0.1649  0.3418 -0.0087
14515W        W29646  17.597  10.846  11.760  0.0432  0.0731 -0.0380
14516W        W29647   6.563   4.040   5.530 -0.0579  0.0655 -0.0080
14517W        W29648  10.514  15.560  13.503  0.1815  0.1550 -0.1515
14518W        W29649   3.598  12.814   3.078  0.3907 -0.1006  0.1364
14519W        W29650  17.124  14.528  11.971  0.1337  0.2199  0.0673
14520W        W29651   3.501  14.733  13.623 -0.2168 -0.0630 -0.1672
14521W        W29652   7.611  18.107  11.081 -0.0180 -0.0905  0.2059
14522W        W29653  12.269   1.437   0.176  0.2645  0.0116 -0.1820
14523W        W29654   9.837  13.834   1.822  0.0314 -0.1856 -0.7841
14524W        W29655   2.415   0.908   0.154  0.2685 -0.1196 -0.1939
14525W        W29656  17.763  14.555  10.285  0.0456 -0.1124  0.3881
14526W        W29657  12.588   3.174   3.434 -0.1170  0.3532 -0.1434
14527W        W29658  12.270   6.595   3.348  0.2866 -0.2094  0.1875
14528W        W29659   3.705  14.576  12.719 -0.0319  0.1249  0.2520
14529W        W29660  13.764   3.943  15.292 -0.0315 -0.1526 -0.0222
14530W        W29661   6.467   1.760  14.355 -0.3924 -0.1519 -0.0872
14531W        W29662  17.997  16.789  15.247  0.1730  0.0936 -0.2754
14532W        W29663  11.254  15.766   3.682  0.1308  0.0077  0.0872
14533W        W29664   1.909   8.288   0.755  0.1761 -0.0275  0.0911
14534W        W29665   4.242  10.716  13.407 -0.0296  0.0344 -0.2475
14535W        W29666   3.560  13.947  12.024  0.2394  0.1608  0.0672
14536W        W29667   4.969   9.410   1.038 -0.3161  0.0808  0.2353
14537W        W29668  14.162   9.284  11.952  0.0530  0.0861 -0.0738
14538W        W29669   3.650   4.726   3.144 -0.0482  0.0415  0.0930
14539W        W29670  14.822   7.658  11.105 -0.0607 -0.1409 -0.0801
14540W        W29671   5.043   9.281  12.658 -0.1433 -0.0002 -0.0237
14541W        W29672  16.859  11.702  10.763  0.2439 -0.0408 -0.1469
14542W        W29673  12.082   6.560   2.850  0.3142  0.2516 -0.1316
14543W        W29674  11.612   3.685   1.035  0.1208 -0.0882  0.0250
14544W        W29675   8.909   0.954   3.994  0.0550  0.3701 -0.0673
14545W        W29676   2.450   1.671   0.200 -0.0222  0.0166 -0.1264
14546W        W29677   3.354  13.817   3.041 -0.0617 -0.1435  0.0813
14547W        W29678   8.263   9.454   1.663  0.2007 -0.2064  0.3815
14548W        W29679  16.909   1.586  14.563 -0.2285 -0.2720  0.0252
14549W        W29680   6.153   8.734  15.987 -0.0891 -0.1775 -0.0222
14550W        W29681  14.455   7.836  12.999  0.1242  0.1007 -0.1320
14551W        W29682  13.987  16.787   1.536 -0.0923  0.0108 -0.0046
14552W        W29683  10.401   9.334  14.664  0.0930  0.0366 -0.2419
14553W        W29684  10.790  18.236   0.482  0.1573  0.0081  0.0266
14554W        W29685   4.211  11.616   0.601 -0.0861 -0.0574 -0.0834
14555W        W29686  15.496  13.603  14.540 -0.1166  0.0450 -0.1579
14556W        W29687   1.291   2.781  15.888 -0.2128 -0.0892  0.1640
14557W        W29688   9.934  11.662   3.244  0.1865  0.1389  0.0085
14558W        W29689   5.659  16.148  15.593 -0.2317 -0.0116 -0.1060
14559W        W29690   3.608   0.937  15.607 -0.1651  0.3422  0.0475
14560W        W29691   7.207   0.448   3.039  0.0399 -0.2133 -0.1489
14561W        W29692   4.349  16.472   1.241 -0.0101 -0.2474 -0.0703
14562W        W29693   5.295   3.346  16.098  0.1854  0.0652 -0.1895
14563W        W29694  15.670   7.149  14.386  0.1544  0.3078 -0.4024
14564W        W29695   1.044  14.494   5.159 -0.0488 -0.0758 -0.3890
14565W        W29696   1.744   4.596  11.461  0.1924 -0.2575 -0.0637
14566W        W29697  14.308  13.351  11.609 -0.0328  0.0052 -0.0583
14567W        W29698   1.957  13.549  14.200 -0.2417 -0.0892 -0.0966
14568W        W29699  16.770   3.393  13.593  0.0632  0.2585 -0.1561
14569W        W29700  16.893  14.648  15.208  0.0832  0.0106  0.0806
14570W        W29701  13.720  12.250   1.197  0.2301 -0.3355 -0.2704
14571W        W29702   4.368   6.042  10.259 -0.0178  0.0982  0.3568
14572W        W29703   2.946  14.831   3.456  0.1720  0.2222 -0.3698
14573W        W29704  13.321  10.296  11.801  0.3480  0.0171 -0.0564
14574W        W29705   1.664   1.460   1.970 -0.2598  0.0171  0.1878
14575W        W29706   6.524  16.384   2.395  0.2122 -0.0120 -0.4375
14576W        W29707   9.416   3.643   3.730 -0.1904 -0.1106 -0.1305
14577W        W29708  15.121   6.692  10.385  0.0996 -0.0514 -0.2713
14578W        W29709   7.496   5.589   5.164  0.0268  0.0148 -0.0031
14579W        W29710  15.277   7.571  13.558 -0.2743 -0.0047 -0.3720
14580W        W29711  15.980  10.607  14.003 -0.0863  0.1330  0.0945
14581W        W29712  12.006   8.471   3.426 -0.2748 -0.1140 -0.2225
14582W        W29713  11.941  14.161  14.959 -0.4285  0.0752 -0.2813
14583W        W29714   9.133  14.067   0.614  0.0296 -0.1699 -0.0786
14584W        W29715   6.932   0.931  14.630  0.1961  0.1516  0.1022
14585W        W29716  15.308   6.386  10.722 -0.0042 -0.0700  0.0767
14586W        W29717  15.273  11.095  12.395  0.2033  0.0954  0.1234
14587W        W29718  13.692   8.850  11.305  0.1972  0.1342 -0.4964
14588W        W29719  11.868   1.098  12.678  0.3224 -0.1997 -0.2035
14589W        W29720  17.656  17.765   3.200  0.2358  0.1861 -0.1188
14590W        W29721  16.745  12.443   4.276 -0.0663  0.0209 -0.0994
14591W        W29722   4.914   0.762   2.060 -0.0265 -0.3817 -0.0573
14592W        W29723   7.157   0.376   0.510  0.2265  0.0566  0.1706
14593W        W29724   0.972   4.043  15.772 -0.0510 -0.2684  0.2037
14594W        W29725   3.716  15.667  10.192 -0.2405 -0.0477  0.0536
14595W        W29726  13.339   4.395   2.444 -0.0380  0.4088  0.1522
14596W        W29727   8.402   3.492   0.677 -0.0232  0.0898  0.0983
14597W        W29728   2.072  13.103  11.588 -0.0003  0.3306 -0.2623
14598W        W29729  12.381   0.059   4.434 -0.4528  0.2515  0.0040
14599W        W29730  17.430  12.127  11.901 -0.0538 -0.0496  0.0342
14600W        W29731   4.621   0.179  14.230 -0.3277 -0.1214 -0.1254
14601W        W29732  12.461   3.311   4.446  0.1481  0.0462 -0.1235
14602W        W29733   3.624   2.681   3.991  0.4423  0.0972 -0.0524
14603W        W29734  13.863   8.025  11.233 -0.1891 -0.2416  0.2830
14604W        W29735   5.842  10.899  11.158  0.3152  0.1804  0.1276
14605W        W29736   9.454   4.062   3.358  0.1536  0.1483  0.0543
14606W        W29737   3.320   3.676  14.651  0.1124 -0.1629  0.0928
14607W        W29738   8.126   9.679   1.111  0.0574  0.2550  0.0355
14608W        W29739  14.950  12.338  10.631 -0.1603  0.2857  0.1943
14609W        W29740  15.990   1.777   2.343 -0.0253  0.0986 -0.0687
14610W        W29741   7.588  15.327  15.289  0.0724  0.0607  0.2285
14611W        W29742   5.790   9.329   3.500 -0.2626  0.3037  0.3349
14612W        W29743  13.563   0.473  11.962  0.1717  0.1436  0.0367
14613W        W29744  10.146   3.046   0.629  0.1506 -0.1272  0.2070
14614W        W29745  15.279   1.061   4.161 -0.2426  0.0845 -0.2395
14615W        W29746   2.161  14.829  14.355 -0.3234 -0.2569  0.1022
14616W        W29747   0.455  14.288   4.045  0.1782 -0.5742  0.0192
14617W        W29748  17.002   3.194   1.960 -0.1092  0.1976 -0.1296
14618W        W29749   8.335   3.428   1.613  0.0466 -0.1062 -0.1674
14619W        W29750  16.138   6.071   4.637 -0.0692 -0.0531 -0.0661
14620W        W29751  10.302   1.305  14.731 -0.1460 -0.0206 -0.1808
14621W        W29752   7.035   7.148   9.935 -0.3440  0.5668 -0.1997
14622W        W29753   8.731   6.489  15.750 -0.1064  0.0702  0.0202
14623W        W29754  16.440   4.484  11.172 -0.0043 -0.2499  0.2425
14624W        W29755  13.383   9.497   2.759 -0.0289 -0.1095 -0.0941
14625W        W29756   1.206   6.586   0.826 -0.0368  0.0891  0.2196
14626W        W29757   3.598  12.270   5.301 -0.0723 -0.1650  0.4252
14627W        W29758   9.844  10.686  14.763  0.4778  0.2801  0.0963
14628W        W29759  17.142  16.326   3.092 -0.5448  0.0892  0.0861
14629W        W29760  13.868   2.304   1.583  0.1501 -0.1949 -0.3676
14630W        W29761   5.578   3.120  14.353 -0.2901  0.0004 -0.3629
14631W        W29762   4.325  11.403  14.094  0.4861  0.2074  0.2893
14632W        W29763   0.791   6.425   2.142  0.0713  0.0258 -0.2067
14633W        W29764   8.767  14.053   1.736 -0.1279  0.0717  0.4894
14634W        W29765   5.696  17.050  14.242  0.4603 -0.0734  0.1935
14635W        W29766   6.006  17.775  14.596 -0.0468  0.0310  0.0361
14636W        W29767  10.726  15.157  10.715 -0.1049 -0.2088  0.2554
14637W        W29768   6.462  10.935  15.481 -0.1208 -0.3140 -0.0428
14638W        W29769   8.795  13.994  10.054  0.0294  0.0028 -0.1694
14639W        W29770   0.820  11.840  12.280  0.0965  0.2391 -0.0864
14640W        W29771   6.672  13.801  10.681 -0.0429  0.0153 -0.0052
14641W        W29772  12.477  15.993  13.617 -0.1838 -0.1217  0.1640
14642W        W29773  13.317  16.955   4.484  0.0259  0.0229  0.0427
14643W        W29774   6.894  14.837   2.417 -0.0777  0.0209  0.0585
14644W        W29775  18.138  10.692  11.753  0.0914 -0.0257  0.1779
14645W        W29776   7.284  12.260   3.914 -0.3179  0.1176 -0.2029
14646W        W29777   3.985   7.288  12.098 -0.0581 -0.0697  0.0101
14647W        W29778  11.627   9.838   2.405 -0.3834 -0.0183  0.2742
14648W        W29779  13.949  16.308   4.174  0.1053 -0.0475 -0.2050
14649W        W29780   0.326  12.844   0.001 -0.0173 -0.0056  0.1756
14650W        W29781   8.391   5.107   4.067  0.0465 -0.1527 -0.1210
14651W        W29782  16.983  13.828   0.847  0.1075  0.1106  0.2458
14652W        W29783  10.864   1.162  14.145  0.2114  0.0302  0.1880
14653W        W29784  10.022   4.639   1.765 -0.0006  0.0297 -0.1451
14654W        W29785  17.459  16.688  14.106 -0.1043 -0.0609 -0.1105
14655W        W29786   0.910  16.550  14.530 -0.1198  0.0958 -0.1627
14656W        W29787   7.261   5.289  13.173  0.0863  0.0794 -0.0490
14657W        W29788  12.736   3.939   2.890 -0.0155  0.1341  0.1424
14658W        W29789  10.127  13.394  11.684 -0.2724  0.3143 -0.1159
14659W        W29790  16.742  12.853   1.199 -0.1052  0.1737 -0.1881
14660W        W29791   5.944   3.257   2.830  0.1182  0.1254 -0.0291
14661W        W29792   2.439  15.160  11.525  0.1094 -0.3691 -0.0505
14662W        W29793  14.298  17.559  13.231 -0.4325 -0.1528  0.3314
14663W        W29794   7.938  13.427  11.310 -0.0184  0.0296  0.1835
14664W        W29795  13.131  10.394   1.866 -0.0515  0.0425  0.0127
14665W        W29796  11.974   1.882   1.765 -0.0692  0.2522 -0.1541
14666W        W29797   5.120   8.173  13.053 -0.3648 -0.1262  0.2082
14667W        W29798  11.634   5.381   3.951  0.1520 -0.0367 -0.2172
14668W        W29799  16.313   8.469  12.141  0.1162 -0.0860 -0.1791
14669W        W29800  11.516   2.511   3.730  0.0586 -0.2456 -0.1018
14670W        W29801   3.990   4.038  14.160 -0.0784 -0.2586  0.3262
14671W        W29802   6.504  10.592  15.872 -0.2027 -0.2236 -0.3471
14672W        W29803  15.723   0.116   0.752 -0.0563 -0.3020  0.0414
14673W        W29804   0.117  12.115  12.988  0.2033  0.2364 -0.0285
14674W        W29805   1.636  14.694   0.965 -0.1831 -0.1616 -0.0669
14675W        W29806   8.223  17.438   4.973 -0.2113  0.2150 -0.0146
14676W        W29807  12.751  16.891   1.700  0.3805 -0.0129  0.1110
14677W        W29808  12.158  12.301  12.229  0.1858  0.0627 -0.2866
14678W        W29809  16.382   6.090   2.409 -0.1826 -0.0622 -0.2909
14679W        W29810   2.899  12.921   3.631  0.1128 -0.0693  0.1179
14680W        W29811   9.705   5.788  11.204  0.1395  0.0233  0.2355
14681W        W29812  17.772  10.814   1.984 -0.1409  0.0512 -0.1769
14682W        W29813   0.391  15.749  14.332  0.1357  0.1754 -0.2703
14683W        W29814   1.143   8.518  10.695 -0.0492  0.0825 -0.2034
14684W        W29815   1.657  14.064   0.032  0.0501 -0.0386  0.1244
14685W        W29816   0.917   3.126   1.739  0.1332 -0.0094  0.3699
14686W        W29817   1.265  12.245   2.340  0.0034 -0.0073  0.2153
14687W        W29818   8.581  13.649  15.261  0.0855 -0.1005  0.2298
14688W        W29819   3.644   5.643   4.226  0.4351 -0.0434  0.1323
14689W        W29820   0.729  11.568   0.607  0.2006  0.2490 -0.3918
14690W        W29821   2.797  12.513  10.864  0.0864  0.0075  0.0954
14691W        W29822   8.768   1.900   1.458 -0.1084 -0.1473 -0.2075
14692W        W29823   9.940  16.137  11.649 -0.0817 -0.2497  0.0731
14693W        W29824  13.602  17.699  14.074  0.1395  0.2240  0.2151
14694W        W29825   0.091  17.150  10.935 -0.0756 -0.0223  0.0278
14695W        W29826  14.514   9.926  10.409  0.0275 -0.1147 -0.3316
14696W        W29827  13.956   0.947  15.161  0.2188 -0.0001 -0.1559
14697W        W29828   6.297  16.284  12.720  0.0657 -0.1720 -0.1328
14698W        W29829   9.130   9.039   1.374 -0.3706  0.0300  0.0093
14699W        W29830  15.251  16.865  14.381  0.2270  0.1419 -0.2612
14700W        W29831   9.238  14.419  14.489  0.0799  0.0210  0.1209
14701W        W29832   2.529   7.223  13.297 -0.2580 -0.0683 -0.0296
14702W        W29833  16.264  16.765   1.526  0.3916  0.1043 -0.1567
14703W        W29834   8.316  13.102  12.874 -0.0554  0.0688 -0.0175
14704W        W29835  10.684   5.292   2.693  0.3780  0.0096 -0.1731
14705W        W29836  15.483   2.145  13.783  0.2826 -0.2673 -0.0619
14706W        W29837   9.718  13.909  11.738  0.1249 -0.1823 -0.2261
14707W        W29838   0.024  10.539  11.239 -0.1033  0.0051  0.1988
14708W        W29839  15.305  15.629   1.410  0.2520  0.1767 -0.2650
14709W        W29840  15.121  13.344   2.708 -0.1649 -0.5227  0.1548
14710W        W29841   4.031   3.891  12.849 -0.1708 -0.3608 -0.2044
14711W        W29842  10.923  16.485   0.092 -0.0053  0.2260 -0.0261
14712W        W29843   2.702   1.035  13.325  0.1441 -0.3338 -0.0045
14713W        W29844  17.571  11.043   2.796  0.0726 -0.0253 -0.1006
14714W        W29845  10.602   6.386  13.417  0.2999  0.2440 -0.1170
14715W        W29846   3.650  10.986   5.468 -0.0084 -0.0142  0.0310
14716W        W29847   5.017  13.767   3.489 -0.2739  0.1530 -0.2331
14717W        W29848  18.147  11.852   4.144  0.1786 -0.0066 -0.1544
14718W        W29849  12.087  11.879  13.992  0.1711 -0.2989 -0.3987
14719W        W29850   3.507  15.851  12.669  0.0413 -0.0201  0.0401
14720W        W29851   4.115   6.207   1.112  0.1215 -0.0411  0.2380
14721W        W29852   2.826   6.994  14.285  0.4199 -0.1592 -0.2789
14722W        W29853  18.116  16.206  14.606 -0.2338 -0.0876  0.0605
14723W        W29854  15.734   9.758  12.869 -0.2787  0.1819  0.2612
14724W        W29855  17.826   0.801  11.860  0.3291  0.1097 -0.0672
14725W        W29856   3.264   0.317   4.224  0.0902  0.3002  0.2252
14726W        W29857  14.815   3.195   5.265 -0.1910  0.0672  0.1548
14727W        W29858   8.953  16.486  16.117  0.0176  0.2808 -0.0854
14728W        W29859   7.593   1.469  11.360  0.0025  0.0435 -0.0240
14729W        W29860   5.094   1.565  15.312  0.1957  0.0155 -0.0380
14730W        W29861  10.429   7.434  14.482  0.0175 -0.0822 -0.1755
14731W        W29862  16.107  12.073   5.136  0.0043 -0.1385  0.4086
14732W        W29863   8.518   7.148  10.922  0.1305  0.3453 -0.0623
14733W        W29864   4.552  11.725  14.425 -0.0736 -0.0711 -0.0465
14734W        W29865  15.824   3.634  15.778 -0.0161  0.3747  0.0008
14735W        W29866   9.172   0.737  10.964 -0.1384  0.0859 -0.0735
14736W        W29867   2.613   1.523   5.649  0.2107  0.0075 -0.0196
14737W        W29868   4.510   6.364  12.102  0.0566  0.3749 -0.1463
14738W        W29869   9.276  13.786   2.246  0.1543 -0.3050  0.1143
14739W        W29870   5.390  12.696  15.977  0.2456 -0.2550  0.0688
14740W        W29871  16.189  10.233   2.214  0.0167  0.0494 -0.2397
14741W        W29872  13.730   4.189   0.274  0.4943  0.3782  0.3102
14742W        W29873   3.280  10.669   4.220 -0.4036 -0.0749 -0.0118
14743W        W29874  16.033   1.601  13.001 -0.0327  0.1704  0.0401
14744W        W29875   8.023   4.078   1.586  0.0006 -0.0857  0.0301
14745W        W29876   6.311   4.497  12.267  0.0395  0.1429 -0.0354
14746W        W29877  15.113  15.720   3.060  0.2219 -0.0778 -0.2855
14747W        W29878   5.476  15.866   1.804 -0.0937 -0.2195  0.1414
14748W        W29879   6.872   8.318   2.524 -0.0630 -0.0417  0.4113
14749W        W29880   1.880   6.540  14.174 -0.0881  0.1878 -0.2398
14750W        W29881  17.456  12.096   4.889 -0.0801  0.0037 -0.2683
14751W        W29882   3.793   1.798  13.458 -0.0360 -0.2877  0.0014
14752W        W29883   4.437  10.788   2.385 -0.0108  0.2402 -0.0145
14753W        W29884  17.552  10.630   3.321  0.2988  0.0149 -0.1065
14754W        W29885  15.759  12.405  14.133  0.2843 -0.0326 -0.0319
14755W        W29886   4.815  16.285   3.576 -0.0756  0.0408 -0.1067
14756W        W29887   6.545   4.152   2.973  0.1709  0.1132  0.0666
14757W        W29888  10.932  16.618   3.151 -0.1956 -0.1274  0.1208
14758W        W29889  15.352   6.742   4.584  0.0066 -0.0972  0.4347
14759W        W29890  12.802   9.232  12.544  0.0191  0.0642 -0.3337
14760W        W29891   4.594   1.719  15.176  0.1279 -0.1146 -0.1632
14761W        W29892   8.759  11.810   3.421 -0.0058  0.1103 -0.2083
14762W        W29893   7.393  15.053  14.883 -0.0874 -0.1445 -0.0626
14763W        W29894  16.284  14.975  11.364  0.0203  0.0996  0.0314
14764W        W29895   5.863  13.203   3.039  0.3122 -0.4575  0.0630
14765W        W29896   1.151  18.297   1.603 -0.1620 -0.0162 -0.1403
14766W        W29897   7.207   6.573  15.569  0.3130  0.1196  0.0852
14767W        W29898  11.171   2.471  11.136 -0.3394 -0.0317 -0.2965
14768W        W29899  11.073   9.515  12.567  0.0610 -0.1707 -0.0646
14769W        W29900  11.219  17.629   5.400  0.5326 -0.0433  0.0763
14770W        W29901  15.332  16.775   5.186 -0.2300 -0.0395  0.0489
14771W        W29902  12.410   8.785   2.799  0.2260 -0.3905  0.0301
14772W        W29903   2.951  16.649  15.615  0.2761  0.0591 -0.2139
14773W        W29904  12.170   2.480  15.766 -0.1136 -0.0063  0.1644
14774W        W29905   9.669   5.097  14.028  0.0347  0.1081  0.0846
14775W        W29906   2.575   5.679   1.956  0.2277  0.1881 -0.1970
14776W        W29907   6.112   0.899  14.648  0.0953  0.3823  0.1940
14777W        W29908  16.811   7.680   1.246 -0.0441  0.3382 -0.0805
14778W        W29909   5.245   3.351   1.833  0.3191  0.1052  0.2364
14779W        W29910  10.907   8.191  16.099 -0.2308 -0.0684  0.0890
14780W        W29911   3.745   7.040   4.581 -0.0513  0.0009  0.2540
14781W        W29912  17.428  11.960   2.395 -0.1337 -0.0752 -0.1636
14782W        W29913   2.686  11.667  11.359 -0.1789 -0.0846  0.5067
14783W        W29914   5.989   0.470   3.275 -0.4133  0.0700 -0.1369
14784W        W29915  13.423   3.565  15.236 -0.0090  0.1188  0.1180
14785W        W29916   6.765  11.253  12.170 -0.0237 -0.0182  0.0738
14786W        W29917   2.990   8.375  15.634  0.0246  0.0412 -0.1481
14787W        W29918  15.172   0.253  12.157 -0.0101 -0.1703 -0.3992
14788W        W29919  16.227  11.261   3.988  0.0461 -0.1327 -0.1841
14789W        W29920  17.191   0.416  14.206 -0.1565  0.1829 -0.1152
14790W        W29921  17.929   1.555  10.899  0.0650  0.0301 -0.0336
14791W        W29922  17.600   4.868   3.582 -0.0449 -0.0713 -0.2197
14792W        W29923   7.555   8.882  12.716 -0.5428  0.2389  0.1959
14793W        W29924  12.850  12.517  15.062  0.0760  0.1324  0.0699
14794W        W29925   0.891   4.164   3.142 -0.2085 -0.0375  0.3320
14795W        W29926   6.083  12.801   5.030  0.3365  0.1578 -0.1425
14796W        W29927  11.284  15.825   3.185  0.1404 -0.2091 -0.2321
14797W        W29928  14.074  10.639  14.928  0.3748 -0.3558  0.0498
14798W        W29929   2.212  15.526   1.548  0.2047  0.0885  0.0357
14799W        W29930   3.099   1.211   1.834  0.0343  0.3979  0.1825
14800W        W29931  18.236   7.254  12.617  0.1439 -0.0974  0.1214
14801W        W29932  14.730   0.231  11.916 -0.0572 -0.0517  0.0461
14802W        W29933   5.911   6.240  12.776 -0.0747  0.1774  0.3114
14803W        W29934  11.635  13.463  12.119 -0.0514 -0.3285 -0.0033
14804W        W29935  12.643  13.753  15.595 -0.0165 -0.1810  0.2726
14805W        W29936  15.785   3.253  13.151 -0.0335  0.0163 -0.0609
14806W        W29937   4.011   7.558   4.556  0.2473  0.2495  0.0536
14807W        W29938   7.479   6.751  10.954  0.2334 -0.0688 -0.1527
14808W        W29939  16.876   2.101  15.811 -0.2630 -0.4791  0.0283
14809W        W29940   8.457  18.029  13.669 -0.0135 -0.2478 -0.1477
14810W        W29941   3.167  16.918  14.000 -0.2425  0.1199  0.1623
14811W        W29942   3.739   6.419  12.660  0.0814  0.1575 -0.0759
14812W        W29943  11.723   5.166   4.422  0.2133  0.1099 -0.2544
14813W        W29944   4.484   9.912   3.779 -0.0751 -0.0645  0.4192
14814W        W29945  13.006  10.621   2.295 -0.1198 -0.1357  0.2408
14815W        W29946   9.553   6.264  14.296 -0.0624  0.1510  0.0751
14816W        W29947  16.992  11.062   2.638 -0.2993  0.0117 -0.0709
14817W        W29948  15.442  11.061   3.634 -0.0883  0.0891 -0.3254
14818W        W29949   0.890  13.156  11.686  0.2178 -0.1279 -0.0301
14819W        W29950  12.456  18.139  15.814  0.0975  0.2819 -0.0995
14820W        W29951   0.279  11.525  11.616 -0.3414  0.2218 -0.0577
14821W        W29952   1.791   0.084   1.185 -0.1464  0.1258  0.0985
14822W        W29953   3.807   0.094   5.083 -0.0204 -0.2426 -0.4506
14823W        W29954   1.882   5.249  13.575  0.1054  0.0036 -0.2258
14824W        W29955  17.842   8.460  13.031 -0.1574 -0.2592  0.1000
14825W        W29956  11.224   8.275  13.765 -0.0401  0.5442  0.1547
14826W        W29957   7.533  16.288  11.041 -0.1258 -0.1382 -0.4239
14827W        W29958  17.416   8.912  12.730 -0.2375  0.1167  0.0568
14828W        W29959   5.918  11.998   1.051 -0.1855 -0.1150 -0.0499
14829W        W29960  13.189  11.164   4.237 -0.1828  0.0924  0.1238
14830W        W29961  10.170   6.460   3.757  0.3587  0.2168 -0.0314
14831W        W29962   1.255   1.334   1.684 -0.0514  0.0905 -0.0980
14832W        W29963   5.912   8.742  12.997 -0.2261 -0.0987 -0.2525
14833W        W29964   1.617  14.705   2.296  0.0887  0.2810 -0.0410
14834W        W29965   8.212  13.578  13.735  0.3536 -0.3604 -0.0057
14835W        W29966   5.221  17.463   6.404 -0.0628 -0.0327  0.1854
14836W        W29967  17.042   1.601  10.801  0.5404  0.1851 -0.1028
14837W        W29968   2.530   4.076  14.982  0.2139  0.2207  0.1773
14838W        W29969  11.660   0.562   0.602 -0.3168 -0.0104  0.1835
14839W        W29970   1.821   6.517   3.957 -0.2519  0.0353  0.0591
14840W        W29971  14.664   7.034   3.331  0.0781  0.0792  0.0652
14841W        W29972  10.787   2.042  14.662 -0.0025 -0.5279  0.0949
14842W        W29973   0.089  15.520  13.076 -0.1507  0.0281  0.0421
14843W        W29974  10.358  13.718   3.109  0.0815 -0.2043 -0.2588
14844W        W29975   3.063   6.859  16.103  0.0216 -0.0448 -0.0619
14845W        W29976   9.013  17.031  15.378  0.1364 -0.1201 -0.1181
14846W        W29977   8.599  17.971   5.547  0.3139 -0.6591 -0.4660
14847W        W29978  14.886   6.710   4.277 -0.1516  0.4073 -0.0255
14848W        W29979   5.023  12.864  11.245  0.1037  0.1294  0.2583
14849W        W29980   4.571  10.787  14.048  0.0355 -0.5199  0.2780
14850W        W29981  13.340   8.564   2.430  0.0979 -0.2054 -0.0258
14851W        W29982   0.225  16.863  14.809  0.0741 -0.1316  0.2112
14852W        W29983   1.852  10.423   3.953 -0.2344 -0.6523 -0.0248
14853W        W29984  14.345  14.963  14.623 -0.2216 -0.3151  0.0852
14854W        W29985   2.843  16.675   4.862 -0.0774 -0.0802 -0.0408
14855W        W29986  15.630  14.687  16.124 -0.0536 -0.1751 -0.0300
14856W        W29987  11.269  16.654   3.511 -0.3949 -0.2899  0.1978
14857W        W29988   1.646  18.332   2.592 -0.0928 -0.0138 -0.0045
14858W        W29989   4.267   9.049   3.695  0.0009 -0.0287  0.0882
14859W        W29990  18.050  14.327   3.387 -0.1303 -0.3427 -0.1155
14860W        W29991   9.072  13.626  10.340 -0.1503 -0.2027  0.1369
14861W        W29992  16.399   1.106   2.349  0.4556 -0.3132  0.2120
14862W        W29993  10.134  16.500   4.889 -0.1777  0.2407  0.1260
14863W        W29994   2.281   6.390  13.895 -0.1743  0.1740  0.0859
14864W        W29995  15.265   4.799   1.155  0.0479 -0.0434  0.0925
14865W        W29996  15.232  18.031  13.362  0.6320 -0.1460  0.0867
14866W        W29997  17.195   8.178  10.597  0.0208 -0.3727 -0.2440
14867W        W29998  10.306   6.989   3.068 -0.1671 -0.1455 -0.1434
14868W        W29999   4.718   4.992  11.767  0.1008 -0.0993  0.0640
14869W        W30000  16.290   4.895  13.999  0.5403  0.2625  0.1080
14870W        W30001  17.414  16.476  12.008 -0.1894 -0.1585  0.0967
14871W        W30002   3.580   9.264  12.237 -0.3595 -0.1801  0.1287
14872W        W30003  18.239   7.024  11.094  0.0982 -0.3378  0.0286
14873W        W30004  11.856   1.640   5.994  0.1813  0.4655  0.1274
14874W        W30005  15.631  12.850   2.285 -0.1268 -0.1813  0.0735
14875W        W30006   6.870  16.166   3.287  0.1919  0.2829  0.0236
14876W        W30007   4.400  13.450  13.704  0.1051 -0.1393  0.1857
14877W        W30008   1.707   5.639   0.595 -0.0682  0.1096 -0.2681
14878W        W30009   2.059  15.340  13.808 -0.3561 -0.1422 -0.2592
14879W        W30010   5.306   3.574  12.688 -0.1892  0.0664  0.0124
14880W        W30011  17.621   9.408  13.827 -0.0152 -0.0450 -0.0600
14881W        W30012  11.032  10.217  13.867 -0.0806 -0.0661  0.4247
14882W        W30013   2.032  14.051   2.635 -0.0068 -0.3043  0.1628
14883W        W30014   4.616   6.960  13.945  0.1715  0.0733  0.0573
14884W        W30015   1.578   8.036  14.193  0.1043  0.0955  0.2754
14885W        W30016   9.905   0.903   1.763  0.1846  0.1714  0.1643
14886W        W30017  13.796  12.176  12.991  0.0343  0.0455 -0.3799
14887W        W30018   8.444   7.932  12.241  0.0476 -0.0264  0.0979
14888W        W30019   6.472  16.381   3.917  0.0601 -0.0357  0.0500
14889W        W30020  14.095  17.384   3.398 -0.0703  0.1217  0.0651
14890W        W30021   1.518  14.243   5.421  0.3715  0.1847 -0.0175
14891W        W30022   1.155   5.786  11.271 -0.0126  0.0945  0.0183
14892W        W30023  13.498   0.378  11.181  0.0499  0.0723 -0.1142
14893W        W30024   0.362   2.180  11.034  0.1176  0.1277 -0.1308
14894W        W30025   0.279  13.411  13.118 -0.1095 -0.1921  0.2475
14895W        W30026   7.342  16.108   2.385 -0.0650  0.2586 -0.2790
14896W        W30027   7.981   5.833  14.391 -0.1441  0.0943  0.0398
14897W        W30028  13.947   0.579   2.083  0.2526  0.2316 -0.1606
14898W        W30029   5.308  15.742  14.797  0.2420  0.1366 -0.0218
14899W        W30030  15.998  16.676  14.988  0.0096  0.1133  0.2959
14900W        W30031   6.111   1.493  14.127  0.0494 -0.1121 -0.0640
14901W        W30032   5.688  16.043   4.898  0.2677 -0.1357  0.4010
14902W        W30033   8.027   6.463   0.360 -0.3757  0.1428  0.1483
14903W        W30034  12.345   3.304  12.058 -0.1467 -0.1352  0.5158
14904W        W30035  10.897   7.798  15.058 -0.1106 -0.4452  0.0542
14905W        W30036  11.273   6.684  15.837  0.0831  0.3790 -0.2599
14906W        W30037   2.757   7.000   1.694 -0.2062  0.2009 -0.0168
14907W        W30038  12.513  14.687  15.823  0.0835  0.0515 -0.3653
14908W        W30039   4.905  17.455   1.248 -0.1023 -0.0825  0.1777
14909W        W30040  16.535   5.335  12.270  0.0957 -0.2363 -0.0127
14910W        W30041  10.039  11.150   2.480  0.4399 -0.0488  0.2046
14911W        W30042  14.231  12.303   0.164 -0.1497 -0.1159  0.0596
14912W        W30043  15.041   9.801  10.428  0.0006  0.1739 -0.0072
14913W        W30044   3.671   1.573  13.919 -0.0324 -0.1945 -0.2904
14914W        W30045   7.222   5.317  16.047 -0.3121  0.0767  0.0139
14915W        W30046   9.425   8.749  13.891 -0.2303 -0.1179 -0.1005
14916W        W30047  10.187   6.149   5.601  0.3137  0.1071 -0.0681
14917W        W30048   1.127   6.661  11.127 -0.0220 -0.0241 -0.1752
14918W        W30049  16.321  12.215  12.748 -0.1452  0.1976 -0.0882
14919W        W30050  16.364   9.603   0.468  0.3481 -0.1488 -0.1586
14920W        W30051  10.728   3.119   3.862 -0.0910  0.1257  0.1449
14921W        W30052   9.373   2.117  14.630  0.1909  0.1221 -0.0714
14922W        W30053  10.281  10.782  15.480 -0.0213  0.1670 -0.0111
14923W        W30054  14.382   3.461  11.950  0.0589 -0.3187  0.0029
14924W        W30055  16.179   9.174   4.164  0.0080 -0.0127  0.0975
14925W        W30056  11.754  17.839  11.518 -0.1024 -0.2092 -0.1472
14926W        W30057   6.005   7.248   0.346 -0.2167 -0.0355  0.2550
14927W        W30058  16.049  13.635  12.227  0.0099 -0.1021  0.0164
14928W        W30059  18.077  12.525   0.684  0.1471  0.2784 -0.1803
14929W        W30060   3.118   1.888  12.458  0.2672  0.0574 -0.2322
14930W        W30061   1.293   4.868   6.552  0.1377  0.0071  0.1719
14931W        W30062   4.794   6.824  12.141  0.0542 -0.0607  0.0676
14932W        W30063   1.940  18.242  10.866 -0.0165  0.0434 -0.0235
14933W        W30064   0.762   9.688   0.647  0.0591 -0.3436 -0.3624
14934W        W30065   0.917  16.881  10.339  0.1617 -0.3304 -0.2872
14935W        W30066  13.887  12.308  14.207  0.1796  0.0112 -0.0415
14936W        W30067  14.963  17.488  11.362  0.0962  0.4329  0.0695
14937W        W30068  17.190   7.854  14.014  0.1086 -0.0801  0.0261
14938W        W30069   4.730   9.252   9.634  0.1141 -0.3506 -0.0084
14939W        W30070  16.201  11.099   0.099 -0.2143 -0.2503  0.0225
14940W        W30071   2.729  14.664   4.079 -0.0781  0.0848 -0.1231
14941W        W30072  12.574  17.554  10.895 -0.1359 -0.1926 -0.0479
14942W        W30073  12.091   7.139  12.000 -0.0316  0.4418 -0.2682
14943W        W30074  11.954  14.338  10.985 -0.2355 -0.3763  0.0568
14944W        W30075   6.892   7.669  15.862 -0.0784 -0.0427  0.2349
14945W        W30076   1.325  11.275  12.747 -0.1244 -0.0267 -0.1179
14946W        W30077   2.211   3.239   2.899 -0.3422  0.1517  0.0761
14947W        W30078  15.214   8.870   0.131 -0.0704  0.3142  0.0182
14948W        W30079   4.913   4.589   2.294 -0.1303  0.0716 -0.0330
14949W        W30080   5.717   7.667   2.777 -0.2145 -0.0916 -0.2551
14950W        W30081  12.237  18.093   0.473  0.0173 -0.0427  0.2988
14951W        W30082  17.017   2.021   5.743 -0.2367 -0.1210  0.0194
14952W        W30083   1.400   4.273   0.336  0.1377 -0.0336  0.1217
14953W        W30084  14.132  13.637  14.646 -0.2609  0.0763  0.1691
14954W        W30085  14.345   1.475   0.891  0.2661  0.3105 -0.3900
14955W        W30086   7.253  10.757   4.301 -0.1722  0.1958  0.0317
14956W        W30087   8.282  14.057   0.745 -0.2731  0.1709 -0.1462
14957W        W30088   4.537  16.164  13.010  0.2646  0.0404  0.1496
14958W        W30089   0.148  13.581  11.801  0.0602 -0.2258 -0.1413
14959W        W30090   4.251  14.041   1.853  0.1684  0.3058  0.2444
14960W        W30091   3.869  10.955  15.340  0.1898  0.2200  0.4058
14961W        W30092  16.691   4.414   2.012  0.0623 -0.0663 -0.1094
14962W        W30093   5.680   3.044   1.951  0.0412 -0.1449 -0.0624
14963W        W30094  15.625   9.915   0.445 -0.1596  0.1949 -0.3764
14964W        W30095  11.144  10.513  12.928  0.0598  0.0606  0.1363
14965W        W30096  12.959   6.075  15.767 -0.2286  0.1175  0.2358
14966W        W30097   0.914   3.665  13.454 -0.0429  0.0190 -0.0573
14967W        W30098   4.740  16.785   3.587 -0.0062  0.0951 -0.0510
14968W        W30099  11.837   7.232  13.560 -0.0772 -0.0630  0.2040
14969W        W30100   0.040   2.067   1.240  0.0248 -0.0277 -0.0023
14970W        W30101  13.583  11.577  12.285  0.1887  0.2239  0.2686
14971W        W30102  11.542   3.230  12.918 -0.0429 -0.0929 -0.3144
14972W        W30103   8.443  15.095   0.588  0.0900  0.3087 -0.1386
14973W        W30104  16.635   5.358  11.084  0.1439  0.2163 -0.1529
14974W        W30105   0.482   3.835   1.229 -0.1416 -0.2241  0.1233
14975W        W30106  11.728  17.293   0.919  0.1055 -0.4200  0.1123
14976W        W30107   6.662  17.031  11.563  0.0368 -0.0615  0.1568
14977W        W30108   2.035   8.229   3.724  0.0463  0.3387  0.1820
14978W        W30109   2.340  15.835   1.919  0.1837  0.5368  0.1063
14979W        W30110  17.138  16.183   5.351  0.1295  0.0466  0.1335
14980W        W30111   9.768  16.601  14.019 -0.0762  0.0526 -0.1239
14981W        W30112  10.923  18.122  10.207 -0.3061  0.3167  0.0767
14982W        W30113  13.007  10.524   5.545 -0.1967  0.0468 -0.0922
14983W        W30114  16.259  15.314  12.643 -0.1899  0.0589 -0.0899
14984W        W30115   6.286   6.493  11.986 -0.2088 -0.3704 -0.0308
14985W        W30116  15.594  10.765  13.153 -0.5386  0.2655  0.4881
14986W        W30117   3.801   5.769   3.706 -0.0032  0.0382 -0.4097
14987W        W30118  14.585  11.282  15.297  0.0199  0.1554 -0.1061
14988W        W30119  17.235  10.531   2.313  0.0555  0.3257  0.0989
14989W        W30120   0.798  14.672   4.344  0.2338 -0.3285 -0.1128
14990W        W30121  10.780  11.990   3.557 -0.3062  0.0663  0.0355
14991W        W30122   9.455   4.540  13.707 -0.2345  0.0759 -0.0699
14992W        W30123  10.122  14.735  13.233 -0.1907 -0.1631 -0.0797
14993W        W30124  14.706  10.407   1.925 -0.2750 -0.0576 -0.0373
14994W        W30125   6.472   3.192   0.140  0.0284 -0.1472 -0.2220
14995W        W30126  17.319   5.641  12.793 -0.1714  0.0976 -0.0531
14996W        W30127   0.036   7.241   9.550 -0.1427 -0.3091  0.0059
14997W        W30128   3.105   6.210   0.675 -0.0078  0.0159  0.2866
14998W        W30129   0.245   9.817   1.881  0.1981  0.1647 -0.1229
14999W        W30130  17.599  16.578   4.759  0.0550  0.0306  0.0513
15000W        W30131  18.272   3.810   4.552 -0.1316 -0.0439  0.6864
15001W        W30132   4.691   8.441  12.907 -0.1894 -0.1294  0.0577
15002W        W30133   0.730   3.070   0.897 -0.1017 -0.0316  0.0642
15003W        W30134  18.360   3.615   1.710  0.0403 -0.0796 -0.0041
15004W        W30135   5.711   0.792  13.458  0.3193  0.0932  0.0180
15005W        W30136  12.392  17.325   2.995 -0.2389 -0.0765  0.0724
15006W        W30137   9.311  12.563   9.547 -0.1520  0.1006 -0.1007
15007W        W30138   7.703  14.599  15.666  0.0347 -0.0685  0.3812
15008W        W30139   5.518   3.526   2.629 -0.0807  0.1415  0.0158
15009W        W30140  14.614  16.303   2.388 -0.0138  0.0111  0.0286
15010W        W30141   8.388   5.852   2.084  0.0728 -0.0667  0.0787
15011W        W30142   3.083   1.437  12.696 -0.0380 -0.0449 -0.1638
15012W        W30143   8.124   5.258   3.194  0.2633 -0.0738 -0.1160
15013W        W30144   3.407   9.435  12.773 -0.1203  0.0333 -0.1037
15014W        W30145   2.533  15.372  12.905  0.0718  0.0306  0.1916
15015W        W30146   9.621  17.244  13.424  0.1072 -0.0123 -0.3976
15016W        W30147  15.029   2.447   2.398  0.1308  0.0505 -0.2464
15017W        W30148   8.180   9.145  11.888 -0.1133 -0.0796 -0.1385
15018W        W30149   6.428  12.507  14.579  0.0221  0.1561  0.1590
15019W        W30150   4.372   5.393   1.719  0.0519  0.2275 -0.1831
15020W        W30151  13.141  14.748   2.813  0.0145  0.3792 -0.0288
15021W        W30152   7.034   6.243  11.905 -0.0657 -0.1489 -0.0080
15022W        W30153   0.414   2.811   4.306 -0.1312 -0.0596 -0.0933
15023W        W30154   2.123   6.495   3.587 -0.2334 -0.1121 -0.0820
15024W        W30155  12.047   8.363   1.185  0.0974  0.1452 -0.3712
15025W        W30156  17.944  17.520   6.013  0.1227 -0.0580  0.0832
15026W        W30157   4.602   0.501   3.959 -0.0663  0.1519  0.2168
15027W        W30158  12.586  10.432   5.362  0.2676 -0.0574 -0.2849
15028W        W30159   0.226  14.553   2.086  0.0651  0.0845 -0.0286
15029W        W30160  17.477  18.276  14.415 -0.1831 -0.3445  0.1655
15030W        W30161  10.664   2.180   5.861 -0.1076 -0.2807  0.0421
15031W        W30162   5.811   8.872   5.231 -0.3130 -0.0147 -0.1044
15032W        W30163   5.338   3.476  15.512  0.1169 -0.0134 -0.1513
15033W        W30164  14.816  14.121  11.574 -0.1300 -0.1526 -0.1169
15034W        W30165  13.015   2.501  10.960 -0.0325  0.0544 -0.0965
15035W        W30166   1.309  14.960   0.740 -0.0287  0.4547 -0.0199
15036W        W30167   3.240   4.348  13.601  0.1131 -0.0085  0.1241
15037W        W30168   3.580  10.527  14.605 -0.2584 -0.1460 -0.2281
15038W        W30169   5.624   7.049  15.031 -0.1954 -0.0456  0.1535
15039W        W30170   0.196   2.260   1.893 -0.2902  0.0768  0.1213
15040W        W30171   7.966   0.625  12.881  0.1202 -0.1579 -0.2816
15041W        W30172   3.128  13.286  12.663  0.3481 -0.0030  0.0816
15042W        W30173   0.122   8.130  14.606  0.1841  0.1555 -0.0329
15043W        W30174   3.789  16.723  11.386 -0.0133 -0.1796  0.3196
15044W        W30175  11.269  11.935   3.388 -0.0223 -0.2618 -0.3520
15045W        W30176  10.426   4.949   1.656 -0.3883 -0.1895  0.0311
15046W        W30177   4.563   9.782  10.905  0.0292  0.0174  0.0969
15047W        W30178  14.137   7.849   1.385  0.1528  0.2417  0.3705
15048W        W30179  12.832   7.814   5.266 -0.0772 -0.1652  0.1753
15049W        W30180   1.022   7.600   1.650 -0.0520  0.0026 -0.1468
15050W        W30181  10.085   8.038  15.093 -0.1564 -0.1016  0.1530
15051W        W30182  17.390  13.968   4.879  0.0058  0.0772 -0.0886
15052W        W30183  16.875   8.651   1.629  0.2100 -0.0758 -0.1055
15053W        W30184   4.601  16.095   2.829  0.1627  0.1539 -0.0267
15054W        W30185  13.788   1.655  14.484 -0.1786 -0.3387 -0.1430
15055W        W30186  13.426   1.486  11.999 -0.4505 -0.0632 -0.0076
15056W        W30187  13.000   2.998  10.848 -0.0674 -0.0779  0.1917
15057W        W30188  13.378  16.135  15.684  0.3098  0.4182 -0.0305
15058W        W30189  13.900   4.626  15.506 -0.0892 -0.0671 -0.0296
15059W        W30190  14.833   0.018   3.583  0.0696 -0.0305 -0.2063
15060W        W30191   2.588  17.063   1.831 -0.0335  0.1112  0.2085
15061W        W30192  11.029  13.609  14.394 -0.0873  0.1869 -0.0659
15062W        W30193  18.302  14.681   1.175 -0.2318  0.0383 -0.2350
15063W        W30194   3.648   1.929  12.494 -0.2273  0.3061 -0.4153
15064W        W30195  11.461  13.454   0.863  0.0123  0.0900  0.0068
15065W        W30196   5.794  13.898  12.452  0.0507  0.3003 -0.0472
15066W        W30197  11.479  12.333   2.244  0.1058 -0.1387 -0.1447
15067W        W30198   3.328  12.412   1.368 -0.2142  0.1364  0.4389
15068W        W30199   8.936   0.789   0.108  0.1752  0.1407 -0.0410
15069W        W30200  14.118  12.806  11.450  0.2470  0.0959  0.1351
15070W        W30201   4.479  11.926  11.985  0.1118  0.0391 -0.0922
15071W        W30202  17.255   8.842   2.902  0.1482  0.0620  0.1945
15072W        W30203  14.246   9.840  14.124  0.0836 -0.1606 -0.3455
15073W        W30204  15.588  14.439  12.049 -0.1521  0.2420  0.2190
15074W        W30205  17.843  16.941   2.594  0.2874  0.1180 -0.0505
15075W        W30206  13.965   2.761   0.087 -0.2261 -0.2609 -0.0005
15076W        W30207   7.849   3.916   2.922  0.1175 -0.1799 -0.5541
15077W        W30208   3.718   9.685  15.904  0.1565  0.1187 -0.0730
15078W        W30209   0.106  14.394  11.487  0.2778  0.0084  0.3582
15079W        W30210   5.286  17.225   5.281  0.2014 -0.1832 -0.2311
15080W        W30211   6.067  15.973  15.268  0.2377  0.1013  0.0357
15081W        W30212  14.125   6.421  12.750 -0.0119  0.0135  0.2830
15082W        W30213   1.100  10.311   1.419  0.3806  0.2111 -0.2279
15083W        W30214   8.073  13.844   1.163  0.2938 -0.2521  0.2442
15084W        W30215  15.829   7.797   1.751  0.1494 -0.1200 -0.0984
15085W        W30216   7.233   6.655  12.922  0.2392  0.1496 -0.0353
15086W        W30217  15.082   7.891   3.593 -0.4056  0.1924 -0.0516
15087W        W30218  15.961  17.362   0.184 -0.1194 -0.0416 -0.0250
15088W        W30219   5.594  16.761   1.347  0.1569  0.0109  0.2071
15089W        W30220  15.067  12.713   0.567 -0.4356 -0.4210  0.4136
15090W        W30221   6.792   3.536   2.312  0.4569 -0.0205 -0.3459
15091W        W30222   9.804   1.286  11.178 -0.2373  0.0225 -0.0231
15092W        W30223   7.764  16.428   2.577 -0.0835 -0.4201  0.0857
15093W        W30224   6.503   7.937   1.452  0.0297 -0.1725  0.0109
15094W        W30225   0.353   0.966  14.339  0.1706  0.1270 -0.1246
15095W        W30226   3.522  16.440  15.558 -0.3020  0.0478 -0.0851
15096W        W30227  17.153   8.538  13.547 -0.0193  0.2145 -0.2427
15097W        W30228  14.581   2.816  13.870  0.1288 -0.1946  0.1361
15098W        W30229   3.190   0.879  10.398 -0.0107  0.0987  0.1949
15099W        W30230   3.153  16.764  12.300  0.2678 -0.0392  0.1284
15100W        W30231  15.170  10.161   1.458  0.0383 -0.3237  0.1667
15101W        W30232   4.835  12.537   5.405 -0.0529  0.0873 -0.2978
15102W        W30233   5.606  15.662   3.692  0.4464  0.0258  0.3178
15103W        W30234   0.913   6.955   5.431  0.1687 -0.1313  0.0196
15104W        W30235  13.907  12.888  14.146  0.1437 -0.0672  0.1694
15105W        W30236   2.841  13.901   1.269 -0.0863  0.0691  0.0068
15106W        W30237   9.410   1.076  14.348 -0.0717  0.3206  0.5416
15107W        W30238  10.369  12.108  12.438  0.3349 -0.0191  0.2705
15108W        W30239  10.235   8.258  14.000  0.0352  0.0483 -0.0227
15109W        W30240  17.957   0.435  12.189  0.2544 -0.2823 -0.0923
15110W        W30241  10.511  14.985  13.001 -0.2616  0.3210  0.0784
15111W        W30242   0.765   1.952  15.399 -0.3421 -0.2158 -0.0343
15112W        W30243  17.171   4.350   5.428 -0.1366 -0.1492 -0.1678
15113W        W30244   3.545  10.276   4.040  0.1998  0.0900 -0.2051
15114W        W30245   3.426   2.743   3.275  0.2553  0.2016 -0.0350
15115W        W30246  17.525   6.200  14.317  0.2082  0.0346 -0.2644
15116W        W30247   0.805   1.091  16.022 -0.1406  0.1561 -0.2967
15117W        W30248  11.143   3.066   4.225 -0.1601 -0.0108 -0.1432
15118W        W30249   5.796   0.407   0.465 -0.0324 -0.2871  0.1532
15119W        W30250   6.598   5.242  11.697 -0.1080  0.1030 -0.0205
15120W        W30251  16.166  12.024   0.874  0.1340 -0.1223 -0.1070
15121W        W30252   6.703  17.032   4.630 -0.1030  0.3666 -0.0595
15122W        W30253   0.567   9.255   0.287 -0.2993 -0.2275 -0.0986
15123W        W30254   2.745  16.342  15.236 -0.0159  0.1448  0.1484
15124W        W30255   7.959  13.855   3.535 -0.1118  0.1912  0.3271
15125W        W30256  15.490   3.891  13.482 -0.1277 -0.0642 -0.2321
15126W        W30257  18.149  17.405  15.854 -0.0384  0.0350 -0.0355
15127W        W30258   9.513  16.356  11.041  0.1077  0.0446 -0.0389
15128W        W30259   6.271   1.388  10.182  0.1478  0.3912  0.0995
15129W        W30260  12.183  16.118  11.439 -0.0747  0.3901 -0.1495
15130W        W30261  12.057  13.032   4.744  0.0068 -0.0738 -0.0052
15131W        W30262   2.294   6.461  14.515 -0.1587  0.2090  0.1300
15132W        W30263  11.852   5.435   5.220 -0.2787 -0.3186  0.4284
15133W        W30264   5.800  15.392   3.160  0.0844 -0.0039  0.4392
15134W        W30265   7.327   3.923  14.938  0.2023  0.0688  0.0855
15135W        W30266  14.363   1.130  15.703  0.0363 -0.1814 -0.0923
15136W        W30267   3.518   9.343   0.559  0.1821 -0.1380  0.0130
15137W        W30268   5.560   2.176   1.548 -0.4565  0.2170 -0.1488
15138W        W30269  12.981   5.819   3.166 -0.0995  0.0702 -0.2707
15139W        W30270  15.508  10.459   3.967  0.1651  0.1330  0.0509
15140W        W30271  15.762  17.068  12.540 -0.0410 -0.0416 -0.0245
15141W        W30272  18.289   0.453  12.932 -0.1229  0.0199  0.1533
15142W        W30273   4.886   1.160   3.315 -0.1036 -0.2732 -0.0413
15143W        W30274   1.210   2.749  13.163  0.0355 -0.1011  0.1065
15144W        W30275   9.566  16.345   2.797  0.2252 -0.0923  0.0363
15145W        W30276  11.369   8.653  10.991 -0.0214  0.3060  0.0112
15146W        W30277   2.082   3.304   5.112 -0.0263  0.2362  0.0318
15147W        W30278  15.990  13.898   0.744 -0.0084 -0.2397 -0.1659
15148W        W30279   1.679  14.750   4.528 -0.2651  0.0708  0.2240
15149W        W30280   5.324   8.573  13.559 -0.0306  0.0115 -0.0997
15150W        W30281  12.984   2.831   2.545  0.1523  0.1715 -0.0016
15151W        W30282   0.957  15.654  11.334 -0.0737  0.0855 -0.0255
15152W        W30283   9.301   0.568  15.255 -0.0843 -0.0265  0.1638
15153W        W30284  15.444  18.304  10.308  0.0363 -0.0109 -0.2674
15154W        W30285  18.200  11.089  13.349 -0.1962  0.0207  0.0051
15155W        W30286   7.702  16.620   3.159  0.2976  0.3292  0.1364
15156W        W30287  14.583   7.661   0.255  0.2417 -0.2052 -0.0328
15157W        W30288  16.853   5.934   2.529  0.1163  0.1641  0.5776
15158W        W30289  12.246   0.214   0.735  0.1208  0.2352  0.1095
15159W        W30290  10.680   9.550   4.152  0.1710  0.2493 -0.1279
15160W        W30291   9.252   5.914   2.317  0.0519 -0.1159  0.3882
15161W        W30292  10.586   9.078  16.040  0.1624 -0.1069  0.0290
15162W        W30293   8.366  17.590  14.094  0.0698  0.0668 -0.1040
15163W        W30294   1.652  11.908   0.685 -0.3235 -0.1308 -0.1715
15164W        W30295  17.170   9.594   5.443 -0.1598 -0.1027  0.2958
15165W        W30296   7.183   3.501   4.150 -0.1406  0.1238 -0.2334
15166W        W30297  16.838  16.507  12.744  0.0500 -0.3874  0.2102
15167W        W30298   3.842  13.030   3.463 -0.0906 -0.2306  0.0436
15168W        W30299   0.687   8.384   0.387  0.0419  0.0947 -0.3058
15169W        W30300   6.393   7.521   5.156 -0.0252 -0.1985  0.1920
15170W        W30301   9.753  17.974  12.139  0.1281  0.0490 -0.2729
15171W        W30302   3.038  15.147  11.668 -0.0680 -0.1709  0.1134
15172W        W30303   5.688   8.910   0.403 -0.0866 -0.0941  0.0142
15173W        W30304  10.181   2.890   4.610 -0.1939 -0.2345  0.3452
15174W        W30305   4.313  12.975  13.841 -0.0882  0.1279  0.0066
15175W        W30306   0.965   1.586   0.724 -0.2143 -0.2936  0.1467
15176W        W30307   3.933  18.259   1.674  0.2566 -0.1611  0.1869
15177W        W30308  18.336   2.998  15.308 -0.1050 -0.1067 -0.3286
15178W        W30309   9.394   8.808  12.096 -0.1613 -0.1676  0.1437
15179W        W30310  12.876  12.977  11.639  0.0897 -0.1075  0.0436
15180W        W30311   8.026   3.732  12.716 -0.2692  0.1573 -0.0850
15181W        W30312   9.989  12.359  14.633 -0.0260  0.0205  0.1600
15182W        W30313  15.923  17.235   4.958  0.3214 -0.1836  0.0276
15183W        W30314  15.696   1.716   5.744 -0.3647 -0.1260  0.0275
15184W        W30315   7.605  12.022  12.828 -0.1221  0.1357  0.0559
15185W        W30316  16.224   7.595  14.902  0.0249  0.0905  0.0855
15186W        W30317   9.685  17.898   1.193  0.0653 -0.3109 -0.1628
15187W        W30318  17.171  16.429  14.499  0.1690  0.0608  0.1269
15188W        W30319   1.804   4.397   2.616  0.2917  0.3339  0.1296
15189W        W30320   8.020  17.704  14.894  0.3410 -0.1205 -0.2242
15190W        W30321  17.838   5.557  14.757  0.1809  0.0027  0.1166
15191W        W30322   8.988  12.001   1.000  0.0321  0.1200  0.0945
15192W        W30323   4.051  11.153  12.530  0.0881 -0.1216  0.1168
15193W        W30324  14.914   4.499  14.391 -0.0206  0.3233  0.2257
15194W        W30325   3.748   2.636   2.441  0.0251 -0.0189  0.0430
15195W        W30326  13.831  13.666   3.997 -0.1888 -0.0397 -0.5662
15196W        W30327  14.529   9.180   2.627  0.2406  0.1525  0.0616
15197W        W30328   9.433   5.617   1.302 -0.0932  0.2370  0.2489
15198W        W30329   8.813  14.960   3.656  0.0721 -0.1386  0.0243
15199W        W30330   5.186   6.439   1.265 -0.0312 -0.0363  0.0314
15200W        W30331   1.586  11.896  15.462  0.0150 -0.2077 -0.1095
15201W        W30332   2.591  16.035   3.001  0.2310 -0.0541 -0.0142
15202W        W30333   7.821   1.498  15.901 -0.0827 -0.1758  0.2310
15203W        W30334  12.508  15.828   5.781  0.0778  0.2439 -0.0167
15204W        W30335  10.658   5.682   4.871 -0.0194  0.0814  0.0366
15205W        W30336  10.377  13.846  11.871 -0.1554  0.0458  0.0394
15206W        W30337  12.540   1.316  11.037  0.0170 -0.0662  0.1594
15207W        W30338   3.504   8.892   1.342 -0.0206  0.0321  0.2574
15208W        W30339   0.746   7.823   0.435  0.0525 -0.1428  0.0150
15209W        W30340  16.120   1.348  12.354 -0.0839 -0.0289 -0.3990
15210W        W30341   4.281   5.173   2.243  0.0245  0.3417  0.2880
15211W        W30342  17.295   4.881  15.505  0.0531  0.0952 -0.2150
15212W        W30343   9.096   7.770   4.482 -0.3334 -0.2630 -0.0674
15213W        W30344   9.768   9.318  11.838  0.1509  0.0197  0.0923
15214W        W30345  10.697  17.826   5.502 -0.0708  0.3375  0.0036
15215W        W30346   6.835  11.055  13.191 -0.1213  0.1408 -0.2100
15216W        W30347   4.163  13.177  10.819 -0.1449  0.1996  0.0920
15217W        W30348   4.970   0.349   1.731  0.3687 -0.1329  0.1321
15218W        W30349   1.526  16.186   3.401 -0.3234  0.2136  0.2152
15219W        W30350   5.474   7.128  13.051  0.1367 -0.0906 -0.5260
15220W        W30351  15.538   9.182   0.447  0.1189  0.2181  0.1547
15221W        W30352  12.880   7.474   4.816 -0.0356 -0.0457  0.0919
15222W        W30353  14.680  11.044   5.577  0.0046  0.2116  0.0491
15223W        W30354   0.193   8.949  11.350 -0.0772 -0.0506 -0.1832
15224W        W30355   9.130  15.708  12.852  0.0544  0.3089  0.0864
15225W        W30356  15.849  14.942   4.961 -0.1167  0.1236 -0.2631
15226W        W30357  14.971   6.666  12.086 -0.2162 -0.4102 -0.1942
15227W        W30358  10.707  14.120  14.236  0.0404  0.2346 -0.1107
15228W        W30359  14.139  13.314  15.087 -0.1836 -0.2996 -0.3264
15229W        W30360  16.248  17.876  12.821 -0.1363 -0.2564  0.0733
15230W        W30361  13.426   0.050   1.305  0.0098 -0.1425 -0.0161
15231W        W30362  13.911   1.022   2.239  0.1332 -0.3594 -0.0616
15232W        W30363  17.861   9.715  14.280  0.0834  0.0548 -0.1711
15233W        W30364  10.195   2.726   1.000 -0.1332  0.3497 -0.1123
15234W        W30365   0.779   8.772  11.865 -0.0130  0.3265  0.2603
15235W        W30366  16.462   3.431  12.473 -0.0769  0.0184 -0.1460
15236W        W30367   7.722  17.060   2.920  0.3056 -0.2604  0.1315
15237W        W30368   9.801  11.466   0.652  0.2085 -0.0198  0.1020
15238W        W30369  15.073   9.406  11.626  0.3344 -0.1949 -0.2274
15239W        W30370  13.883  16.879  13.561 -0.2332  0.1151 -0.0355
15240W        W30371  14.730   8.254   0.125  0.1350 -0.0532 -0.0685
15241W        W30372  14.693   7.198   4.232  0.0891  0.3995 -0.0946
15242W        W30373   2.923   0.396   0.627  0.0258  0.5403  0.1913
15243W        W30374  18.186  15.716  10.391 -0.0196  0.2137  0.0107
15244W        W30375   8.308  17.111   5.950 -0.0669  0.1684  0.1188
15245W        W30376  12.679   6.376   4.059  0.0809  0.0919  0.1313
15246W        W30377   5.983   1.595  13.580  0.1680  0.0030  0.2031
15247W        W30378   1.224   8.958   3.877  0.5411  0.1352  0.0816
15248W        W30379   1.558  17.884  11.937 -0.5433 -0.1220 -0.0739
15249W        W30380  10.426   7.428  12.389  0.0143  0.2116  0.1314
15250W        W30381  12.354  12.291   0.504  0.0267  0.0549  0.3234
15251W        W30382   3.754   2.648   5.430  0.2230 -0.2326 -0.3399
15252W        W30383  12.538  17.122  12.152  0.1514 -0.1863 -0.1319
15253W        W30384  17.814   6.829  10.768  0.2144  0.1646 -0.1698
15254W        W30385   1.270  12.223   0.136 -0.1081  0.0871  0.0952
15255W        W30386   1.028  16.329  12.761 -0.1076  0.1274 -0.0238
15256W        W30387  17.687  15.448   2.665 -0.2783  0.0666  0.2871
15257W        W30388  14.897   7.521  14.123  0.0973  0.2253  0.1717
15258W        W30389  10.614  12.915   3.938  0.2975  0.1144  0.4524
15259W        W30390  17.636  13.244  14.481 -0.1029  0.1719  0.0800
15260W        W30391   6.257  10.218  11.193 -0.0528  0.2238  0.0563
15261W        W30392   9.017   2.916  13.771  0.2463 -0.2822 -0.0391
15262W        W30393  15.555   0.300   3.760  0.0272 -0.2107 -0.2459
15263W        W30394  11.891   5.827   4.021  0.1032  0.2178  0.0799
15264W        W30395  13.462   2.865   1.371 -0.4931  0.2665  0.0826
15265W        W30396   7.965   9.943   1.550  0.1042 -0.0621  0.2135
15266W        W30397   4.758   8.459   5.431 -0.0150 -0.0247  0.1613
15267W        W30398  16.815   9.018   4.967  0.0177  0.1351  0.1418
15268W        W30399  16.331  17.319   3.330 -0.1516 -0.1259  0.1080
15269W        W30400  15.288   0.306   1.837 -0.0184 -0.4054  0.0051
15270W        W30401   2.804  15.914  16.137  0.0798 -0.0523 -0.0823
15271W        W30402  15.826   8.432  12.077 -0.3948  0.0846  0.2061
15272W        W30403   0.936   5.148   2.810  0.1485  0.0732 -0.0696
15273W        W30404  13.662   8.559   1.851  0.0160  0.0995  0.3024
15274W        W30405  11.910   0.005   5.594  0.3249  0.2453 -0.2581
15275W        W30406   3.658  12.907   4.517 -0.4359  0.2938 -0.2834
15276W        W30407  15.388   6.696   1.016 -0.0443  0.2916  0.0934
15277W        W30408   6.727   4.112  11.349  0.0629  0.0040  0.0669
15278W        W30409  16.517   0.069  12.234  0.1380 -0.1156 -0.2648
15279W        W30410  14.923   8.539  12.590  0.3130 -0.0155 -0.2826
15280W        W30411   5.374   7.487  12.715  0.3100  0.0347 -0.2120
15281W        W30412   5.371  12.312   4.170 -0.0165  0.2469 -0.1450
15282W        W30413   5.701   7.503  15.333 -0.1544 -0.3251  0.2660
15283W        W30414  15.981   0.064   6.325  0.2485  0.0291 -0.0482
15284W        W30415   3.950  17.207   3.778 -0.1181  0.0671 -0.1458
15285W        W30416  14.611  10.175   5.570 -0.1311  0.2753  0.0428
15286W        W30417  15.747  13.060  13.736  0.1730 -0.0235 -0.1622
15287W        W30418   0.515   2.695   3.095  0.1018  0.1250 -0.2622
15288W        W30419  13.561   7.753   4.231  0.1901 -0.0612  0.0640
15289W        W30420  16.762   3.731  15.043  0.1072  0.0691  0.0573
15290W        W30421   2.976  10.593  10.807  0.1870  0.0429  0.0334
15291W        W30422  17.693  14.519   1.091 -0.0145 -0.2432  0.0982
15292W        W30423   7.624  14.301   1.891 -0.0349 -0.1392 -0.1828
15293W        W30424   8.134   6.548   0.969  0.1015  0.0208 -0.1077
15294W        W30425   2.314   7.117   2.613  0.1536 -0.0513  0.2194
15295W        W30426   6.589   4.846  12.545 -0.1701  0.1865  0.4450
15296W        W30427  12.665  18.176  13.183  0.1033 -0.4412  0.0173
15297W        W30428  15.344  11.057   0.255  0.0441 -0.2860  0.2080
15298W        W30429   0.074   7.747  14.912  0.0434  0.1305  0.2159
15299W        W30430   7.169   4.371  14.750 -0.1166  0.2362 -0.1715
15300W        W30431  12.686  17.050   5.367  0.1891  0.1974 -0.1981
15301W        W30432  17.217  15.761  11.246 -0.0292 -0.4526  0.1445
15302W        W30433   7.661  12.684  15.544  0.0486  0.3017  0.1083
15303W        W30434   4.205   2.681   3.330 -0.3533 -0.0947 -0.1693
15304W        W30435  17.729  11.423  13.348 -0.4209  0.0522 -0.2107
15305W        W30436  17.943   0.262  11.697 -0.0747 -0.1695 -0.3623
15306W        W30437   5.813   8.520   1.257 -0.1598  0.1525  0.4880
15307W        W30438   8.767   7.263  13.004  0.1524 -0.0609 -0.2759
15308W        W30439   8.915   3.803   3.119 -0.0529  0.0920 -0.3057
15309W        W30440  14.656   4.694   2.608  0.2460 -0.1216  0.2686
15310W        W30441   1.159   9.083  13.072 -0.3627 -0.1580 -0.1691
15311W        W30442  12.249   2.176   2.190  0.1267  0.1763 -0.0063
15312W        W30443  17.642  14.078   3.053 -0.0875 -0.2553 -0.1310
15313W        W30444  15.638   6.237  13.836 -0.0222 -0.2694 -0.0778
15314W        W30445   7.373   2.132   3.897  0.0414  0.0790  0.2086
15315W        W30446  14.307  12.788   0.129  0.2466  0.1142  0.0854
15316W        W30447  11.759   1.683  15.383  0.1879 -0.2062  0.0198
15317W        W30448  10.583   4.841   4.040  0.2824  0.1052  0.0862
15318W        W30449   2.810   8.237  11.757  0.0478  0.1489 -0.1199
15319W        W30450  13.173  12.577   5.844  0.1970  0.1607 -0.1025
15320W        W30451  10.860   0.903   1.800  0.0565  0.3327 -0.0197
15321W        W30452  16.567  17.226   3.796 -0.1200 -0.0743 -0.2013
15322W        W30453  13.146   9.247  16.086  0.6819 -0.3478 -0.2280
15323W        W30454   2.307   2.546  14.610 -0.1551 -0.0486 -0.0814
15324W        W30455   2.910  13.071   1.253  0.0256 -0.2874 -0.0843
15325W        W30456   7.937   4.608  11.584  0.2000 -0.1249  0.4069
15326W        W30457  14.598  16.099  13.893 -0.0434  0.0078 -0.0379
15327W        W30458   4.199  11.458  12.191 -0.0001  0.1320  0.0160
15328W        W30459  13.062  10.124  11.355 -0.0353  0.1443 -0.1229
15329W        W30460  14.844   7.024   2.392 -0.2432 -0.1584 -0.5844
15330W        W30461   3.868  11.552   5.942  0.1057  0.0635  0.1292
15331W        W30462  13.680   7.135   2.767  0.0141 -0.1102  0.0772
15332W        W30463  18.294  13.500   4.693  0.0719  0.0498  0.0229
15333W        W30464  11.005   6.421   5.324 -0.1855  0.0028 -0.1284
15334W        W30465  10.158   8.163  11.159 -0.0582  0.0527 -0.1539
15335W        W30466  13.760   9.576  14.146  0.0857 -0.0233 -0.2778
15336W        W30467   1.446   1.501  10.903  0.0775  0.1758  0.0589
15337W        W30468   8.632   8.046  13.695  0.1377  0.1426 -0.2134
15338W        W30469   6.377   6.004  11.084  0.1669 -0.0468 -0.0408
15339W        W30470  10.265   8.080   5.295  0.3838 -0.1529 -0.0243
15340W        W30471   1.761   4.919   5.053  0.1564  0.0085  0.0724
15341W        W30472   4.101   7.557  15.176 -0.0723  0.2002 -0.2106
15342W        W30473   8.018  17.236  11.302  0.0784  0.2031 -0.0685
15343W        W30474  17.497   2.815   4.531 -0.3154 -0.1403  0.3268
15344W        W30475   2.507  15.609  13.960 -0.0187  0.2187  0.2419
15345W        W30476  11.337  10.321   0.556  0.1031  0.1943 -0.2234
15346W        W30477  15.443   3.088   4.587  0.3034  0.2831  0.2383
15347W        W30478  14.600  16.493   0.472 -0.0341 -0.1571 -0.1845
15348W        W30479  12.324  17.296   0.994  0.0222  0.0533 -0.1472
15349W        W30480  13.820   7.943   5.537  0.2210  0.0312  0.2488
15350W        W30481  17.297  10.271  15.399  0.1349 -0.2586  0.3491
15351W        W30482  17.673   1.806   4.169  0.0041  0.1598  0.2352
15352W        W30483   9.130  10.529   2.433  0.0006  0.1998 -0.0657
15353W        W30484   1.896  15.873  11.803  0.1428 -0.3426  0.0157
15354W        W30485   6.817  16.924  11.092 -0.2549  0.1366 -0.1707
15355W        W30486   6.230  16.672   2.743 -0.0279  0.0871 -0.0132
15356W        W30487   0.313   1.792   5.653 -0.2012 -0.0522 -0.0010
15357W        W30488  18.179  12.987  12.058  0.2055 -0.1696  0.2449
15358W        W30489  17.807  16.264   6.262 -0.0199 -0.1995  0.1012
15359W        W30490   3.082   5.305  15.108  0.2538  0.0209 -0.2284
15360W        W30491  11.799   6.454  15.637  0.0015 -0.2128 -0.1915
15361W        W30492   5.860   2.272  15.281 -0.2410  0.3002 -0.0474
15362W        W30493   9.694  14.429  14.516 -0.1416 -0.3411 -0.1672
15363W        W30494   3.024  18.083  10.940 -0.0200  0.0651 -0.2718
15364W        W30495  17.759   5.484  12.511 -0.1713  0.0817  0.0178
15365W        W30496   1.194   1.731  10.353  0.2368 -0.2654  0.0251
15366W        W30497   7.202  11.482  12.700  0.1237  0.1288  0.0942
15367W        W30498   3.430  13.689   4.859  0.1275  0.0847  0.0809
15368W        W30499   6.034  12.171   3.723 -0.0497 -0.1455 -0.3215
15369W        W30500   3.513  17.344   0.378 -0.1294  0.1991 -0.2319
15370W        W30501   8.460  14.665   4.614  0.1886  0.0556  0.0913
15371W        W30502   2.561  15.051   2.225  0.1455  0.0592  0.1639
15372W        W30503  12.408  15.965  12.716 -0.2391  0.1482  0.1329
15373W        W30504   4.884  13.445   4.705  0.0327 -0.1329  0.3588
15374W        W30505   0.168  16.231  15.769  0.0352  0.0679  0.0073
15375W        W30506  17.356  17.757   5.244 -0.1137  0.1975  0.0470
15376W        W30507  13.733   2.347   5.608  0.0594  0.0781  0.2903
15377W        W30508   6.497  17.931   4.229 -0.0111 -0.1332 -0.1529
15378W        W30509  15.673   3.021  15.377 -0.0834 -0.0238 -0.3279
15379W        W30510  15.119   3.382   1.882 -0.0459 -0.0809  0.0388
15380W        W30511   9.629   2.319   2.317  0.2797 -0.2857  0.4718
15381W        W30512   0.736  14.793  14.660  0.2654  0.0391  0.0224
15382W        W30513   5.457  10.069  11.617 -0.0120  0.0304  0.2778
15383W        W30514   8.421   2.296   0.651  0.1267 -0.0971 -0.3433
15384W        W30515  13.743  15.168  12.001  0.2836  0.1769  0.1257
15385W        W30516  15.783  16.360   3.111 -0.0451 -0.0457 -0.1052
15386W        W30517   7.418   3.272   3.789  0.1340 -0.1150  0.0940
15387W        W30518   5.178   4.648   0.347  0.0608 -0.1770  0.3951
15388W        W30519  15.244   6.906  14.282 -0.1445 -0.1310 -0.0406
15389W        W30520   0.385   2.551   3.587 -0.1776 -0.1262 -0.2095
15390W        W30521  13.494   0.412   5.683 -0.1989 -0.4361  0.2073
15391W        W30522  17.756   2.371  15.223 -0.1994 -0.1054 -0.4195
15392W        W30523  15.538  15.731   4.011  0.3741  0.0891 -0.0886
15393W        W30524  10.085  13.569   2.668 -0.1047  0.3511  0.1376
15394W        W30525  16.685   1.968  12.499 -0.1285 -0.0130  0.2833
15395W        W30526  11.501   2.852  14.501  0.1242 -0.0089 -0.0528
15396W        W30527   5.261  14.632   2.045 -0.5694 -0.2606  0.1057
15397W        W30528   8.780  17.608  13.774 -0.2653  0.0997  0.0331
15398W        W30529  13.670  18.154   0.974  0.1268  0.0585 -0.0409
15399W        W30530   1.994   8.124  13.875  0.2650  0.1604 -0.2493
15400W        W30531  13.665   7.584  11.152  0.1835  0.0806 -0.0911
15401W        W30532  16.508   2.963  12.589  0.0674  0.0232 -0.1817
15402W        W30533  10.418   2.359  13.573  0.0113  0.3280 -0.0692
15403W        W30534   4.169  17.515   3.193  0.1106 -0.2915  0.0478
15404W        W30535  13.911  18.177   2.925 -0.0846 -0.1880 -0.1429
15405W        W30536  12.870  17.274   3.051 -0.0740  0.0687  0.0590
15406W        W30537  16.010   4.939   1.416 -0.2603 -0.3643 -0.1665
15407W        W30538  13.046   5.738   4.394  0.0043  0.2653  0.0367
15408W        W30539   2.841   6.532  12.203 -0.1915  0.2322 -0.0187
15409W        W30540  12.540  17.612   2.221 -0.0023 -0.1228  0.0600
15410W        W30541   0.622   8.696   0.065  0.2443 -0.1042  0.0093
15411W        W30542   3.724  12.394   4.530 -0.0301 -0.2847  0.1175
15412W        W30543  15.625   0.125  11.429  0.0708  0.2644  0.0621
15413W        W30544  12.773   2.397  11.972  0.1604  0.1417  0.0608
15414W        W30545   3.828  10.127   3.619 -0.0320 -0.0411  0.0434
15415W        W30546   7.924   1.438   3.387 -0.2416 -0.2360 -0.1722
15416W        W30547  14.921   9.963  15.402  0.2389 -0.1933 -0.1463
15417W        W30548   8.797  16.663  14.296 -0.1996 -0.2158 -0.0228
15418W        W30549  15.661   1.749  15.952  0.1440 -0.1271 -0.0552
15419W        W30550   0.303  11.162   3.855  0.4181  0.2190 -0.0413
15420W        W30551   5.170  14.568   2.586 -0.1280  0.3086  0.0880
15421W        W30552   2.468   9.004   4.724 -0.0161  0.0375  0.1045
15422W        W30553   5.404   6.409   4.081 -0.0840  0.2207  0.1267
15423W        W30554  14.215   7.083  15.117 -0.1091 -0.2415 -0.0355
15424W        W30555   1.357   1.688   5.392  0.2859  0.1670  0.1462
15425W        W30556   2.481   2.946  15.587 -0.1087  0.1887 -0.0874
15426W        W30557  13.330   1.371   4.883  0.0268 -0.0886  0.0619
15427W        W30558   7.734  11.892   4.263 -0.0410  0.4254 -0.2340
15428W        W30559  17.952   0.586  14.807 -0.1854  0.1523  0.2935
15429W        W30560   6.789   1.062   1.583 -0.2410  0.0148 -0.1382
15430W        W30561  14.349   9.663   2.432 -0.2107 -0.1073  0.1519
15431W        W30562   7.880   3.567  13.719 -0.2873 -0.0511  0.0857
15432W        W30563  16.991   5.755  13.258  0.0093  0.0490  0.0536
15433W        W30564   8.812   4.699  13.203 -0.0791  0.1825 -0.1300
15434W        W30565  17.056   4.619   2.919 -0.0612 -0.1675 -0.2470
15435W        W30566  15.840   0.111  15.835 -0.1202  0.2710 -0.0924
15436W        W30567   8.045  13.607  14.374 -0.0999  0.4241 -0.4202
15437W        W30568  17.322   8.394  14.016 -0.2731 -0.2336  0.0661
15438W        W30569   8.818  17.665   1.403 -0.3159 -0.1547 -0.3311
15439W        W30570  15.127   7.160   5.138  0.0589  0.0349  0.0750
15440W        W30571  14.847   6.987   3.779  0.0757 -0.0289  0.0705
15441W        W30572  11.806  11.128   4.227  0.2644 -0.0794  0.1555
15442W        W30573   6.426   2.295  11.606 -0.1174 -0.3112  0.3812
15443W        W30574  10.152   1.677   6.452  0.3092 -0.3721 -0.0064
15444W        W30575  14.499  13.145   4.415 -0.0296 -0.2342  0.0394
15445W        W30576   2.017   7.517  14.198 -0.1038 -0.1452  0.1308
15446W        W30577  17.695  15.744  11.361 -0.1943  0.2146  0.1863
15447W        W30578  16.510  14.280  12.216 -0.2760  0.1757 -0.0862
15448W        W30579  18.312   6.250   0.071  0.1061 -0.1547 -0.1132
15449W        W30580  16.971  16.582  11.591 -0.1093 -0.0747 -0.2994
15450W        W30581  13.772   0.735   2.660 -0.0463 -0.0463 -0.1410
15451W        W30582  17.037   5.106  14.172  0.2428  0.2395  0.0782
15452W        W30583  14.098  16.267   1.633  0.1957  0.1625  0.2562
15453W        W30584  16.902  13.404  12.263 -0.1213 -0.0690  0.0407
15454W        W30585   4.630   3.940  13.651  0.0039 -0.0366  0.0498
15455W        W30586  16.819   8.297  14.043 -0.0501 -0.0299 -0.1228
15456W        W30587   2.714  17.816   5.095  0.0466  0.0643  0.2919
15457W        W30588  11.873   5.730  11.281  0.1258 -0.2495  0.1004
15458W        W30589  14.273  17.679  11.330 -0.0341  0.0388 -0.3130
15459W        W30590  18.082   8.427  11.644  0.1527  0.0922 -0.0757
15460W        W30591   9.398   6.419  10.942 -0.0474  0.1918  0.0429
15461W        W30592  14.541   9.010   4.924 -0.2285 -0.0821  0.3146
15462W        W30593   4.325  10.952  12.843  0.2608 -0.1863 -0.1929
15463W        W30594  11.355   5.696  11.147 -0.0557 -0.0599  0.4159
15464W        W30595   5.144   4.533  12.216 -0.1006  0.0487  0.1212
15465W        W30596  16.003  16.225  13.600 -0.0528  0.2325  0.1447
15466W        W30597  13.262   3.263   1.131  0.2292  0.0525 -0.0210
15467W        W30598   8.908   4.053   1.872 -0.0997  0.1972 -0.0132
15468W        W30599   9.511  14.243   2.126 -0.3507  0.0568 -0.2150
15469W        W30600   4.808   5.255  14.000 -0.0582 -0.2762 -0.1034
15470W        W30601   5.399  10.363  12.641 -0.2280  0.3871  0.3437
15471W        W30602   6.870  10.561  15.563  0.0491  0.2163 -0.1226
15472W        W30603  13.791   4.107   2.987 -0.0630 -0.0371  0.0568
15473W        W30604   4.874  15.476  14.583 -0.0451  0.2897 -0.0376
15474W        W30605   3.115   6.023  11.352 -0.5967  0.3249 -0.2334
15475W        W30606  12.037   0.049   2.889  0.0769 -0.3502 -0.3244
15476W        W30607  11.542  15.464   0.709  0.0828  0.4615  0.2614
15477W        W30608  13.083   8.146   4.426  0.0620 -0.1541  0.0403
15478W        W30609  13.288   4.993  12.125 -0.0907 -0.0696 -0.2607
15479W        W30610   4.094   4.464   3.109  0.2279 -0.2211 -0.0883
15480W        W30611   5.847   8.636  11.647 -0.0366 -0.2235 -0.1699
15481W        W30612   4.410  13.716   5.106  0.0329 -0.0409 -0.1044
15482W        W30613  15.268   4.746   2.614  0.1763 -0.1544  0.2088
15483W        W30614  14.575  13.213  15.279  0.3253 -0.1967  0.0706
15484W        W30615  12.454  14.702   1.222  0.0823  0.0796 -0.1978
15485W        W30616   9.486   2.867   4.733 -0.0582 -0.0264  0.2748
15486W        W30617   8.047   0.116  16.041  0.1445  0.1230 -0.0715
15487W        W30618   7.835  15.434  13.042 -0.2163 -0.3583  0.1731
15488W        W30619   6.019   8.585   0.825 -0.0208 -0.1712 -0.0206
15489W        W30620   2.836  10.554  12.805  0.1343 -0.4226 -0.0560
15490W        W30621   9.534  16.800   2.845 -0.1639  0.3594 -0.0899
15491W        W30622  11.707   5.611  12.614  0.0960 -0.0722 -0.0686
15492W        W30623   2.985  16.522   4.223 -0.0062 -0.0999  0.2115
15493W        W30624   0.296   3.635  11.391  0.2527 -0.0890  0.0119
15494W        W30625   1.581  17.904  10.741 -0.2620 -0.2432  0.1567
15495W        W30626  16.041   8.839  12.941  0.1407  0.1221  0.0541
15496W        W30627   2.407   2.213  14.225 -0.3434 -0.0365 -0.0754
15497W        W30628   1.529   4.930  16.115 -0.0987  0.1774 -0.1389
15498W        W30629  14.608   2.200  11.613  0.0284 -0.1660  0.4345
15499W        W30630   8.752  16.135  12.772 -0.1360  0.3691  0.0091
15500W        W30631   4.459  11.256   2.572  0.0075  0.3167 -0.0632
15501W        W30632  15.797   1.207  10.688 -0.0070  0.0074  0.0073
15502W        W30633   7.709  13.947   0.731 -0.0232 -0.0990 -0.0195
15503W        W30634   8.711  13.338   2.424  0.3336  0.0592  0.0112
15504W        W30635   8.672   7.171  12.507  0.0694  0.1479 -0.0213
15505W        W30636  11.684  15.996   4.906  0.2326  0.1636 -0.0614
15506W        W30637   8.798  11.789  15.152  0.2871 -0.2308  0.0927
15507W        W30638   6.596   2.743   3.725  0.0996  0.2451  0.3715
15508W        W30639   6.288   7.807  11.262  0.2232 -0.0185 -0.1738
15509W        W30640   0.751   2.191  12.765  0.1498 -0.0664 -0.0866
15510W        W30641   1.945   1.448  15.353 -0.0716  0.1743  0.2364
15511W        W30642  13.267   8.842  12.714  0.1501 -0.0387  0.0774
15512W        W30643  15.897   7.185   5.467 -0.2089  0.1950  0.3004
15513W        W30644   0.801   5.710  12.319  0.1348 -0.0628 -0.1114
15514W        W30645   1.288  13.697   4.560  0.0875 -0.0386  0.0112
15515W        W30646  11.241  10.403  14.599 -0.3369 -0.1144 -0.0979
15516W        W30647  15.841  10.724   5.088  0.4764  0.4691  0.2419
15517W        W30648   2.168   3.158  11.721 -0.3658  0.0652  0.1770
15518W        W30649   2.190   0.418   6.375  0.4279  0.2366 -0.0186
15519W        W30650   8.966   7.940   5.811  0.0462 -0.3411  0.1360
15520W        W30651  14.277   0.098  14.312 -0.1465 -0.1105 -0.0765
15521W        W30652  16.407  10.191  11.646 -0.0401 -0.2340 -0.0896
15522W        W30653   6.407   7.834  11.749 -0.1426  0.2316  0.1699
15523W        W30654   7.304  11.445   2.667 -0.1887 -0.2730  0.0503
15524W        W30655  14.772   3.179  14.682  0.3605 -0.1312 -0.0611
15525W        W30656  10.491  12.197   0.297 -0.0320  0.0305 -0.0781
15526W        W30657   5.936   4.432  11.442  0.2065 -0.3645 -0.0867
15527W        W30658  14.856   2.616  12.009  0.1511 -0.1974  0.0089
15528W        W30659   2.564  16.104  14.149  0.0072  0.1253 -0.1250
15529W        W30660   9.294  13.836  12.029 -0.0865  0.2584  0.0129
15530W        W30661   2.707   5.189  15.462  0.1232 -0.0246  0.1449
15531W        W30662   7.615   3.770  11.351 -0.1222 -0.1177 -0.2150
15532W        W30663   3.868  13.841   0.594 -0.1087  0.0958 -0.3127
15533W        W30664   4.685  10.190  12.811  0.1908  0.0673  0.1556
15534W        W30665  14.306  16.695  11.135  0.2484 -0.0240 -0.2770
15535W        W30666   9.295   9.553  15.521  0.1052 -0.0139  0.2451
15536W        W30667  11.011   1.651   4.035 -0.1830 -0.0024 -0.3913
15537W        W30668   2.653  11.644   0.935 -0.1530 -0.2975 -0.3732
15538W        W30669   7.518   9.980   3.890  0.1864  0.1110  0.0812
15539W        W30670  10.352  17.412  11.369 -0.1845  0.0325  0.0980
15540W        W30671   3.150   0.408  10.328  0.0376  0.1176  0.1228
15541W        W30672  12.467  10.980  10.998 -0.3360  0.2958 -0.2686
15542W        W30673   6.060   7.799   0.302  0.1755  0.4340  0.1304
15543W        W30674   3.451  12.967   5.895  0.1995  0.2545 -0.3749
15544W        W30675   8.170  16.631  15.105 -0.1152  0.2865 -0.0299
15545W        W30676  17.581   9.211   1.161  0.2226 -0.1496 -0.1115
15546W        W30677  14.583   0.019   1.429  0.0657  0.2558 -0.0849
15547W        W30678   5.725   4.563   0.444 -0.2192  0.0356  0.1703
15548W        W30679   7.223  17.887  15.381 -0.2114  0.1539 -0.1947
15549W        W30680   6.590  17.729   4.804 -0.1023 -0.3004 -0.2347
15550W        W30681  12.834  17.823   1.714  0.0878 -0.1530 -0.1209
15551W        W30682  12.231   4.460   3.999 -0.3374  0.1066  0.0847
15552W        W30683   1.620  18.073   1.590 -0.1235 -0.0437  0.0261
15553W        W30684  10.375   8.481  15.332  0.0712  0.3255  0.1469
15554W        W30685   7.301   1.431  15.847 -0.2176  0.0244 -0.1623
15555W        W30686   4.197   4.401   5.923  0.1816  0.0634 -0.0751
15556W        W30687   3.688   3.780  12.388  0.2347  0.1236  0.0370
15557W        W30688  15.825  13.601  13.944  0.2697 -0.2230  0.0732
15558W        W30689  14.476  15.928   1.778  0.2567  0.2203  0.0332
15559W        W30690   4.421   0.089   4.133 -0.0740 -0.1339 -0.1185
15560W        W30691  11.199   8.179  12.270 -0.0815  0.0310  0.3423
15561W        W30692  11.671   3.518   3.470  0.2294  0.1675 -0.0122
15562W        W30693  12.502   1.284   2.421  0.0249  0.0834 -0.3637
15563W        W30694  12.362  12.789   0.952 -0.3539  0.2310  0.1045
15564W        W30695  16.899   8.365   2.617  0.3123  0.2786 -0.3877
15565W        W30696   0.296  17.938   1.373 -0.1110  0.5809 -0.2218
15566W        W30697  13.673  10.981  13.667  0.0864 -0.0555  0.2381
15567W        W30698   3.720   3.295  16.141  0.0217 -0.0541  0.1993
15568W        W30699   3.452   3.751   3.441 -0.4087  0.3291 -0.0286
15569W        W30700  15.768  11.419   0.096 -0.0683 -0.1271 -0.3478
15570W        W30701  13.346   0.782  14.372  0.2818  0.1559  0.3914
15571W        W30702   1.735   1.384   4.511 -0.0887 -0.1899  0.1937
15572W        W30703   7.671  17.694   1.218  0.0616  0.3134 -0.0471
15573W        W30704   1.941   0.493   4.434 -0.0296  0.3311  0.2526
15574W        W30705  12.464  17.938   3.108 -0.0607  0.0862 -0.1436
15575W        W30706   3.113  13.750   1.910 -0.1128 -0.1796 -0.1404
15576W        W30707  11.860   0.054  13.645  0.3300  0.1095  0.2207
15577W        W30708   7.257   3.541  12.050  0.0559  0.1415  0.1617
15578W        W30709  11.610  15.670   2.218  0.2721 -0.0874 -0.0902
15579W        W30710  14.640   6.343  15.567 -0.0324  0.2343  0.1781
15580W        W30711  15.537   3.035  12.522 -0.1150 -0.1872  0.0129
15581W        W30712   4.709   4.145  12.242 -0.4645  0.0132  0.0545
15582W        W30713  10.893  16.815  12.859 -0.0109  0.0895  0.0189
15583W        W30714   2.795  15.994   2.534  0.2721 -0.0921 -0.0299
15584W        W30715   7.798  14.923   0.014 -0.0776 -0.0489 -0.1273
15585W        W30716  17.176   1.860   4.390  0.0869  0.0147  0.2501
15586W        W30717   0.123  10.451   0.155 -0.0887  0.2224 -0.0708
15587W        W30718   3.196   0.761   0.320  0.1427 -0.2223 -0.0121
15588W        W30719  13.452   1.590   0.923 -0.0197  0.1684 -0.0591
15589W        W30720   7.998   8.290   2.966 -0.0646  0.0550 -0.0516
15590W        W30721   0.127   4.343   5.210 -0.0642  0.1086 -0.1557
15591W        W30722   8.225   0.637  11.739 -0.0980 -0.2038  0.1366
15592W        W30723  12.502   5.217   0.204 -0.1187  0.2852  0.0809
15593W        W30724   0.113  17.604   4.980 -0.1792 -0.1570  0.1480
15594W        W30725   3.368  14.038  15.004  0.1131  0.4135  0.0513
15595W        W30726   4.142  13.350  12.082  0.0167 -0.0416 -0.1678
15596W        W30727   5.814   8.235   1.637 -0.2511  0.1426 -0.0122
15597W        W30728   3.932  17.142   1.091 -0.1537 -0.0318 -0.0909
15598W        W30729   9.971   8.440   0.087  0.2746  0.0853  0.1324
15599W        W30730   5.425   7.235   2.948  0.0340 -0.2459  0.3887
15600W        W30731  12.084   9.927  15.046 -0.0536 -0.0770 -0.1664
15601W        W30732  13.255  12.078  13.278 -0.2771 -0.2657  0.0223
15602W        W30733  10.920   7.757   0.651  0.0040  0.1745  0.0861
15603W        W30734  15.135   2.447   1.884  0.2477 -0.2382 -0.2494
15604W        W30735   3.517  13.901  11.528 -0.0545  0.1238 -0.0374
15605W        W30736   5.878  11.201  12.192  0.1772 -0.0367 -0.0705
15606W        W30737   4.116   1.927   1.323 -0.1036  0.3435  0.0030
15607W        W30738  14.492  14.119   0.698  0.1532  0.1706 -0.1624
15608W        W30739   4.807  16.825   5.978  0.1250 -0.1141  0.0690
15609W        W30740  15.485  10.649   5.734  0.1280  0.2311 -0.0374
15610W        W30741   3.823  15.767   2.721 -0.1301  0.1815 -0.1448
15611W        W30742   9.418   2.079  14.105 -0.1118  0.3394 -0.3949
15612W        W30743  11.659  16.566  13.688 -0.1367 -0.2036  0.0550
15613W        W30744   2.540   0.038  15.538  0.1764  0.2629  0.0470
15614W        W30745  13.059  16.066  11.824  0.1140  0.0330  0.1533
15615W        W30746  14.390  12.800   1.064  0.3159  0.0949  0.1071
15616W        W30747   1.256   3.455  14.739  0.1650 -0.1477 -0.1390
15617W        W30748   9.527   9.034  12.528  0.1638 -0.0831 -0.0683
15618W        W30749  11.221   0.980  15.110 -0.2517 -0.1853  0.2467
15619W        W30750  17.664   6.182  15.227  0.0190  0.2212 -0.0349
15620W        W30751  11.298  13.818   3.082  0.0930  0.0755  0.2132
15621W        W30752   7.356   2.535  14.920  0.0305 -0.0591  0.0685
15622W        W30753   0.605  12.931  15.237 -0.2456 -0.1163 -0.0023
15623W        W30754  12.289   8.113   0.750  0.5509 -0.0284  0.1737
15624W        W30755  14.236   4.326  12.707 -0.1607  0.1598 -0.0925
15625W        W30756   0.555  11.042   1.590 -0.0467  0.0257 -0.2077
15626W        W30757  10.486  16.567   4.542 -0.2579  0.3793 -0.1499
15627W        W30758   6.256   2.787  13.761 -0.1913 -0.0544 -0.0628
15628W        W30759   6.943  11.117   2.569 -0.0929 -0.0573 -0.1876
15629W        W30760   8.016  15.321   3.947 -0.0303  0.1848  0.2155
15630W        W30761  18.097  18.238   5.672 -0.0435 -0.1620  0.0552
15631W        W30762   2.953  12.156   4.079  0.1065 -0.0206  0.2556
15632W        W30763  11.331  11.953   0.395 -0.3124  0.2483 -0.0641
15633W        W30764  18.272   2.108   5.376  0.2371 -0.2157 -0.2736
15634W        W30765   6.308  17.169   0.203 -0.2682  0.1131 -0.1206
15635W        W30766  10.359  12.590   4.240  0.4405  0.1445  0.0156
15636W        W30767  18.213  12.736   9.822 -0.0912 -0.0908 -0.1882
15637W        W30768   3.025   2.346   2.448  0.1563  0.1743  0.1329
15638W        W30769  16.030   8.032   5.013  0.1213  0.1664  0.2093
15639W        W30770  16.468  12.695  14.775 -0.0065  0.2998 -0.1865
15640W        W30771  17.497  14.953   1.203 -0.0229 -0.1048  0.0263
15641W        W30772  17.328   5.353   4.423  0.2080  0.0323  0.1792
15642W        W30773   1.566  16.877  10.919  0.1701  0.0045 -0.1193
15643W        W30774  11.174   2.712   1.943  0.2959 -0.3281  0.2490
15644W        W30775  12.350   3.721  11.046 -0.0146 -0.0717 -0.2584
15645W        W30776   5.758  16.630  13.220 -0.0358 -0.2710 -0.0980
15646W        W30777  14.578  11.563   0.804  0.2069 -0.0899  0.3172
15647W        W30778   8.036  16.001   0.585 -0.3457  0.1223  0.2711
15648W        W30779   7.540   5.647   0.166 -0.5048  0.0924  0.1167
15649W        W30780   4.984  16.242   2.530  0.2241 -0.1506  0.1740
15650W        W30781  17.008   9.377  11.517  0.0062  0.1125 -0.1538
15651W        W30782  13.614   5.343   2.681  0.0667 -0.1508 -0.1253
15652W        W30783   2.978   8.199   2.954 -0.0299 -0.0612 -0.1407
15653W        W30784  10.893   6.613   2.087 -0.1422  0.1642 -0.0808
15654W        W30785   2.281   5.595   1.483 -0.0264  0.1048  0.1548
15655W        W30786   2.711   6.967  15.134 -0.1631 -0.0332 -0.0274
15656W        W30787  17.898   0.051   3.074  0.1946  0.0300  0.0849
15657W        W30788   9.777   5.286   1.610  0.1962  0.0435 -0.0027
15658W        W30789   8.170  14.722  15.592 -0.0449  0.1987 -0.1092
15659W        W30790   5.479  11.777  11.092 -0.3871  0.0622 -0.2908
15660W        W30791  12.202  15.996  15.800 -0.2210 -0.4500  0.3438
15661W        W30792  17.510  17.289   4.411 -0.0163 -0.1392  0.3627
15662W        W30793   2.283   7.694  15.545 -0.0814  0.0157 -0.0299
15663W        W30794  12.046  10.741   3.349 -0.0540 -0.0974  0.0923
15664W        W30795   8.168  14.650  11.291  0.1115 -0.2549 -0.1443
15665W        W30796  13.000   4.953  14.513 -0.1079 -0.0793 -0.3570
15666W        W30797  13.182  15.490  11.620  0.0869 -0.1099 -0.0380
15667W        W30798   9.841  17.807  15.073  0.0207 -0.4435 -0.2663
15668W        W30799   3.440   3.233   4.671 -0.1468 -0.1120 -0.1980
15669W        W30800   9.772   1.836  15.981 -0.1161  0.0857  0.1295
15670W        W30801   1.557   3.271   5.069  0.1621  0.0545  0.1742
15671W        W30802  18.238  15.356  14.998 -0.0433 -0.2290 -0.2367
15672W        W30803  16.339   3.248  14.764 -0.0069 -0.0426 -0.3888
15673W        W30804   5.296   8.833  12.318  0.3882 -0.1499  0.0503
15674W        W30805   3.169  16.363   2.577  0.1281 -0.3475 -0.0053
15675W        W30806   1.020   4.403   5.366 -0.1667 -0.0901  0.0586
15676W        W30807  16.232   7.170   4.013  0.3307  0.2877 -0.1767
15677W        W30808  17.986   4.210  13.474 -0.0369  0.1618  0.0064
15678W        W30809  11.856   0.159   3.685 -0.0332  0.2084 -0.0916
15679W        W30810  17.742   2.242   2.079 -0.0262  0.0021  0.0856
15680W        W30811   1.988  18.299  15.431 -0.2323 -0.3003  0.1170
15681W        W30812   1.276   8.103   1.211 -0.1716 -0.4511 -0.0558
15682W        W30813  14.913   8.669   2.139  0.0176 -0.0640 -0.0358
15683W        W30814  12.556  10.010   2.095 -0.4424  0.2661 -0.4374
15684W        W30815   9.670   4.351   5.467 -0.0130 -0.1413 -0.0521
15685W        W30816   6.759  15.783  13.048  0.0980 -0.0539  0.1092
15686W        W30817  16.253  15.104  11.903 -0.1311 -0.0234 -0.3842
15687W        W30818   6.900  17.339  13.501  0.2226 -0.0108  0.1254
15688W        W30819   3.640   6.241   3.622  0.2193 -0.0784  0.0123
15689W        W30820  17.389   3.097   4.894  0.0271 -0.1890 -0.0590
15690W        W30821   0.917   5.450  15.738 -0.1157  0.0499  0.2769
15691W        W30822   5.792  15.224   4.626  0.2013  0.2905 -0.0455
15692W        W30823   6.555  17.025  10.558 -0.1362 -0.0881  0.0452
15693W        W30824   4.100   7.782  11.483 -0.1577  0.0321 -0.1017
15694W        W30825   0.947  15.291  15.416  0.3959  0.1137 -0.2218
15695W        W30826  10.334  10.869  14.574  0.0775  0.1229  0.2776
15696W        W30827   1.666   5.971   5.769 -0.1156  0.1259 -0.0351
15697W        W30828   7.830   8.283  13.843  0.1414 -0.1546  0.2856
15698W        W30829  16.574   3.605   5.046  0.1281 -0.1543  0.1747
15699W        W30830   5.905   6.697  15.255  0.3407 -0.1778 -0.2135
15700W        W30831  16.645  14.514   3.306 -0.3008 -0.5482  0.0438
15701W        W30832  18.326  17.131  12.986 -0.0658  0.2892 -0.0503
15702W        W30833  17.377  11.380  12.941 -0.0987 -0.2427 -0.1255
15703W        W30834  17.875   6.859   0.418  0.0504  0.0055 -0.1515
15704W        W30835   7.241   1.037   1.379  0.3054 -0.0590  0.2544
15705W        W30836  11.353   3.485   2.287  0.2348 -0.0915  0.3422
15706W        W30837  12.948   7.301  14.751  0.1085  0.1842 -0.3011
15707W        W30838   8.373   2.095   2.358  0.1749 -0.0307  0.1158
15708W        W30839   2.293  12.541  10.901 -0.0952 -0.1257 -0.0760
15709W        W30840   6.247   9.865  12.113  0.1941 -0.2350 -0.3528
15710W        W30841   0.438   0.326   3.190 -0.0859  0.1886 -0.3859
15711W        W30842   2.353   9.949   1.063  0.0846  0.0765 -0.2141
15712W        W30843   8.812   5.469   1.607  0.0542 -0.1276 -0.1496
15713W        W30844  17.967  14.472   2.290  0.3109 -0.1285  0.3427
15714W        W30845   4.116   4.440   4.056  0.1222  0.3383 -0.1451
15715W        W30846   3.141  12.948  13.150 -0.5573 -0.1458 -0.1317
15716W        W30847   1.337   8.112   4.490  0.0004 -0.1094 -0.0650
15717W        W30848   8.808  10.059   4.219  0.1249  0.1366  0.0077
15718W        W30849   8.167   4.312   3.120  0.3934  0.2737 -0.1599
15719W        W30850  12.709   2.901  12.912  0.2335  0.0008  0.2841
15720W        W30851  13.408  15.910  15.216 -0.0459  0.3725  0.0101
15721W        W30852  13.642  16.436   1.355  0.1202  0.5307  0.0151
15722W        W30853   4.991   8.973   0.113  0.1320 -0.1215 -0.1725
15723W        W30854   7.457  12.100   4.695  0.2430 -0.0592  0.0830
15724W        W30855   3.198  18.097   3.035 -0.4230  0.3722  0.0220
15725W        W30856   9.812  14.562  13.983 -0.1603  0.0191  0.2109
15726W        W30857   4.002  10.012  11.025 -0.2228 -0.0505 -0.2120
15727W        W30858   4.822  16.562  11.282 -0.0129 -0.2261  0.1079
15728W        W30859  16.733   0.677   2.892  0.0458  0.1189  0.0918
15729W        W30860  11.100   4.733   3.089 -0.2020  0.0839  0.3858
15730W        W30861  14.725   0.363  13.312 -0.5069 -0.1989  0.0872
15731W        W30862   1.381  14.909   6.119 -0.0067  0.1700  0.0379
15732W        W30863   8.274  17.848   2.122 -0.1839  0.0797  0.0249
15733W        W30864   4.129   2.564   6.382  0.0503  0.0563  0.1581
15734W        W30865   1.598  15.258  11.808  0.3542  0.0913  0.0419
15735W        W30866   4.241   9.173   1.763  0.0204  0.1633  0.1046
15736W        W30867  12.578   3.067   2.919  0.1320  0.1304  0.2085
15737W        W30868  16.134   9.946   0.814 -0.1873 -0.2497  0.1247
15738W        W30869  18.166   7.925   0.199 -0.3497  0.0957 -0.0257
15739W        W30870   5.718   0.549  12.605 -0.1755 -0.1264 -0.0431
15740W        W30871  16.165   9.633  12.544 -0.0952  0.0306  0.0124
15741W        W30872   7.408  10.533  12.197  0.0198  0.2485 -0.2577
15742W        W30873   2.167  11.190  11.541  0.2449  0.1405  0.0878
15743W        W30874   3.943   1.312  10.678  0.1493  0.0523  0.3115
15744W        W30875   7.087   3.039   1.471  0.0722  0.2393  0.0247
15745W        W30876  12.790   6.596  12.259  0.0966  0.0803  0.0351
15746W        W30877   7.122   5.546   2.540  0.1524 -0.2770  0.3504
15747W        W30878   9.060   6.834  15.942  0.4043  0.0596  0.1367
15748W        W30879  15.144   1.988   2.667  0.0141  0.1711 -0.0848
15749W        W30880   6.429  13.598   3.485 -0.0339 -0.2203  0.0879
15750W        W30881  16.733   2.270   3.751 -0.0130 -0.0649 -0.2338
15751W        W30882   4.640  15.922  11.174 -0.1812 -0.0951  0.3798
15752W        W30883   3.741   2.427   4.943  0.1141 -0.2484  0.0527
15753W        W30884   9.779  18.107   4.111  0.2201  0.3755 -0.0156
15754W        W30885   6.975   8.952   4.421  0.0594 -0.3700  0.3396
15755W        W30886   3.839  16.442  12.294  0.1603  0.0701 -0.0204
15756W        W30887   6.343   5.158   0.923 -0.2534  0.1225 -0.0651
15757W        W30888  12.659   7.395   4.351 -0.0950  0.2111 -0.1019
15758W        W30889  15.071   7.570  11.555  0.0833 -0.0749 -0.3551
15759W        W30890  15.455  15.626   0.575  0.2272 -0.1501  0.2267
15760W        W30891   7.994   8.094  14.525  0.2012  0.1945  0.0022
15761W        W30892   9.373   3.357  11.894  0.1831 -0.0260 -0.0182
15762W        W30893   3.052   7.475  10.841 -0.0542 -0.3334  0.1948
15763W        W30894   6.446   6.273  11.517 -0.1412  0.2688 -0.2463
15764W        W30895  16.184  12.279   6.074 -0.0440  0.0938 -0.0201
15765W        W30896   8.771   6.267   2.387 -0.0238  0.2194 -0.1283
15766W        W30897   3.749  10.410  11.345 -0.1462  0.0249 -0.1591
15767W        W30898   7.829  11.943   4.986 -0.2166  0.2437 -0.0034
15768W        W30899   2.893  16.832  11.699 -0.2409  0.0740  0.1841
15769W        W30900   8.251   3.233  13.553  0.0235  0.1582 -0.2952
15770W        W30901   1.710  11.592   4.083  0.0493 -0.1475  0.0412
15771W        W30902   1.234   1.150   0.704 -0.0899  0.1111  0.2361
15772W        W30903  13.386  11.243  11.353 -0.1346  0.0095 -0.2289
15773W        W30904  12.406   4.874  10.548 -0.1450 -0.2181 -0.3738
15774W        W30905   8.492  11.021  13.728 -0.1495  0.2105 -0.2284
15775W        W30906  14.463   1.836   4.015  0.1317  0.0090 -0.2470
15776W        W30907   4.118   2.915   2.320  0.1665 -0.2443  0.0088
15777W        W30908   9.817   0.802   0.402 -0.1940 -0.2398  0.1782
15778W        W30909  12.382  11.198  15.296  0.2999  0.0123 -0.1284
15779W        W30910   3.180  12.234  10.677 -0.1986  0.0720 -0.1324
15780W        W30911   9.581   8.376   0.416 -0.1899  0.0037 -0.3248
15781W        W30912   9.448   0.428   5.653 -0.0320 -0.0227  0.1414
15782W        W30913   7.541  11.506  15.494  0.1352 -0.1554  0.1893
15783W        W30914   1.346  14.698   1.798 -0.2142 -0.1531 -0.1009
15784W        W30915   4.753   9.081   1.679 -0.0573  0.2344  0.0243
15785W        W30916   8.520   3.925   1.559  0.0258  0.5960  0.0765
15786W        W30917  16.652   5.279   0.016  0.2595  0.3584 -0.1099
15787W        W30918   1.087   8.395  11.690 -0.0774  0.0458  0.1622
15788W        W30919  17.435   9.863  10.236 -0.1826  0.1903 -0.1446
15789W        W30920   2.423  17.525   1.650  0.0167 -0.1052  0.0422
15790W        W30921   4.758   1.826   3.118  0.0992  0.0476  0.2496
15791W        W30922  14.063   6.190   0.694  0.0211  0.0310 -0.0534
15792W        W30923  16.167   3.329  10.541 -0.0346  0.2459 -0.1810
15793W        W30924  15.296   9.954  12.479  0.0408  0.0312 -0.0316
15794W        W30925   8.652   9.996  12.866  0.5502 -0.1864  0.1029
15795W        W30926   7.295   3.929  14.385 -0.0497  0.0515  0.0837
15796W        W30927  14.818  16.895   4.107 -0.1279 -0.3757  0.0571
15797W        W30928   1.697   7.655  15.621 -0.1469  0.0666 -0.1690
15798W        W30929   5.056   8.565  14.792  0.1080 -0.0168  0.2115
15799W        W30930   5.844   9.792   5.239 -0.0064  0.2187  0.3446
15800W        W30931  10.273  13.600  14.075  0.0617 -0.0863 -0.1208
15801W        W30932  10.829   0.771   5.286  0.2121  0.0893 -0.0766
15802W        W30933   2.849   8.837  10.694  0.0167  0.0796 -0.1218
15803W        W30934   1.028   3.996  15.196  0.0032  0.1678 -0.0245
15804W        W30935  16.329   6.187   3.871  0.2270 -0.0455 -0.0130
15805W        W30936  14.220   5.660   4.817  0.3021 -0.2214 -0.0032
15806W        W30937   2.255   6.337  12.886 -0.1429  0.1015  0.2658
15807W        W30938  17.801  14.559   3.013  0.1924 -0.2524  0.0563
15808W        W30939   9.328   6.176   3.546  0.1196  0.2646 -0.1815
15809W        W30940  16.609   8.950   5.836 -0.1279  0.1748 -0.0696
15810W        W30941   0.837  13.647   4.733  0.1204 -0.2818 -0.0073
15811W        W30942   2.176  10.980  12.066  0.4284  0.1326  0.0284
15812W        W30943   7.954  11.861  14.491  0.0892  0.0412 -0.0636
15813W        W30944   7.986  11.350  14.282 -0.1240 -0.0380 -0.3711
15814W        W30945  11.965   8.524  11.669  0.1929  0.0036  0.0099
15815W        W30946  16.349  15.663   0.409  0.2855  0.1648 -0.0263
15816W        W30947   7.272   4.743   1.231 -0.2557 -0.0207 -0.1723
15817W        W30948   5.619   4.352   6.198 -0.1337  0.0440 -0.0012
15818W        W30949   4.009  11.962   0.894  0.0827  0.0968 -0.2203
15819W        W30950  15.776  17.742   5.479 -0.0052 -0.0466 -0.2525
15820W        W30951  15.726   1.101   3.864 -0.2945 -0.1072 -0.0949
15821W        W30952   6.832   8.688  11.449 -0.2791 -0.2047  0.0886
15822W        W30953   8.458   2.036  12.148  0.1642 -0.2103  0.0860
15823W        W30954   0.684   6.935  11.028  0.0046  0.2530  0.0475
15824W        W30955  15.578  10.594  11.755 -0.0724 -0.3297 -0.1619
15825W        W30956   6.748  10.393   0.708 -0.1096  0.1804  0.1540
15826W        W30957   7.799  17.727  11.348 -0.0066  0.2456 -0.0989
15827W        W30958   8.049   4.246   3.655 -0.0349 -0.0174 -0.0848
15828W        W30959  16.580   0.224   2.635  0.0462  0.2051  0.0251
15829W        W30960  12.864  12.103  11.196  0.2231  0.1312  0.0295
15830W        W30961  15.621   6.295  15.503  0.0190  0.3101 -0.1745
15831W        W30962   5.369   9.711  12.868  0.2484 -0.1170  0.2727
15832W        W30963   1.146  16.102  14.665  0.4323  0.1107  0.1904
15833W        W30964   7.320  11.115   0.145 -0.5098 -0.0694 -0.0943
15834W        W30965   1.043  12.287   4.466  0.0018 -0.3493  0.2904
15835W        W30966   7.372   9.638   4.855  0.0777  0.1100  0.2666
15836W        W30967  11.523  16.013  12.388  0.2675  0.2112  0.2364
15837W        W30968  12.048   6.826   5.951 -0.0029  0.2824 -0.2317
15838W        W30969  13.354   9.387  12.969 -0.0291 -0.2294  0.3247
15839W        W30970  15.661  17.460   4.565 -0.0810  0.0118 -0.1829
15840W        W30971  15.538   7.347   1.771  0.1174  0.1735  0.0501
15841W        W30972  16.338   9.545  10.294  0.1280  0.0195  0.1016
15842W        W30973   0.624  10.424   2.915  0.0105  0.2027  0.0638
15843W        W30974   3.137   3.502   2.724 -0.0809  0.1326 -0.2200
15844W        W30975  14.925   2.506  13.140 -0.2906  0.0897  0.0787
15845W        W30976  13.655  15.674  11.519 -0.0399  0.2608  0.0515
15846W        W30977  10.882  17.345   1.362 -0.0528  0.0627 -0.0719
15847W        W30978  17.065  11.835  13.822  0.1060 -0.0282  0.1724
15848W        W30979   8.581  15.861  12.371  0.3423  0.0397 -0.0036
15849W        W30980  13.749   7.087   5.579  0.2725 -0.1748 -0.3380
15850W        W30981  13.728   4.378   5.206  0.0382  0.1506  0.1092
15851W        W30982   0.620   6.081  14.358 -0.1484 -0.2121 -0.1567
15852W        W30983  11.729   9.164   1.629  0.0759  0.1402 -0.1693
15853W        W30984   8.474  17.747   3.687 -0.1106 -0.1845  0.2511
15854W        W30985   8.449  17.313   4.565  0.0931  0.1179 -0.1490
15855W        W30986   6.271   0.707   1.038  0.1433 -0.2630 -0.1993
15856W        W30987   7.653   8.314  15.014  0.1853  0.0493 -0.1450
15857W        W30988   5.531   4.290  13.689  0.0515  0.1384 -0.4917
15858W        W30989  11.613  17.024  11.424 -0.0381 -0.0061 -0.2985
15859W        W30990  15.094   1.384   5.048 -0.2510 -0.0289 -0.0535
15860W        W30991  18.134  11.233  11.053 -0.0586 -0.0999 -0.0556
15861W        W30992  18.143   1.168  15.744 -0.0001 -0.3085  0.2022
15862W        W30993   7.880   4.411   1.879  0.4899 -0.1864  0.0437
15863W        W30994  18.352  13.851   1.627 -0.1046  0.2218  0.3707
15864W        W30995   4.580   0.100   4.746 -0.3594  0.0096  0.0282
15865W        W30996  12.367   7.703  13.017  0.1974  0.2104 -0.0463
15866W        W30997  15.770   3.331   3.112  0.1852  0.1299  0.1918
15867W        W30998   2.030  15.052   1.571 -0.5029  0.5208  0.2171
15868W        W30999  12.421  10.519  10.778 -0.4383 -0.0317  0.1273
15869W        W31000   2.937   4.873  11.022  0.2333  0.1122  0.0325
15870W        W31001   0.265   1.995   3.332  0.0471 -0.0384 -0.0974
15871W        W31002   3.700  10.333  10.860 -0.1179  0.2003 -0.0291
15872W        W31003   9.511   1.815  15.040 -0.4249 -0.0771  0.0103
15873W        W31004   1.477  12.361  13.718  0.4463 -0.2586  0.3365
15874W        W31005  16.391   0.726  10.820 -0.1421  0.3052 -0.1941
15875W        W31006  13.013   6.145   5.493  0.2411  0.1014 -0.3289
15876W        W31007   5.247  16.389   1.223 -0.2594  0.2653  0.1902
15877W        W31008   5.286   1.051  15.225  0.2139  0.0384  0.3169
15878W        W31009  13.646   0.281   4.499  0.0860  0.1168 -0.1553
15879W        W31010   6.719   6.467  13.073  0.0807 -0.1886 -0.0777
15880W        W31011  14.586  14.664  15.474 -0.3327 -0.5914 -0.0644
15881W        W31012  11.629   9.413   2.087  0.1396 -0.0117 -0.1919
15882W        W31013   2.386   5.972  14.982 -0.0694  0.0325 -0.0454
15883W        W31014  17.023   8.775   4.471 -0.2774  0.0924  0.4705
15884W        W31015  10.440   0.795   1.332 -0.2215  0.3190 -0.0166
15885W        W31016  11.442  11.348  15.073  0.1628  0.0315 -0.2472
15886W        W31017   6.264   2.738  15.024 -0.1798 -0.1384 -0.1675
15887W        W31018  12.390   7.382  14.845  0.2953 -0.1620  0.0228
15888W        W31019   1.897  16.740  11.468  0.0910 -0.1089  0.1042
15889W        W31020   0.948  12.926  13.498  0.0403 -0.2161  0.3174
15890W        W31021   4.420  12.115   1.739 -0.0539  0.0315 -0.0954
15891W        W31022   0.841   6.979  10.486  0.1580  0.1413  0.1669
15892W        W31023   7.095  12.293   4.394  0.0851  0.1816 -0.1751
15893W        W31024   9.233   9.040  15.496  0.0067 -0.0162 -0.1720
15894W        W31025   2.167  16.431  14.168  0.4293  0.1288 -0.0889
15895W        W31026   4.878   2.992   3.782  0.3595 -0.0890  0.2134
15896W        W31027   7.597   0.732   2.114  0.0812 -0.0309 -0.0208
15897W        W31028  14.784  12.099  14.366 -0.0228  0.1272 -0.1930
15898W        W31029   4.677  18.182  13.393 -0.1771 -0.2784  0.0893
15899W        W31030   3.515   2.060  15.588  0.2313  0.0128  0.3664
15900W        W31031  13.099  17.876   0.088  0.0617 -0.1769  0.1851
15901W        W31032   4.672   0.042  11.712  0.2593 -0.0568  0.0395
15902W        W31033   8.326  18.046   4.983  0.1847 -0.0182 -0.0663
15903W        W31034  14.073   7.487   5.610 -0.0222 -0.2473  0.0546
15904W        W31035  12.116   3.111  13.672 -0.2696  0.3075  0.1172
15905W        W31036  18.204  11.125   3.614 -0.2662 -0.4789 -0.1556
15906W        W31037   8.816   4.821   3.886 -0.1055 -0.0213  0.3391
15907W        W31038   9.487  15.176   0.004 -0.0691 -0.0260  0.0185
15908W        W31039   2.865  17.620  11.045  0.2417 -0.0477 -0.0740
15909W        W31040  10.500   8.387   0.910  0.0294 -0.0310 -0.0188
15910W        W31041  15.031  13.637  11.686  0.0542  0.2455  0.0258
15911W        W31042   1.595   7.125  13.544  0.3276 -0.2578  0.0632
15912W        W31043   1.241   0.057   0.529  0.0449  0.3597  0.1836
15913W        W31044   8.784   6.061  15.468  0.0397  0.0673  0.0574
15914W        W31045   6.882  10.862  15.134  0.2465  0.3711  0.2030
15915W        W31046   8.351   9.322   3.566 -0.0374 -0.5439 -0.0708
15916W        W31047  16.679   8.368  15.112 -0.1043  0.0312  0.3196
15917W        W31048   4.346  17.383   0.960 -0.1235  0.0340  0.3573
15918W        W31049   6.375  10.692   1.227  0.0201  0.0417 -0.2072
15919W        W31050   8.639   1.772   0.807 -0.2166 -0.0571  0.2108
15920W        W31051   3.028  14.986   2.510  0.0081  0.1481  0.0136
15921W        W31052   2.098   0.780  14.658  0.0830  0.1346 -0.3930
15922W        W31053   1.467  12.573  10.821 -0.0573  0.1849  0.1266
15923W        W31054  12.363   7.328  13.602 -0.1149 -0.0602 -0.0655
15924W        W31055   0.201   2.993   5.016  0.2895 -0.2802 -0.1210
15925W        W31056  15.368  18.125   3.550  0.1385 -0.0958 -0.0433
15926W        W31057   6.793  16.485   1.228  0.1851  0.0950  0.0655
15927W        W31058  14.413   3.273  10.927  0.1071 -0.0046  0.2936
15928W        W31059   9.926  13.097   3.419  0.1655 -0.2071 -0.1157
15929W        W31060  13.126   2.075   3.341 -0.0866 -0.1266 -0.0223
15930W        W31061  11.442   8.201  14.299  0.0696  0.3241  0.1502
15931W        W31062  16.186   1.975   5.778  0.0861  0.0061 -0.2268
15932W        W31063  16.027  14.547  14.096 -0.0183  0.1816  0.1886
15933W        W31064   7.518   5.603   1.354  0.1369 -0.2409  0.0310
15934W        W31065  16.129   9.737  11.562  0.1267  0.0590 -0.0413
15935W        W31066   5.517   6.785  11.629  0.3104 -0.0636 -0.0176
15936W        W31067   2.838   4.748  13.632  0.1238 -0.3758  0.0291
15937W        W31068   4.791  10.032   0.726  0.0116  0.2055  0.1119
15938W        W31069   8.148   0.218  14.328 -0.0232  0.1109 -0.0700
15939W        W31070   6.957   3.966   3.215 -0.2195 -0.2450  0.2166
15940W        W31071   0.310  16.067  15.319  0.0785  0.3880 -0.1821
15941W        W31072   7.175   5.895   0.373  0.0806  0.0626  0.0017
15942W        W31073   9.514  10.314  14.600  0.0029  0.2902  0.1567
15943W        W31074  11.750  16.005  15.333 -0.2292  0.2009 -0.0137
15944W        W31075  15.046   7.516  16.124 -0.4089 -0.4617  0.3809
15945W        W31076   5.142  13.490   1.859 -0.2235  0.0846  0.0687
15946W        W31077  16.308   0.417   1.541 -0.4099  0.3127  0.1155
15947W        W31078   9.895   2.203   3.527  0.2367  0.4201  0.0421
15948W        W31079   3.223   7.774   2.014  0.2087 -0.1123 -0.0442
15949W        W31080  13.381   3.570   2.207  0.3246 -0.0562 -0.0948
15950W        W31081  11.151  14.819   4.646  0.1918  0.2518  0.2747
15951W        W31082  16.734  14.971   3.657  0.0576 -0.1172 -0.0081
15952W        W31083  15.208  15.790  15.647  0.1806 -0.0707  0.0689
15953W        W31084   3.771   2.772  13.386 -0.3520 -0.1083  0.1290
15954W        W31085   4.820  10.631  12.524 -0.0557  0.1778  0.2095
15955W        W31086   8.322  16.620   4.413 -0.6245 -0.2202  0.0476
15956W        W31087   3.693  13.855  13.059  0.1971  0.0291  0.2062
15957W        W31088   9.835  17.486  12.167 -0.1520  0.2250 -0.3220
15958W        W31089   3.677  16.402   3.018  0.4000  0.0210  0.0273
15959W        W31090  12.328   6.881  15.690  0.2034  0.0834 -0.1861
15960W        W31091   0.524   0.937   5.712 -0.1490  0.2114 -0.2093
15961W        W31092   7.541   6.330  15.095 -0.4730  0.0212 -0.3093
15962W        W31093  17.606   6.500  12.739  0.2192 -0.0970 -0.2038
15963W        W31094  17.776   2.464   4.735 -0.2038  0.3148 -0.0937
15964W        W31095   2.923   2.553   1.165 -0.1301  0.3461  0.1280
15965W        W31096  15.427  10.721  15.094  0.2745  0.0271  0.1187
15966W        W31097  14.045   7.747  14.341  0.1361  0.2669 -0.2231
15967W        W31098  17.823   4.539  13.111 -0.0370  0.2823  0.3101
15968W        W31099  10.896  14.294   0.787 -0.0340 -0.1133  0.1760
15969W        W31100  15.384  13.077  11.836 -0.3548 -0.0478  0.0535
15970W        W31101  11.567   9.264   4.181 -0.0427  0.2823 -0.4395
15971W        W31102  18.262   3.130  15.838 -0.0217 -0.1567 -0.2940
15972W        W31103   7.063   3.930   1.759 -0.4744  0.1141  0.2651
15973W        W31104   2.396   4.299   4.779  0.1319  0.2483  0.4099
15974W        W31105   0.208  15.337   4.859 -0.0718  0.0680  0.0018
15975W        W31106   1.258   4.836   5.525 -0.0740 -0.0118 -0.0360
15976W        W31107  13.920  13.385  14.170 -0.0523 -0.0289  0.0796
15977W        W31108  18.128  11.369   0.655  0.0041  0.0385 -0.0559
15978W        W31109  12.167  13.197  15.107 -0.0895 -0.0156  0.2342
15979W        W31110   2.349   2.024   1.596 -0.1483  0.1263  0.0737
15980W        W31111   3.762  13.189  11.808 -0.2443 -0.1047 -0.3738
15981W        W31112  16.655  10.895  16.122 -0.0485  0.1028 -0.0785
15982W        W31113   9.103   9.385  14.060  0.2227  0.1139 -0.0034
15983W        W31114   5.924  12.908   1.952 -0.0182 -0.0912 -0.0263
15984W        W31115  17.815   1.811   2.390  0.0571 -0.2562  0.2375
15985W        W31116   1.940  10.448  15.912  0.2771  0.0904 -0.1587
15986W        W31117  12.937   6.755   0.598  0.0118  0.0526  0.1294
15987W        W31118  12.026  11.624   4.889 -0.1874 -0.1534 -0.0940
15988W        W31119   1.967   0.168  11.276  0.0135  0.0611  0.1047
15989W        W31120   8.620   0.822   3.581 -0.2856 -0.0831  0.3590
15990W        W31121   9.198   5.309  13.909  0.0360 -0.1554 -0.1967
15991W        W31122   0.555   0.364   0.646 -0.1176  0.1945  0.2303
15992W        W31123  12.663   0.865  14.932 -0.0802 -0.1201 -0.1043
15993W        W31124  12.907   5.598   1.454 -0.0310  0.1726  0.1341
15994W        W31125   4.490   1.642  13.105  0.2424 -0.4535 -0.4535
15995W        W31126  10.864   5.923   0.190 -0.1102 -0.1010 -0.0332
15996W        W31127  11.892   5.263   5.838  0.2810 -0.0507 -0.3400
15997W        W31128   3.492   6.674   4.340  0.4385 -0.3021  0.0811
15998W        W31129   8.955  17.160   1.228  0.0205  0.2247 -0.1402
15999W        W31130  14.665   1.056   5.348  0.0354 -0.0143 -0.2595
16000W        W31131   2.985  16.940   1.485 -0.1258  0.4401  0.2040
16001W        W31132   0.429   8.644  11.051 -0.1750 -0.3029  0.1432
16002W        W31133   2.117  13.062  14.163  0.0642  0.0029 -0.1001
16003W        W31134  18.207   4.069   0.514  0.0870  0.1763 -0.1655
16004W        W31135   2.903  13.495   0.471  0.2237  0.2596 -0.2640
16005W        W31136  15.592   2.523  15.486 -0.0661  0.0436 -0.0408
16006W        W31137  17.574   8.609  15.902  0.0408  0.0690  0.0370
16007W        W31138  13.634   3.318   1.476 -0.0823 -0.0224  0.1520
16008W        W31139   4.025   3.021  14.485 -0.1036 -0.0650  0.0621
16009W        W31140  15.999  13.100   4.752 -0.3364 -0.2145 -0.2891
16010W        W31141  16.085  12.640  14.525 -0.1771  0.1569 -0.1257
16011W        W31142  17.727   8.010   5.567  0.0756 -0.0958 -0.1652
16012W        W31143   4.398   0.968  13.707  0.0803  0.0235 -0.1969
16013W        W31144  16.797   5.561  15.302 -0.2156 -0.2909 -0.0384
16014W        W31145  10.385   2.657  13.967  0.2226  0.2032  0.1252
16015W        W31146   7.449   4.405  12.929 -0.5665 -0.2877 -0.1012
16016W        W31147  10.533   3.997   3.138  0.2156  0.0352  0.3247
16017W        W31148   1.556  12.231  12.184  0.0339  0.1168  0.6394
16018W        W31149   8.757  14.573  11.188  0.0061  0.1057 -0.3348
16019W        W31150   2.087   9.047   0.337 -0.0916  0.2181  0.0083
16020W        W31151  18.188  17.251  13.911  0.0216 -0.0061  0.0809
16021W        W31152  15.889   9.415   4.806 -0.0471 -0.3605  0.2833
16022W        W31153   1.471  17.325   2.758  0.2160  0.0515 -0.1502
16023W        W31154   5.781   8.434   0.380  0.2120 -0.1790 -0.2591
16024W        W31155   5.294  17.205   5.821  0.0765  0.2424 -0.1924
16025W        W31156   7.778   9.502  13.011  0.1827 -0.3577 -0.1299
16026W        W31157   5.011  13.734  11.608  0.3308  0.2814 -0.1009
16027W        W31158   6.491   5.189   0.425  0.3771 -0.0538 -0.2319
16028W        W31159   8.270   5.977   0.513 -0.0302 -0.1698  0.1758
16029W        W31160  12.968  11.985   1.107  0.3726 -0.4196 -0.0263
16030W        W31161  16.843  17.132  11.300 -0.0472 -0.0629  0.0007
16031W        W31162   1.539   9.596   4.303  0.1161 -0.1330 -0.0723
16032W        W31163   1.444  17.163  15.408 -0.0195  0.0553  0.0312
16033W        W31164  15.953  16.347   3.621  0.0902  0.1468  0.0316
16034W        W31165  10.043  17.158   4.031 -0.0093 -0.0369 -0.0704
16035W        W31166   5.862   2.536   5.714  0.0956 -0.2274 -0.1015
16036W        W31167   1.492  14.622  11.263 -0.0746  0.0439  0.1395
16037W        W31168   7.471  14.688  12.585 -0.0641 -0.3482 -0.0284
16038W        W31169  12.591  17.492  12.518  0.4217  0.1816  0.0398
16039W        W31170  12.735   4.420   5.179  0.3935 -0.0325  0.1518
16040W        W31171  15.051  10.633   1.598  0.0545  0.0194  0.0848
16041W        W31172  10.145  11.647   2.356  0.1690 -0.0569 -0.0667
16042W        W31173   6.980  16.036  15.542 -0.2157  0.0742  0.0915
16043W        W31174  16.243   3.211   1.246  0.0432 -0.2941  0.0743
16044W        W31175   7.009  11.109   5.804  0.1146 -0.0153 -0.0388
16045W        W31176  17.218  14.479   1.219 -0.1483  0.0994 -0.3455
16046W        W31177  13.437  17.057   3.886 -0.2072 -0.0038 -0.0349
16047W        W31178   5.214  11.561   5.316 -0.2377 -0.0146 -0.5397
16048W        W31179   3.479  16.932  15.628 -0.1508 -0.1172 -0.0386
16049W        W31180   4.789   3.727  14.385 -0.0486 -0.0248 -0.2234
16050W        W31181  16.453   2.601   3.970 -0.1510 -0.0610 -0.2298
16051W        W31182   0.663   8.383   4.359 -0.2685  0.3524  0.0764
16052W        W31183   9.880   3.347   1.629 -0.1557 -0.0353 -0.0790
16053W        W31184   1.938  11.127   0.739 -0.1405 -0.2034 -0.2516
16054W        W31185  16.573  13.725  15.561  0.3684  0.3035  0.3443
16055W        W31186   0.332   1.276  11.583  0.1310 -0.0314 -0.0273
16056W        W31187  17.365   9.039  10.848 -0.3087 -0.0385  0.1135
16057W        W31188  11.232   0.228  11.630 -0.1247 -0.1234 -0.1521
16058W        W31189   0.611   3.820   3.575  0.2787 -0.1175 -0.2209
16059W        W31190  12.652   2.671  12.469 -0.2946  0.2455  0.1552
16060W        W31191  14.838   8.064   4.454  0.2592 -0.1081  0.2899
16061W        W31192  10.830   7.731  12.362 -0.1801 -0.1444 -0.0745
16062W        W31193  17.187   8.365   5.628 -0.1626  0.2823  0.1243
16063W        W31194   9.838  12.009  13.205  0.2148  0.0593 -0.0351
16064W        W31195   4.041   7.002   1.284  0.0462 -0.1530  0.0607
16065W        W31196   3.697  17.740   4.996  0.2636  0.2251 -0.1450
16066W        W31197  13.362   2.727  11.262  0.1725  0.1227 -0.2868
16067W        W31198  13.212  15.930  11.320 -0.1335  0.1053  0.0418
16068W        W31199  14.214   4.293   3.729 -0.0285 -0.1027 -0.2655
16069W        W31200  12.489   5.961  15.996  0.3025 -0.1827 -0.3108
16070W        W31201  10.006  17.359  12.649 -0.0475 -0.1576 -0.0616
16071W        W31202  16.380   2.350  10.166  0.1465 -0.0535 -0.1349
16072W        W31203   1.119  16.242  13.324  0.0065 -0.0369  0.1951
16073W        W31204  12.777   1.409   0.960  0.0518  0.0707  0.0080
16074W        W31205  13.188   1.351  15.910 -0.4960 -0.0205  0.1562
16075W        W31206  15.349  10.760   4.410  0.0548 -0.2250  0.0286
16076W        W31207  15.182  16.728   1.796  0.1775  0.0478 -0.0179
16077W        W31208  15.733  14.487   3.342 -0.0465  0.2239 -0.1558
16078W        W31209   8.871   8.365   9.896  0.2416 -0.1871  0.2854
16079W        W31210  16.236  11.696  14.480  0.1871  0.0218 -0.3455
16080W        W31211  10.530  10.662  12.240  0.0757 -0.2165  0.2215
16081W        W31212   4.534  13.093  15.152 -0.0436 -0.2070  0.0366
16082W        W31213   0.872   9.707  14.194  0.1467  0.0955 -0.1381
16083W        W31214   1.309  11.426  12.107 -0.0294  0.2531 -0.2168
16084W        W31215  11.463   4.214  11.148  0.0925  0.2775 -0.1969
16085W        W31216  13.870   5.073   2.272 -0.4446  0.2454  0.1443
16086W        W31217   5.407   5.484   1.219  0.2405 -0.0586 -0.0922
16087W        W31218   3.679  11.373  13.996  0.1319 -0.0721  0.4949
16088W        W31219   2.471  14.761  11.089 -0.0283  0.2774  0.1575
16089W        W31220  14.477  11.092   3.390 -0.0047 -0.0136  0.0458
16090W        W31221   0.221   4.580  11.750 -0.2487 -0.0735  0.0694
16091W        W31222   1.923   6.662  12.094  0.2084  0.0238  0.1041
16092W        W31223   1.249  17.642  10.463 -0.2744 -0.0700 -0.0365
16093W        W31224  15.594  13.297  11.421  0.1867  0.0114 -0.2608
16094W        W31225  16.155   0.982  11.508  0.0631  0.0018  0.0909
16095W        W31226  13.900   8.965  14.726  0.1601 -0.3734 -0.3955
16096W        W31227   1.685  11.449  12.429 -0.1580  0.2169 -0.2017
16097W        W31228   1.125  18.083  11.731 -0.2654  0.2823 -0.3719
16098W        W31229  17.267   6.166   0.108  0.1209  0.1376 -0.0872
16099W        W31230  17.148  13.477   2.001 -0.1168 -0.4875 -0.0725
16100W        W31231   5.615  12.942   6.127 -0.2089  0.1840  0.0480
16101W        W31232  17.480  13.095   0.194  0.1998  0.2135 -0.2118
16102W        W31233  16.728  14.974   0.008 -0.0664 -0.0815 -0.1872
16103W        W31234  16.049  12.201   9.886 -0.1202 -0.1677 -0.0105
16104W        W31235   3.900   1.739  15.649 -0.1746  0.0612  0.0956
16105W        W31236  16.811  12.939   4.425  0.0009 -0.1098 -0.0545
16106W        W31237  10.079  17.708  11.788 -0.1634 -0.5016  0.0548
16107W        W31238   0.097   4.279   4.328  0.1877  0.2857  0.0419
16108W        W31239  13.644   8.021  15.283  0.0346  0.3092 -0.1320
16109W        W31240   8.438   3.234  15.763  0.1367 -0.2043 -0.0995
16110W        W31241   8.664  14.109  14.349 -0.1630  0.1835 -0.0448
16111W        W31242  11.787   6.927  12.775  0.0854  0.0852 -0.0975
16112W        W31243   7.292  17.757  11.212 -0.1205 -0.2145 -0.0383
16113W        W31244   7.694  11.603  12.592  0.3509  0.2932 -0.0162
16114W        W31245  16.665   6.954  14.554 -0.1355 -0.0691 -0.2194
16115W        W31246   3.154   5.423   3.113  0.0741  0.2098 -0.1247
16116W        W31247   5.106  18.153   0.265 -0.0931  0.0861  0.2631
16117W        W31248   5.749   0.833   6.392 -0.0477  0.0547 -0.1290
16118W        W31249  12.356   8.431  12.034  0.2103  0.5551 -0.0059
16119W        W31250   1.816   7.882   4.621  0.1260  0.2415  0.2016
16120W        W31251  13.016  17.379   1.696 -0.0177  0.1294 -0.0470
16121W        W31252   2.967  13.892  11.991  0.3894  0.0948  0.1427
16122W        W31253  10.175   4.611   5.444  0.2651  0.0247 -0.2773
16123W        W31254   5.371  14.473  13.726 -0.0429  0.1680 -0.0603
16124W        W31255   0.943  14.049   0.851 -0.1015  0.1074 -0.1385
16125W        W31256   1.408   5.719  10.257 -0.0820  0.1223 -0.0961
16126W        W31257   3.334  16.551   2.122  0.0541 -0.1059 -0.2244
16127W        W31258   7.062   2.179  12.274  0.2066 -0.0275  0.1730
16128W        W31259   1.174   8.369   2.122  0.1553  0.0247  0.1225
16129W        W31260  14.708   6.621  15.919 -0.0732 -0.0608 -0.2721
16130W        W31261   9.544  12.213   3.940  0.0764 -0.0168  0.3039
16131W        W31262   0.539   2.603   6.138 -0.0341  0.2528  0.0125
16132W        W31263   0.159   8.406   2.737 -0.0705  0.0850 -0.1089
16133W        W31264   5.837   4.982   4.731  0.3895  0.1133  0.2321
16134W        W31265  15.306   2.286   4.550  0.0193 -0.0483 -0.1267
16135W        W31266   8.379  13.272  14.588  0.2715  0.0094  0.1798
16136W        W31267  14.355   8.640  15.482  0.2838  0.2065 -0.1826
16137W        W31268  13.054  15.820   9.760 -0.2252  0.0273 -0.0033
16138W        W31269   6.647  12.864   2.227  0.1857  0.0361 -0.1363
16139W        W31270   8.727   0.135  13.917  0.2230 -0.4334  0.2141
16140W        W31271  17.447   7.949  10.998  0.1421 -0.2107  0.1284
16141W        W31272   7.315  10.881   3.413  0.1100 -0.2621  0.2573
16142W        W31273   4.829  17.913   2.808 -0.6307  0.1839  0.0484
16143W        W31274   2.752   3.133  15.177 -0.0472  0.0808  0.1587
16144W        W31275  12.900   2.884   1.340 -0.0171  0.0266 -0.0959
16145W        W31276  16.063   6.660  15.340  0.0065 -0.1622 -0.0669
16146W        W31277   1.752   6.849   3.553 -0.0244  0.0281  0.2887
16147W        W31278   0.568  16.227  16.071  0.0237 -0.1460  0.0072
16148W        W31279   3.091   0.792  15.551 -0.0341 -0.0719 -0.2272
16149W        W31280   3.753   0.848   0.943 -0.1953 -0.1546 -0.0643
16150W        W31281   1.604   9.132  15.685 -0.1377 -0.1910  0.1093
16151W        W31282  13.223  11.646   2.258 -0.0536  0.0931  0.0869
16152W        W31283  18.337  15.787  12.705  0.1616 -0.0280 -0.0417
16153W        W31284  15.600  17.140  15.197 -0.3800 -0.0739  0.2613
16154W        W31285   1.669  14.893   2.850  0.1813  0.0728 -0.0517
16155W        W31286   1.085   3.108   5.039  0.0494  0.0776 -0.3515
16156W        W31287   5.007   4.730   3.400  0.1959  0.3104  0.0293
16157W        W31288  16.801  17.450   2.584 -0.0349  0.1907  0.2003
16158W        W31289   3.980  11.754   1.844 -0.1929  0.0017  0.0707
16159W        W31290   8.165   5.389   3.675  0.1778 -0.2773 -0.1687
16160W        W31291  13.551   4.991   1.720  0.2664 -0.0653 -0.0228
16161W        W31292  10.498  10.124  14.783  0.0372 -0.1174  0.0290
16162W        W31293  10.251   1.161  12.355  0.0274 -0.2009 -0.2372
16163W        W31294   1.937   6.573   3.053 -0.3936 -0.0266  0.1941
16164W        W31295  15.571   1.782  14.098  0.2718  0.0726 -0.0513
16165W        W31296   1.716   8.837  11.351 -0.1034 -0.2082  0.0621
16166W        W31297  11.168   9.921   0.372  0.2005  0.0509 -0.1513
16167W        W31298  13.491   9.803  11.653  0.0035 -0.1751 -0.1560
16168W        W31299  15.691   8.282   2.655 -0.0513  0.1267 -0.0407
16169W        W31300  10.497  11.209  13.417 -0.3271 -0.0034 -0.0654
16170W        W31301   9.351   1.522  12.101  0.1993  0.3613 -0.1807
16171W        W31302   1.633   2.346  15.954 -0.1972  0.0138  0.2696
16172W        W31303   8.459  15.711  15.761 -0.3773 -0.1659 -0.2899
16173W        W31304  17.726   8.730  14.433  0.0543 -0.3402 -0.1700
16174W        W31305   9.541   8.200  13.916  0.0218  0.1062  0.3470
16175W        W31306   5.340   9.286  10.538  0.1702 -0.1106 -0.1703
16176W        W31307  13.535   7.130   5.096 -0.0346 -0.4390  0.0372
16177W        W31308  11.608   3.841  14.766 -0.2878  0.0733  0.0877
16178W        W31309   9.382  12.345   1.526  0.1509  0.2355  0.2567
16179W        W31310   3.898  13.911  11.129  0.2996 -0.1560 -0.0306
16180W        W31311  11.691  16.484  12.253 -0.1934  0.0093 -0.0775
16181W        W31312   3.714   7.515  12.661  0.1333  0.0587  0.1115
16182W        W31313   8.139   5.173  10.473  0.0906  0.2301 -0.0905
16183W        W31314  13.918  14.711   3.193  0.0220  0.1185 -0.1875
16184W        W31315  14.444   2.605  12.913  0.3567 -0.3309 -0.1740
16185W        W31316   9.176   1.095  13.899 -0.2565  0.2145 -0.1585
16186W        W31317   8.550   1.989   0.273  0.2684  0.0000  0.1817
16187W        W31318   6.956   6.951  11.820  0.0505 -0.0850  0.3665
16188W        W31319   5.583   0.376  11.385  0.0047 -0.1182 -0.3223
16189W        W31320   6.378  16.603  14.443 -0.2665 -0.0219  0.1010
16190W        W31321  15.323   3.238   3.320 -0.2181 -0.1975 -0.1635
16191W        W31322  15.613  10.150   0.956 -0.1051  0.0638  0.2862
16192W        W31323   6.591  10.295  14.781 -0.0787 -0.0748  0.0364
16193W        W31324  15.677  13.232   1.958 -0.1910 -0.1951 -0.2780
16194W        W31325  16.345  12.685   2.392 -0.2696 -0.1225 -0.1604
16195W        W31326  12.329   8.558   0.245 -0.1062 -0.1869  0.1704
16196W        W31327   1.755   3.259   2.281  0.1791 -0.0373 -0.2701
16197W        W31328   5.038  12.857  12.227  0.2100  0.1571  0.0702
16198W        W31329   0.622   7.858  14.745  0.2219 -0.0087  0.3294
16199W        W31330  17.460   0.712  13.808  0.0345  0.1625 -0.2716
16200W        W31331  10.011   0.638  12.992  0.0310  0.1844  0.3694
16201W        W31332   7.381  17.759   4.305  0.0780  0.2879  0.0705
16202W        W31333   8.178  13.563   3.175 -0.1277  0.0322  0.0931
16203W        W31334   1.867  14.574   5.378  0.1114 -0.1594 -0.0737
16204W        W31335   9.339   7.976   2.698 -0.0120  0.1486  0.0007
16205W        W31336   0.881   7.848  10.705  0.2792 -0.1938  0.1332
16206W        W31337   7.716   8.569  14.249 -0.0165 -0.1379 -0.0958
16207W        W31338  12.410   4.805  12.569  0.1460 -0.3867  0.0225
16208W        W31339  15.834   9.100  11.957 -0.3202  0.2123  0.0653
16209W        W31340  15.186   2.384   5.550  0.1810  0.1585 -0.1650
16210W        W31341   1.370   8.556  14.344  0.0327 -0.0007  0.4547
16211W        W31342   2.568  11.252   2.938  0.1226 -0.1023 -0.4029
16212W        W31343   6.655   8.838   2.877  0.2715 -0.0827 -0.1809
16213W        W31344   8.393   4.008  15.111 -0.0594 -0.0872 -0.4026
16214W        W31345  16.259  11.591   0.193 -0.1153 -0.0031 -0.4276
16215W        W31346  12.879   6.352   1.926  0.1616  0.0334  0.0806
16216W        W31347  15.674   8.222  13.282  0.0479  0.0356 -0.2710
16217W        W31348  16.993  15.257   3.993 -0.2318  0.0743 -0.0623
16218W        W31349   8.475  10.489   3.790 -0.0962  0.1372  0.0058
16219W        W31350   6.939   4.922  14.580 -0.5509  0.2668 -0.3854
16220W        W31351   4.537  11.488   0.091 -0.2437 -0.2299 -0.1142
16221W        W31352   7.176  15.493   5.862 -0.2186 -0.0007 -0.0725
16222W        W31353   5.491  15.236   3.463  0.1809 -0.4045 -0.3856
16223W        W31354  13.683  11.794  13.234  0.0757  0.0364 -0.0909
16224W        W31355  11.786  10.510  11.514 -0.0898  0.0232 -0.1697
16225W        W31356  13.407  17.799  15.810 -0.0418  0.1229 -0.0553
16226W        W31357  15.359  16.388   0.101  0.1707 -0.1467  0.0358
16227W        W31358  12.866   7.330   0.700 -0.2815  0.0559 -0.0342
16228W        W31359   8.257  11.073  14.663  0.4811 -0.6706 -0.2513
16229W        W31360  16.663  12.835  15.241 -0.2476 -0.1822  0.0244
16230W        W31361   0.316   8.265   3.464  0.2358  0.2265 -0.1168
16231W        W31362   9.545   0.063  11.802  0.1692  0.0566 -0.1744
16232W        W31363   4.587   8.710  15.994  0.0937 -0.1142 -0.3081
16233W        W31364  17.169   6.786   4.972  0.1888 -0.0259  0.1120
16234W        W31365   1.279   2.421   0.843 -0.0113  0.2993 -0.0624
16235W        W31366   0.619  14.384   2.335  0.2104 -0.1815  0.0297
16236W        W31367  17.715  10.912   3.813  0.3012  0.2810  0.1387
16237W        W31368   7.536   0.634   2.618 -0.3158  0.0780 -0.0282
16238W        W31369  14.974   3.227   4.730 -0.0610 -0.0506  0.1553
16239W        W31370  10.379   3.346  12.427  0.1468  0.4599 -0.0867
16240W        W31371   5.995   3.983  13.868 -0.2083  0.1466 -0.0271
16241W        W31372  11.787   7.984   1.516  0.1397 -0.0484  0.0914
16242W        W31373  10.602  16.591   5.101  0.0546 -0.1763 -0.0778
16243W        W31374   6.297   1.526  13.069  0.4163 -0.1730 -0.0754
16244W        W31375   4.780  16.617  13.251 -0.0629  0.2286 -0.0722
16245W        W31376  11.942  13.173   0.719 -0.2104  0.1067  0.0755
16246W        W31377   1.526   7.560  14.479  0.3197  0.1172 -0.1643
16247W        W31378  15.415  17.268  11.601 -0.2136 -0.0973  0.5024
16248W        W31379   7.297   5.861  11.092 -0.0170 -0.0716  0.0413
16249W        W31380  12.334  16.230   5.578 -0.2959 -0.2152 -0.0806
16250W        W31381   6.491  17.482   3.376  0.0247 -0.2010 -0.0643
16251W        W31382   9.659   2.448  15.366 -0.0251 -0.0834  0.0981
16252W        W31383  13.140  10.868  12.477  0.2994  0.1764 -0.3372
16253W        W31384  16.179  14.066  15.242  0.0150 -0.0407  0.0454
16254W        W31385  14.842   4.604   4.472  0.0660 -0.3408  0.3442
16255W        W31386  13.114   2.108   4.585 -0.0429 -0.0043  0.1199
16256W        W31387  10.970  13.569  13.445  0.4326  0.0623 -0.1440
16257W        W31388  15.781   5.694   0.335  0.0043 -0.0182 -0.2933
16258W        W31389   1.312  18.247  14.227  0.2908  0.0135 -0.0412
16259W        W31390   9.356   3.529  10.377  0.1833 -0.1431  0.2368
16260W        W31391   3.608   7.936   0.221 -0.0097 -0.0346  0.0591
16261W        W31392   3.786  18.123  13.523  0.1797 -0.0890  0.0492
16262W        W31393  17.872  14.110  12.103 -0.0318 -0.2958 -0.1684
16263W        W31394  12.056   6.940  16.099 -0.0763  0.0811 -0.0751
16264W        W31395   1.281  14.059  11.375  0.0289 -0.0346 -0.1930
16265W        W31396  15.606   3.574   1.113 -0.1765 -0.2905 -0.0109
16266W        W31397   2.373   6.532   1.713 -0.6823  0.0692 -0.1480
16267W        W31398  14.443  13.153   3.334  0.2593 -0.2032 -0.3249
16268W        W31399   8.849   1.659  12.289  0.1234  0.2857  0.0314
16269W        W31400   6.307  12.708  13.617  0.1555 -0.1027  0.1826
16270W        W31401  14.967  15.285   0.153 -0.4471  0.0504 -0.1420
16271W        W31402  10.944   7.198  15.081 -0.1209 -0.1532 -0.2618
16272W        W31403  13.879   7.271  15.606  0.0663 -0.0625 -0.1323
16273W        W31404   4.186   3.777  15.780  0.0455 -0.0273 -0.0665
16274W        W31405  12.222  12.541  14.318 -0.0472 -0.0617 -0.3253
16275W        W31406   8.231  12.278   0.725  0.1099  0.2349 -0.0332
16276W        W31407  16.705   2.039  13.429 -0.1714  0.2767  0.0523
16277W        W31408   0.246  14.252  14.048  0.0355  0.0579 -0.1400
16278W        W31409   7.670   3.157  15.840 -0.0235 -0.0481  0.2018
16279W        W31410   0.425  14.819  11.743  0.1513  0.2395  0.1801
16280W        W31411  13.166  17.827  10.312  0.0367 -0.2176 -0.3185
16281W        W31412   5.354  10.105   0.720 -0.1917  0.2010 -0.1066
16282W        W31413   7.396  10.758  10.409 -0.3298  0.0054  0.3287
16283W        W31414  10.590  14.349  12.602  0.2692 -0.0014 -0.0420
16284W        W31415   5.109  10.141   2.003  0.1752 -0.0591 -0.1122
16285W        W31416   5.379   2.304  15.774 -0.0096 -0.0767 -0.0403
16286W        W31417   0.694   8.479   1.819 -0.2653  0.0447  0.0168
16287W        W31418   9.838  16.001  11.093  0.1103 -0.0964  0.1087
16288W        W31419   1.801   1.137  12.195 -0.1161 -0.0154 -0.0399
16289W        W31420  12.048   6.674  11.627 -0.0730  0.0630 -0.2473
16290W        W31421   0.817   3.731   2.592 -0.0772 -0.3214 -0.0653
16291W        W31422  16.076  13.999  13.967  0.1435  0.1471  0.0464
16292W        W31423  11.897  16.374  12.670  0.0728 -0.2426 -0.2465
16293W        W31424   6.058  14.679  13.650  0.5598 -0.3404  0.2279
16294W        W31425  10.904  16.891   1.036 -0.3052 -0.2282 -0.1521
16295W        W31426   9.839  10.681   5.110 -0.0433 -0.0203  0.1774
16296W        W31427  12.078  17.180   3.435  0.2939 -0.3469  0.0891
16297W        W31428   0.426  15.451  13.909 -0.3324  0.2535  0.0686
16298W        W31429   5.457  12.142  14.610  0.1772  0.3006  0.1224
16299W        W31430  10.731  13.119  15.097  0.1471 -0.0142  0.2117
16300W        W31431   8.304   8.180   0.170  0.1774  0.0901 -0.0905
16301W        W31432   5.488  13.006   5.041  0.2131 -0.0993 -0.0120
16302W        W31433  12.115   6.253  10.114  0.0779 -0.2188  0.0103
16303W        W31434  10.690   3.666  15.196  0.3034  0.1010  0.2204
16304W        W31435   1.520   2.339  14.258  0.0531 -0.3361  0.2152
16305W        W31436  16.488   6.751  11.175  0.2163 -0.1161 -0.0773
16306W        W31437  18.067   5.968   0.883  0.0958 -0.2948 -0.0281
16307W        W31438   5.555   2.993   0.239  0.0761 -0.1171 -0.1974
16308W        W31439  15.744   6.390   1.750 -0.1647 -0.0887 -0.1981
16309W        W31440   0.875  11.317  11.860 -0.0615 -0.2305  0.3820
16310W        W31441   3.054   0.446   4.659 -0.0208  0.2016 -0.1467
16311W        W31442  17.852  15.272   6.134 -0.1155 -0.0036 -0.0533
16312W        W31443   8.917  12.181  10.734 -0.3167  0.3034  0.2916
16313W        W31444  10.881   1.810   3.424 -0.0033  0.0350 -0.2084
16314W        W31445   8.038  10.534   1.399 -0.1726 -0.0689 -0.0690
16315W        W31446  11.763   0.669  12.495  0.1692 -0.2391  0.2510
16316W        W31447   8.830  17.063   3.698 -0.2275  0.1488 -0.2209
16317W        W31448   9.050   7.896   2.246 -0.1263 -0.3542 -0.0890
16318W        W31449   9.596  10.318   4.730 -0.0643  0.0642 -0.3051
16319W        W31450   5.988   0.610  11.659  0.1608  0.1650  0.0829
16320W        W31451   1.852   1.057   1.113  0.2926  0.3317 -0.1093
16321W        W31452   3.787  12.892   1.924 -0.2144  0.0231 -0.0798
16322W        W31453  15.830  12.189  13.690  0.4093  0.1751 -0.2512
16323W        W31454   2.105  14.791   2.113 -0.0812 -0.0191 -0.2410
16324W        W31455  12.661  16.677  15.471 -0.0099 -0.0453 -0.2368
16325W        W31456  12.788   0.514   2.705 -0.0945  0.2204 -0.1611
16326W        W31457   9.810  11.649   1.925  0.1179 -0.0657 -0.2844
16327W        W31458   1.647   8.861  14.735  0.2007 -0.1222 -0.2705
16328W        W31459  16.388   3.107  11.361 -0.0498 -0.3445 -0.2792
16329W        W31460  15.737   6.945   4.262  0.0844 -0.1944 -0.0493
16330W        W31461  11.405   8.876   1.910 -0.1439 -0.2955 -0.2198
16331W        W31462   8.481   8.340  12.622  0.1679  0.1619 -0.1304
16332W        W31463  11.775   9.927   0.713  0.0590 -0.1278  0.0313
16333W        W31464   9.975  11.356  11.129 -0.0480 -0.0730 -0.0452
16334W        W31465   6.610   0.487  12.404  0.0805  0.0389 -0.1967
16335W        W31466   2.746  14.858   0.751  0.0131  0.0773  0.1244
16336W        W31467  14.947   5.531   3.340 -0.1066  0.2029 -0.1105
16337W        W31468   1.047  16.733   5.037 -0.0043 -0.2171  0.1367
16338W        W31469   4.691  12.466  10.989  0.3114  0.3931 -0.1931
16339W        W31470   9.744   7.718   4.679  0.2770 -0.0754  0.0647
16340W        W31471  16.269   4.555   2.421 -0.1094  0.1295  0.3770
16341W        W31472   7.923   6.193   1.917  0.1076 -0.0993  0.2640
16342W        W31473  11.162   6.281   4.051 -0.1664  0.2557  0.1360
16343W        W31474   5.115  10.761  12.105  0.0387 -0.0786  0.3124
16344W        W31475  15.299  17.635   2.406 -0.0797  0.0325  0.0590
16345W        W31476   1.061   3.557  12.869 -0.0961  0.0399 -0.1656
16346W        W31477   1.060   7.952   3.901 -0.0941 -0.2649  0.0727
16347W        W31478   0.797  16.968  14.879  0.1136  0.2242 -0.2066
16348W        W31479  10.245  17.626   2.529  0.1577  0.2171  0.0952
16349W        W31480  14.672  13.640   0.046 -0.0332  0.1919  0.1037
16350W        W31481  15.061  11.695   3.108  0.0774  0.1150 -0.1519
16351W        W31482  15.528   8.581  11.239 -0.0196  0.2393 -0.1532
16352W        W31483  16.283  12.342   4.407  0.0211 -0.0735  0.1419
16353W        W31484  14.220   3.597   6.028 -0.0393 -0.1909  0.0793
16354W        W31485   5.694   1.996   4.364 -0.1791 -0.0510  0.1999
16355W        W31486   0.127  17.614  15.583  0.0495 -0.0789  0.0944
16356W        W31487   7.081   2.730  12.084  0.2765  0.0398 -0.0516
16357W        W31488   2.630  17.314   6.054  0.3200 -0.1287 -0.1274
16358W        W31489   0.790   9.225   5.169  0.0716  0.0187  0.0700
16359W        W31490   1.025  14.474   1.441  0.1209 -0.2420 -0.0873
16360W        W31491  16.278  17.781  11.318  0.0322  0.0667  0.2439
16361W        W31492  18.080  10.880   5.721  0.1355  0.2327 -0.1420
16362W        W31493   4.479   2.732   5.471  0.0273 -0.0540 -0.1252
16363W        W31494   8.143   8.019  10.278  0.0124  0.4073  0.0400
16364W        W31495   9.121   6.749  11.328  0.1190 -0.2185  0.0460
16365W        W31496  15.910  17.306   1.613 -0.1623  0.0248 -0.1815
16366W        W31497  13.457   1.371   3.395  0.2052 -0.2502  0.1724
16367W        W31498   4.482  16.508  15.081 -0.2380 -0.2370  0.1547
16368W        W31499  12.254  11.109   9.919  0.0063 -0.0865 -0.2206
16369W        W31500  17.434   1.558   0.543  0.1992 -0.1527  0.2603
16370W        W31501  14.950   7.060   4.675  0.0335 -0.4449  0.3235
16371W        W31502  13.206  16.949   2.046 -0.0502  0.3734  0.0350
16372W        W31503   6.496   4.453   1.425 -0.3536  0.1666 -0.1678
16373W        W31504   6.465   9.640   1.818  0.0622  0.0565  0.0081
16374W        W31505  11.801   4.777   1.523 -0.0377 -0.0206 -0.3987
16375W        W31506   0.099  16.825   1.311  0.0027 -0.0788  0.1729
16376W        W31507   4.558   8.937  11.378 -0.0420 -0.0328 -0.0362
16377W        W31508   7.706  14.493  12.083  0.0756 -0.0931 -0.0118
16378W        W31509   4.858   3.366  12.786 -0.0939 -0.0702  0.3758
16379W        W31510  12.843   8.850  10.679  0.1099 -0.0145 -0.0517
16380W        W31511  12.916  14.477   3.714 -0.2206 -0.0099  0.1106
16381W        W31512   4.015   5.483   0.753 -0.2545 -0.2093  0.1994
16382W        W31513   2.928  14.920  14.998 -0.2615  0.2277  0.3012
16383W        W31514   2.501  16.978  16.118 -0.1943  0.1214  0.1154
16384W        W31515   9.250  17.804   4.881 -0.2234 -0.1735  0.4612
16385W        W31516   5.927  14.799  15.947  0.2110 -0.0778  0.0386
16386W        W31517   5.260  11.189  13.033 -0.2217 -0.0673 -0.1061
16387W        W31518   4.666   7.652  12.254  0.0478 -0.0385 -0.1184
16388W        W31519   0.126  11.059   1.917 -0.0609 -0.2496  0.1540
16389W        W31520  15.019  13.023  13.456  0.0589  0.0554 -0.1284
16390W        W31521   3.413   3.256   3.684 -0.0749 -0.0466  0.1203
16391W        W31522  14.427   3.932  14.349  0.0617  0.2409  0.1557
16392W        W31523   5.463  14.966   1.710  0.1858 -0.0200 -0.3343
16393W        W31524   8.533   2.387   4.950  0.1238  0.1960  0.0944
16394W        W31525   9.231  10.297  12.694  0.0504  0.0922  0.1384
16395W        W31526   5.019   6.461  11.839 -0.0195  0.0648 -0.1117
16396W        W31527   0.410   2.839  14.510  0.3346 -0.6279 -0.0261
16397W        W31528  14.370  12.187   3.164  0.1406  0.2355 -0.1080
16398W        W31529   9.169  12.843   0.282 -0.4742  0.1493 -0.1906
16399W        W31530   0.944  12.130  10.008 -0.0040  0.0966 -0.3823
16400W        W31531   5.128   6.928   1.053 -0.1838  0.0444 -0.4453
16401W        W31532   4.176   6.901  12.483  0.2987 -0.2443 -0.1021
16402W        W31533   6.009  11.383   1.560  0.1412 -0.0980  0.1298
16403W        W31534   4.885  15.075   1.234  0.1691 -0.0198 -0.3326
16404W        W31535   7.356   5.245  14.983  0.0749 -0.2541  0.1178
16405W        W31536   2.071  17.757  11.864  0.1522  0.0740 -0.1501
16406W        W31537   4.596   6.625  13.248 -0.2194 -0.3239  0.0169
16407W        W31538   4.459   6.031  15.352  0.1637 -0.2170 -0.0099
16408W        W31539  12.838  13.996   5.175  0.1057  0.1761 -0.1158
16409W        W31540  13.382   7.164  15.482 -0.3012  0.2403  0.4495
16410W        W31541  11.869   2.015  11.470 -0.1208 -0.0516  0.0379
16411W        W31542   9.960  11.958   0.874  0.1955 -0.1375  0.0071
16412W        W31543  10.897  16.129   5.073  0.1116  0.0245 -0.0130
16413W        W31544  10.173   6.546   4.589  0.1404  0.0068 -0.3691
16414W        W31545  17.544  16.532  15.352 -0.1345  0.4670 -0.2530
16415W        W31546  13.298  18.273   4.441 -0.0440  0.0371 -0.0257
16416W        W31547  13.870  15.685  13.770  0.1246 -0.0032 -0.1582
16417W        W31548   5.277   3.319   5.107  0.0633  0.0874 -0.1076
16418W        W31549  15.488   9.624  10.816  0.0994 -0.1247  0.0650
16419W        W31550  11.470   0.060   3.175  0.0949 -0.0411  0.3693
16420W        W31551  14.931  17.448   0.752  0.3038  0.1002 -0.1345
16421W        W31552   1.375  11.572   1.800  0.1993 -0.2690  0.1381
16422W        W31553  12.136  14.232   3.120 -0.1271 -0.0506  0.2827
16423W        W31554   3.511  17.584   2.347 -0.1917 -0.0827  0.3603
16424W        W31555  13.381   4.625   1.263 -0.0359 -0.1493  0.1697
16425W        W31556  16.674  12.478   4.783  0.0374  0.2414  0.0313
16426W        W31557  13.964   4.832   4.577  0.1573 -0.3251  0.0494
16427W        W31558   2.955   2.596   3.344  0.2347  0.3743 -0.1778
16428W        W31559  10.971   2.906  14.793  0.1431 -0.0503 -0.0458
16429W        W31560   0.370   6.816   1.031  0.1141  0.1328  0.0769
16430W        W31561   3.193   6.777  12.985 -0.1396 -0.1732 -0.0566
16431W        W31562  11.437   5.946   2.624  0.0519 -0.1948 -0.1723
16432W        W31563  14.603   1.233   0.373  0.2611 -0.2307  0.1069
16433W        W31564   8.467  13.207   2.918  0.0988 -0.3990 -0.2430
16434W        W31565  10.668  15.652   0.349  0.1753  0.1186  0.1730
16435W        W31566  10.944   6.800   5.694  0.0383  0.1144  0.2174
16436W        W31567   5.521  11.558  15.249 -0.2723 -0.0456 -0.2985
16437W        W31568   0.476   1.674  13.886  0.1157 -0.0106 -0.2457
16438W        W31569  14.499  15.035   1.522 -0.0649 -0.1558  0.3677
16439W        W31570  17.917   0.046   0.952 -0.1432  0.0802  0.0076
16440W        W31571   7.163   2.968  15.786  0.0184  0.1949  0.1569
16441W        W31572  12.317  13.877   0.659  0.2863  0.3563 -0.0285
16442W        W31573   7.772  10.222  11.222  0.0435 -0.2650  0.0950
16443W        W31574  13.985  13.081   0.844 -0.0074 -0.0917  0.5032
16444W        W31575   2.359   1.598  14.845 -0.1241  0.3122 -0.1104
16445W        W31576  10.812   5.965   3.876 -0.0898  0.0227  0.0780
16446W        W31577   5.812  13.989   1.709 -0.0176 -0.2654  0.1864
16447W        W31578   1.303   1.719   3.183 -0.0868 -0.0165  0.4440
16448W        W31579   2.867   6.807  13.391 -0.1451  0.1010  0.1988
16449W        W31580  12.291   1.198   1.114  0.1404 -0.3151  0.0408
16450W        W31581  12.651   7.028   4.728 -0.0930  0.0776  0.1539
16451W        W31582   8.743  14.329   0.934  0.3116 -0.2405 -0.0531
16452W        W31583   3.902  13.660   4.809 -0.1857  0.0302 -0.3020
16453W        W31584   4.653  17.971   1.709  0.1504  0.3558 -0.0014
16454W        W31585   6.847  18.111  12.593  0.1636  0.0609 -0.0840
16455W        W31586  17.544  16.881  11.494  0.1459 -0.3130 -0.2235
16456W        W31587   0.753  16.600  13.502  0.2728 -0.1176  0.1684
16457W        W31588   6.411   2.841   2.936 -0.1280 -0.2475 -0.2091
16458W        W31589   5.712   4.763  14.986 -0.0286 -0.0754 -0.0800
16459W        W31590   8.930  11.361   3.016 -0.2171 -0.0491  0.1357
16460W        W31591   7.034   6.635   2.914  0.0928 -0.1226  0.2456
16461W        W31592  15.565   4.057   1.243 -0.1170 -0.0858 -0.0075
16462W        W31593   5.161   1.870  14.872  0.1435 -0.1240  0.0146
16463W        W31594  14.403   7.797   2.927  0.4751  0.1930 -0.0173
16464W        W31595  18.360   2.231  11.444  0.1161 -0.0210 -0.0909
16465W        W31596   7.067   5.285   1.120  0.1172  0.0242 -0.1265
16466W        W31597  16.150  16.760  11.774 -0.0390  0.1515 -0.0414
16467W        W31598  12.694   8.239  15.046 -0.0672 -0.0021  0.2277
16468W        W31599  14.421  14.072  15.516 -0.2994 -0.2391 -0.1686
16469W        W31600   2.234  16.052   5.282 -0.3026  0.2144  0.0161
16470W        W31601   8.405   4.108  11.241  0.1906 -0.1040  0.1576
16471W        W31602   7.995   7.963  15.040 -0.4900 -0.0787  0.1766
16472W        W31603   7.455  15.216  13.338 -0.0322  0.1186 -0.0057
16473W        W31604  12.393  14.895  15.341 -0.0034 -0.0834  0.0030
16474W        W31605  12.047  15.735   1.955 -0.0393 -0.0283 -0.3853
16475W        W31606   5.714   5.940   4.166  0.2405 -0.1397 -0.0125
16476W        W31607   5.609   5.710   2.002 -0.3796  0.0573  0.1719
16477W        W31608   6.212   3.159   4.214  0.2031  0.0751  0.1934
16478W        W31609  16.769   6.948   2.295  0.1683 -0.2350  0.1645
16479W        W31610  11.370   9.165  15.748  0.3321  0.3464 -0.1261
16480W        W31611   4.317   6.058   0.231 -0.0349  0.1770 -0.0556
16481W        W31612   6.381  16.864  14.958 -0.0701  0.0775  0.0295
16482W        W31613  15.211   8.933  15.641 -0.2379 -0.1232 -0.0585
16483W        W31614  17.235   5.730   0.629 -0.1378 -0.1959 -0.0285
16484W        W31615   0.421  13.611  12.391 -0.3469 -0.1131 -0.1548
16485W        W31616  14.081   2.819   4.765 -0.0170  0.1137 -0.1179
16486W        W31617  13.924   5.053  15.948 -0.3790 -0.2480 -0.0714
16487W        W31618  12.611   5.952   1.808  0.0022  0.2447  0.2146
16488W        W31619  11.508  17.152  10.830 -0.0073 -0.0162  0.0161
16489W        W31620  12.125  13.186   1.234  0.0213  0.0337 -0.3222
16490W        W31621   8.802   2.193  10.763 -0.1229 -0.2548 -0.3286
16491W        W31622   6.214   6.880   0.035  0.0659 -0.1489  0.1249
16492W        W31623  12.333   2.133  13.476 -0.0592  0.2563  0.1274
16493W        W31624   1.007   2.019  11.684 -0.1112 -0.0925  0.2810
16494W        W31625   2.320  13.879   1.317  0.2607  0.1699  0.0854
16495W        W31626  14.790   7.750  13.695  0.1175 -0.3713  0.1489
16496W        W31627   6.270   0.413   0.596  0.0361  0.1076  0.0116
16497W        W31628   1.437   1.330  11.741  0.2788  0.2738  0.1297
16498W        W31629  17.792  10.211   1.065 -0.0728  0.0946 -0.0057
16499W        W31630   3.301  10.232  11.157  0.3857 -0.0004  0.2956
16500W        W31631   1.802  11.249  15.286  0.3794 -0.1365  0.0855
16501W        W31632  15.728  13.525   5.215  0.2902 -0.0591 -0.2907
16502W        W31633  17.857   0.274   3.707  0.0634 -0.1028  0.0854
16503W        W31634  12.990   9.960  11.819 -0.1627 -0.1959  0.1111
16504W        W31635  13.764   7.114  12.164 -0.3651  0.1162 -0.0660
16505W        W31636  12.827  15.516   4.305 -0.1986  0.0929 -0.4131
16506W        W31637  12.187   8.958   1.627  0.2703  0.2320 -0.1152
16507W        W31638  17.561   4.124  12.108 -0.1077  0.0808  0.1146
16508W        W31639  14.602  13.446  14.678  0.2695 -0.3948 -0.4602
16509W        W31640   1.949   2.627  11.686  0.0622  0.0368  0.2326
16510W        W31641   1.772  16.562  12.394  0.0714  0.0415 -0.0636
16511W        W31642  10.888  14.119   2.706 -0.3203 -0.2015  0.0914
16512W        W31643  11.166   3.822  14.401 -0.0374  0.0269  0.1097
16513W        W31644   6.797   5.733  14.263  0.5129 -0.1309 -0.1692
16514W        W31645  16.434   4.170   1.505  0.1368  0.0493  0.1412
16515W        W31646   6.400   0.743  11.913 -0.2745 -0.1833 -0.2114
16516W        W31647  17.604  15.846   4.714  0.1308 -0.1791 -0.5663
16517W        W31648   5.242   9.503  11.463  0.0117 -0.2271 -0.0214
16518W        W31649   3.062  11.037  11.001  0.1752  0.1501  0.1153
16519W        W31650   4.837   6.756   1.464  0.1638  0.2257 -0.1925
16520W        W31651  15.474   7.289   0.148  0.0804  0.1431 -0.1670
16521W        W31652  15.900  11.032   5.433 -0.2149 -0.1936 -0.2067
16522W        W31653  14.140   3.164   2.311  0.1740 -0.0693  0.1331
16523W        W31654   8.173  12.915   2.113 -0.0401  0.2219  0.3028
16524W        W31655   4.976  11.983   3.951 -0.2006 -0.1915 -0.0278
16525W        W31656  10.004  13.501  10.783 -0.1802  0.1699 -0.1674
16526W        W31657   5.355  13.025  11.652  0.1396 -0.0858  0.2214
16527W        W31658   1.844   6.989  13.046 -0.1323  0.2522  0.2143
16528W        W31659  18.108  12.491   5.566 -0.2886  0.3308  0.0627
16529W        W31660  17.496   9.391   1.701  0.1665  0.2827 -0.1181
16530W        W31661  14.572   9.105  14.565  0.0770  0.2694  0.1581
16531W        W31662   3.358   0.837  14.469  0.0826  0.3092 -0.0184
16532W        W31663  16.898   1.413   1.365 -0.3224  0.2169 -0.0068
16533W        W31664  15.880   5.098  15.384 -0.0830  0.0809  0.0360
16534W        W31665   5.287  10.831  12.658  0.0154 -0.0212  0.1462
16535W        W31666  15.064  10.190   3.978 -0.1949  0.2576 -0.1634
16536W        W31667   1.253  12.975   0.257  0.1336  0.0384  0.3540
16537W        W31668  14.348  10.959   2.804  0.1367  0.3471  0.1754
16538W        W31669   2.015  16.159   4.193  0.2233  0.1311 -0.2476
16539W        W31670  14.530  14.489  14.429  0.0108 -0.1812  0.0696
16540W        W31671  10.079   1.333  13.734  0.0205 -0.0122  0.0394
16541W        W31672  14.201   3.258   4.690  0.0598  0.0756  0.0758
16542W        W31673   7.357   0.083   3.536  0.2168 -0.1698 -0.1979
16543W        W31674   6.088   8.094   4.627 -0.0759 -0.4873 -0.1958
16544W        W31675  16.641  18.051   2.543  0.0573 -0.2979  0.1490
16545W        W31676   9.075   4.637   5.541  0.1479  0.2746 -0.1623
16546W        W31677  11.916   1.678   0.423 -0.0471  0.1209  0.0014
16547W        W31678   9.008   4.983   5.109  0.1368  0.1691 -0.0461
16548W        W31679  15.097  11.620  14.338 -0.1205  0.2059  0.0101
16549W        W31680   1.577   4.939  11.873 -0.1224  0.1539  0.0072
16550W        W31681   6.198   0.523   3.978 -0.0009  0.1480 -0.2071
16551W        W31682   8.681  13.007  11.712 -0.1015  0.1108  0.0685
16552W        W31683  10.759   9.719   2.262  0.3068  0.0164  0.0315
16553W        W31684  10.388   2.406   2.206  0.0642 -0.3132 -0.2544
16554W        W31685   9.204   7.461   3.133 -0.1694  0.0021  0.2124
16555W        W31686   5.573   6.463  11.967  0.2272  0.0723  0.1734
16556W        W31687  14.438  12.822   3.883  0.0191  0.2508 -0.1073
16557W        W31688   0.437   1.289   5.364 -0.0507  0.3523  0.5428
16558W        W31689   4.254  11.917   3.314 -0.4122  0.2121 -0.0171
16559W        W31690   4.740  16.854  13.723 -0.2033  0.0242  0.1782
16560W        W31691  12.427  15.003  13.324  0.0492  0.1579 -0.2436
16561W        W31692  13.065  14.229   6.093  0.0283 -0.1093 -0.2618
16562W        W31693   7.912  13.533  10.061 -0.0559 -0.0264 -0.1069
16563W        W31694  16.686   3.215  14.446 -0.0579 -0.0655  0.1867
16564W        W31695  13.286  12.272  13.800 -0.1382 -0.0128 -0.0796
16565W        W31696   1.283  17.089   5.320  0.1247  0.0176  0.5476
16566W        W31697   9.139  10.833   0.066 -0.2014 -0.0976  0.2925
16567W        W31698   9.159   3.598  14.056 -0.1220 -0.0437  0.0110
16568W        W31699   5.871   1.084  10.943 -0.2022  0.4098 -0.3930
16569W        W31700   6.935  16.135  13.444 -0.1373 -0.1533  0.0397
16570W        W31701  17.545   5.007   1.900 -0.0364 -0.2135  0.3213
16571W        W31702  13.554   5.871   2.930 -0.3997 -0.2548  0.2567
16572W        W31703  12.206   5.619   5.535  0.0569  0.2064 -0.0659
16573W        W31704   0.627  10.184   2.138 -0.0347  0.3142 -0.0894
16574W        W31705  14.842   7.245  13.704 -0.0120  0.0819 -0.3213
16575W        W31706   4.180   2.950  11.405 -0.2467  0.0450 -0.0056
16576W        W31707  13.019  15.995   4.448  0.0880 -0.3321 -0.1310
16577W        W31708   9.004  12.094  12.957  0.2179  0.1470 -0.1649
16578W        W31709  13.552  16.362  10.252 -0.0425  0.1060 -0.0278
16579W        W31710   6.949   2.581  14.611 -0.0561  0.0959  0.1162
16580W        W31711  18.067  17.557   3.238 -0.2016  0.0902  0.1738
16581W        W31712   0.897   0.552   2.995 -0.2870 -0.0522 -0.2722
16582W        W31713  17.346   0.465  12.747  0.0325 -0.0433 -0.3332
16583W        W31714  12.649   7.748  15.931  0.3138 -0.2197 -0.3036
16584W        W31715   6.744  10.189   4.160 -0.1342 -0.2060  0.1563
16585W        W31716  11.950   8.896   2.080  0.0619  0.0450 -0.4560
16586W        W31717  16.931   6.851  11.325  0.1933  0.0280  0.3814
16587W        W31718   9.925   4.288   2.136 -0.0777  0.0927 -0.1544
16588W        W31719   6.143   6.015  11.846  0.1032  0.0471  0.2450
16589W        W31720   2.342  10.997   5.829 -0.0552 -0.0434  0.0096
16590W        W31721  10.433   1.030   2.784  0.1696  0.4592 -0.0051
16591W        W31722  16.836   0.318   3.745 -0.2285  0.2909 -0.0659
16592W        W31723   3.202  10.694   4.701 -0.0767 -0.0607 -0.2179
16593W        W31724  18.091   1.654  10.423 -0.3991  0.2388 -0.3808
16594W        W31725  15.171   8.988   5.269  0.0214 -0.0418  0.0629
16595W        W31726   3.015   9.306   4.918  0.1172  0.0754 -0.1286
16596W        W31727  14.234   3.834  12.651  0.1016 -0.0052 -0.0796
16597W        W31728   7.589   2.952   5.505 -0.0758  0.0431 -0.0337
16598W        W31729   6.690   7.970  15.473 -0.1487 -0.0015 -0.4205
16599W        W31730   0.358  11.515   1.069  0.2026 -0.1115  0.1042
16600W        W31731  15.342   7.237  11.360  0.0525 -0.2335 -0.0472
16601W        W31732   7.113   6.657   4.780  0.0154  0.5102  0.1687
16602W        W31733   1.628  15.320  15.512 -0.0248  0.2570 -0.0666
16603W        W31734   8.916   4.457   5.051  0.1015  0.1242 -0.3825
16604W        W31735   5.331   6.884   1.646  0.0571  0.0473 -0.2423
16605W        W31736  13.974  13.583   0.992 -0.0548 -0.4821  0.3377
16606W        W31737   1.653  11.758  11.931  0.1452 -0.0225 -0.0087
16607W        W31738  12.531   7.862   2.262  0.1424 -0.0800 -0.0065
16608W        W31739  12.091  16.382  10.902 -0.0570 -0.0798  0.2494
16609W        W31740   6.395   4.781   3.622 -0.1222 -0.2426 -0.0572
16610W        W31741   3.553  15.492  14.064 -0.0878  0.3132  0.1521
16611W        W31742   1.648  10.455  13.210  0.5002  0.0628  0.1246
16612W        W31743   4.495   5.900   4.827 -0.1506 -0.1605 -0.2535
16613W        W31744   2.689   8.780  10.140 -0.5247 -0.1093 -0.1588
16614W        W31745  13.211  15.152  12.079 -0.1918  0.3282  0.3144
16615W        W31746  12.128   6.725   3.878  0.0257  0.3142  0.3509
16616W        W31747   1.174  13.724   1.714  0.3313  0.0092 -0.1050
16617W        W31748   4.319  10.203  14.874 -0.0359  0.0114  0.0091
16618W        W31749  17.937  12.507  15.454 -0.2579  0.1300 -0.0598
16619W        W31750  16.109   0.637   5.074  0.1386 -0.2250  0.1281
16620W        W31751  15.456   4.607  11.440 -0.1686 -0.0861  0.0456
16621W        W31752  10.236   3.605   3.323 -0.3454  0.0746 -0.2810
16622W        W31753   8.850   5.236  13.076  0.1020  0.1348 -0.1441
16623W        W31754  10.411  13.124   0.921  0.2613  0.1495 -0.4043
16624W        W31755   7.682   3.245  11.733 -0.1568  0.3600 -0.2156
16625W        W31756  15.810   1.476  14.464  0.0302  0.0215  0.1221
16626W        W31757  11.998   0.729  15.447  0.1482  0.2652  0.1403
16627W        W31758   8.762  11.066   5.166 -0.2852  0.2774 -0.0153
16628W        W31759  10.706   8.277  14.367  0.0569 -0.2843  0.2962
16629W        W31760   3.974  14.634  13.829 -0.1251 -0.1268  0.3729
16630W        W31761   6.961   3.068  14.510  0.0553 -0.2257  0.4105
16631W        W31762  13.872  10.132  13.254 -0.0769  0.2958  0.2073
16632W        W31763   1.583   9.332   0.484  0.1013 -0.1419  0.3223
16633W        W31764  11.008   2.161  13.018 -0.2250 -0.0944  0.1252
16634W        W31765   2.603  16.227  15.711 -0.1160 -0.3830 -0.0067
16635W        W31766   9.446   0.679  13.255 -0.0826 -0.1408 -0.1551
16636W        W31767  16.017   4.511  15.434  0.0898 -0.0297 -0.0094
16637W        W31768   5.277   0.593  13.928 -0.0523 -0.1179  0.0535
16638W        W31769  17.332  16.435  13.726  0.4101  0.3863  0.0370
16639W        W31770  15.552  10.232   4.844 -0.0530 -0.1324 -0.1165
16640W        W31771   8.958  12.102  11.198  0.1174 -0.0952  0.2121
16641W        W31772  14.630  16.905   3.645 -0.4550  0.3090 -0.0418
16642W        W31773   2.292   7.170   0.194 -0.2960  0.2105  0.2664
16643W        W31774   4.466   4.564   4.967 -0.1797 -0.3142  0.0442
16644W        W31775   5.758  16.700   4.917 -0.1350 -0.1904 -0.0678
16645W        W31776   9.230  16.468   1.474  0.2182  0.0292 -0.2650
16646W        W31777   8.947   7.307  10.042 -0.0416  0.2196 -0.1308
16647W        W31778   4.565   1.179  14.224 -0.2142  0.0037  0.4783
16648W        W31779  15.210  10.397  13.793  0.0554 -0.2782  0.2409
16649W        W31780  13.558   8.997  15.680 -0.1049  0.2707 -0.0955
16650W        W31781  13.382   6.803  11.088  0.0816  0.0858  0.0472
16651W        W31782  17.586  10.392   4.750  0.2860 -0.1710 -0.0567
16652W        W31783   3.854   9.758  11.954  0.1931 -0.0664 -0.1170
16653W        W31784   3.433  17.812  14.871 -0.1790 -0.0070  0.1973
16654W        W31785  12.624   6.104  12.420  0.1300 -0.0572 -0.0758
16655W        W31786  11.547   4.076   5.396 -0.0627 -0.1538  0.1896
16656W        W31787   9.666   3.480  14.284  0.0972  0.1264  0.1018
16657W        W31788  12.323   6.508  12.025 -0.0795  0.1119 -0.0745
16658W        W31789   8.288  11.089   3.517  0.0350  0.0286 -0.2313
16659W        W31790  16.981  16.017  11.644  0.2293  0.2014  0.1545
16660W        W31791  15.190   9.153   2.223  0.2025  0.3091 -0.0610
16661W        W31792   0.253  14.883  13.941  0.1316  0.1177  0.0464
16662W        W31793  18.343   1.753  14.029  0.1274 -0.0615 -0.2217
16663W        W31794   5.960   6.250  10.882  0.0934  0.0382  0.2098
16664W        W31795   3.490  15.676   3.532 -0.1649 -0.3942 -0.2442
16665W        W31796   1.676   6.479  15.699 -0.1321  0.0429  0.1441
16666W        W31797   9.329  13.880  12.580  0.0556  0.0203  0.3735
16667W        W31798   1.978  16.686  14.877 -0.0599 -0.1215  0.2279
16668W        W31799  13.166   6.232   4.439 -0.3880 -0.1372 -0.1375
16669W        W31800  17.892   9.423  15.120 -0.4182 -0.1350 -0.3205
16670W        W31801   1.839  10.168  14.111  0.0272 -0.1413 -0.0972
16671W        W31802  15.042   5.128   1.950  0.1672  0.3504  0.1100
16672W        W31803   1.823  15.655   1.903 -0.1239  0.1280 -0.0482
16673W        W31804   2.960  16.122  13.692 -0.0197  0.0449 -0.1540
16674W        W31805  15.556   1.740   5.140  0.0829 -0.0311 -0.1233
16675W        W31806   7.483  14.916  10.814 -0.0905 -0.0617  0.1597
16676W        W31807  10.630   2.167   3.074 -0.2499 -0.2859  0.0879
16677W        W31808  15.752  11.854  14.767  0.0274  0.2185  0.1884
16678W        W31809   8.973   9.344   0.992  0.1044  0.4606  0.0507
16679W        W31810  15.171  14.680   3.857 -0.0100  0.2093 -0.3300
16680W        W31811   2.942  16.090  11.119  0.1276 -0.3600  0.1336
16681W        W31812  10.321  16.514  11.717  0.0716 -0.0842 -0.0187
16682W        W31813  16.501   6.070  11.384  0.0568 -0.0207  0.3610
16683W        W31814  17.942  14.388  13.408 -0.0966  0.1397  0.0651
16684W        W31815  17.547   6.427   1.684 -0.0242  0.2769 -0.1650
16685W        W31816   8.166   8.777   2.905 -0.0045  0.0447 -0.0919
16686W        W31817  13.371  14.009   3.900  0.1847  0.0799 -0.2245
16687W        W31818   9.463   7.759   0.606  0.0187 -0.1347  0.2601
16688W        W31819   7.699  15.641   3.213 -0.3051  0.2496 -0.1171
16689W        W31820   6.302   2.068  10.767  0.0029  0.0173  0.0947
16690W        W31821  17.813   5.979  12.035  0.0317  0.1286 -0.1247
16691W        W31822  11.641   4.842   3.723  0.1203  0.1019 -0.0430
16692W        W31823   3.305  15.554   1.814 -0.0168 -0.0186 -0.3765
16693W        W31824  17.073  10.591   1.127 -0.2073  0.2926  0.1103
16694W        W31825   3.833   4.940   0.642 -0.0036  0.3413 -0.1199
16695W        W31826  16.413  11.405  11.709  0.0651 -0.4169  0.1779
16696W        W31827   8.535  10.709   1.533  0.0946 -0.0388  0.0803
16697W        W31828   4.334   7.334   1.843  0.1489 -0.1278  0.1017
16698W        W31829   5.835   4.281   3.705 -0.1101  0.0733  0.1324
16699W        W31830   0.010   9.675  12.871 -0.2637  0.1413  0.1522
16700W        W31831  15.293   1.227  13.487  0.1746 -0.5985 -0.2834
16701W        W31832   2.176   3.663  14.787 -0.2741  0.3971  0.0011
16702W        W31833  10.023   3.882  13.190 -0.1914  0.0466  0.1389
16703W        W31834   2.508  11.763  14.191  0.1768  0.0323  0.1099
16704W        W31835  11.172  17.763  14.448  0.4821  0.1790  0.2009
16705W        W31836  16.413   3.821   4.216  0.0902 -0.3135  0.2614
16706W        W31837   1.989  12.048  13.536  0.2078  0.2855 -0.1898
16707W        W31838  15.068   8.630  13.946 -0.4378 -0.0387  0.0438
16708W        W31839  12.359  15.309  11.491  0.2285 -0.0232 -0.0221
16709W        W31840  10.179   0.106   6.116 -0.1057 -0.0589  0.0195
16710W        W31841   5.992  15.817  11.507  0.2878  0.1812  0.0347
16711W        W31842  15.570   5.177  11.953  0.1501  0.1307  0.0287
16712W        W31843  11.912  15.144  15.401  0.2170 -0.2663 -0.1803
16713W        W31844   1.358   1.142   2.210  0.1976 -0.0891 -0.0995
16714W        W31845   7.321   8.749   2.310 -0.5634 -0.0787  0.0691
16715W        W31846  16.178  13.320  11.682 -0.0220 -0.2022 -0.2285
16716W        W31847  14.160  14.111   5.624 -0.5425  0.1392 -0.1009
16717W        W31848  12.062   2.901   2.858  0.0670  0.1234 -0.1379
16718W        W31849  12.145  17.602  12.911 -0.0683 -0.2812  0.0704
16719W        W31850   3.920   2.376   4.323  0.2356 -0.1882 -0.1533
16720W        W31851   9.899  16.231   2.055 -0.0412  0.1827 -0.2482
16721W        W31852  12.124   5.706  15.180 -0.1119 -0.1597  0.1482
16722W        W31853  16.176   8.831  13.843 -0.0255 -0.1465 -0.0219
16723W        W31854   3.707   6.587  15.613 -0.1003  0.0650  0.0594
16724W        W31855  11.479   2.362   1.813 -0.1096  0.2232  0.1905
16725W        W31856  16.357  17.671   0.839  0.2637 -0.0609  0.4897
16726W        W31857  17.223  10.584   0.215 -0.2636 -0.0290  0.2128
16727W        W31858  15.456   2.887   2.971  0.2566  0.0675 -0.2944
16728W        W31859   4.762  14.323   2.730  0.3378 -0.1533  0.1670
16729W        W31860   2.062   5.491   4.460  0.1251 -0.1744 -0.1724
16730W        W31861  14.237   5.105   3.973  0.0525  0.0295  0.2900
16731W        W31862  17.453  16.855  10.117  0.1365 -0.2662 -0.4965
16732W        W31863   9.562   2.519   0.488  0.0351  0.1457  0.1855
16733W        W31864  14.536  10.708  14.213 -0.0195  0.0029  0.1655
16734W        W31865  12.746  12.850  13.503  0.0428 -0.1442  0.2503
16735W        W31866   0.527   3.145   0.275 -0.2279  0.0883 -0.1096
16736W        W31867  14.704  16.724  11.561  0.0634  0.0312 -0.0374
16737W        W31868   5.639  11.378   5.138 -0.0742  0.0255 -0.2201
16738W        W31869   0.143   4.906   5.905  0.0051  0.1707  0.0631
16739W        W31870  13.326  15.642  14.061  0.2122 -0.0818 -0.3219
16740W        W31871  14.257   1.188   1.512  0.1576  0.0585  0.0026
16741W        W31872   7.259  15.817  10.880 -0.2828 -0.1054  0.2182
16742W        W31873   0.907  14.617   2.659  0.1109 -0.1578 -0.0440
16743W        W31874   2.757   6.041  12.386  0.1561  0.1256  0.0183
16744W        W31875  13.470   5.348   2.170  0.0335  0.3446  0.2965
16745W        W31876   1.580   2.349   5.195 -0.4245  0.0762  0.1042
16746W        W31877   0.822   6.834  11.764 -0.2172  0.3081  0.0115
16747W        W31878  10.647   7.803  14.647  0.2085 -0.0137 -0.2083
16748W        W31879   3.349   0.609   0.900 -0.1741  0.4432  0.4157
16749W        W31880   9.257   0.855   4.338  0.1795 -0.0774  0.0925
16750W        W31881   4.292   5.097  12.096 -0.2169  0.0912 -0.0698
16751W        W31882   2.758  14.046   5.320 -0.0386 -0.0711  0.3318
16752W        W31883  13.753   3.228   1.005 -0.2439 -0.2302  0.1896
16753W        W31884  15.387   8.980  11.483  0.1394  0.0482  0.0715
16754W        W31885   7.796   2.213   1.273  0.1898  0.0789 -0.0244
16755W        W31886  18.200  17.322   1.998  0.0402  0.1835  0.1628
16756W        W31887   4.017  16.678   0.884  0.0600  0.1695 -0.3944
16757W        W31888   1.280  14.779  14.866  0.1481  0.1966 -0.0163
16758W        W31889   6.445   1.134   5.197  0.0275  0.1779 -0.0306
16759W        W31890   9.076   5.733   3.268 -0.1327 -0.4088 -0.2052
16760W        W31891  15.605  17.273  14.343 -0.3689  0.0066  0.0320
16761W        W31892   5.256  11.531  11.460 -0.0273  0.0079 -0.3486
16762W        W31893  11.046  11.731  16.016 -0.2410 -0.0290  0.2575
16763W        W31894   4.471   5.428   2.642 -0.1219 -0.3287 -0.1047
16764W        W31895   4.882  10.902   1.712  0.0551  0.2473  0.3937
16765W        W31896   3.638  12.319   0.963  0.0167 -0.1530  0.1552
16766W        W31897  16.310   4.878  12.420  0.0689 -0.1377  0.0711
16767W        W31898   6.254   2.990   3.415  0.0395  0.0719 -0.0048
16768W        W31899  17.565  17.030   3.867 -0.1927 -0.0125  0.2601
16769W        W31900   6.602  17.182   2.477 -0.1073 -0.0055  0.1578
16770W        W31901  16.738  12.048   1.629 -0.0025  0.0962 -0.0199
16771W        W31902   9.844   0.593   1.304  0.0473  0.2424  0.0040
16772W        W31903  16.690   8.184  11.562 -0.0688 -0.0129 -0.2518
16773W        W31904  17.184  13.005  10.520  0.0149 -0.1910  0.0002
16774W        W31905   4.581   2.826   3.033  0.3038 -0.2142 -0.0372
16775W        W31906  15.087  10.209  15.899  0.1421 -0.4288  0.0930
16776W        W31907  11.366  14.040   0.670  0.1301  0.1811 -0.2115
16777W        W31908  13.221  15.300   0.811  0.1090  0.0424 -0.0724
16778W        W31909   0.283   7.944   6.136 -0.1734  0.0060 -0.2095
16779W        W31910   3.838  17.918  12.145  0.3690  0.3989 -0.3451
16780W        W31911   9.147   1.609  13.985  0.0791 -0.2981 -0.0070
16781W        W31912  17.248  12.427  12.250 -0.0781 -0.0991 -0.1188
16782W        W31913  13.533  16.162   4.512 -0.0892  0.2511 -0.0689
16783W        W31914   1.673   6.647   1.281 -0.1386  0.0197 -0.3365
16784W        W31915  15.231   0.975   4.821  0.1132  0.5228  0.2257
16785W        W31916  18.208  18.028   4.800 -0.0090  0.0501  0.0350
16786W        W31917   3.075  10.893   1.962 -0.0074  0.1303  0.3061
16787W        W31918   2.377   6.742  13.279  0.0452 -0.2208  0.4084
16788W        W31919  12.885  12.421   4.905  0.2973 -0.2134 -0.0970
16789W        W31920   3.647  16.719   2.611  0.1437  0.0618 -0.0376
16790W        W31921   6.882  11.659   5.313  0.2467 -0.2277 -0.0400
16791W        W31922   5.580  16.997   0.520 -0.4512 -0.1483  0.0368
16792W        W31923   2.619   9.275  13.308 -0.0533  0.1015  0.0175
16793W        W31924  12.607   0.484  12.525 -0.3493 -0.0370  0.2063
16794W        W31925  11.363  13.385  12.520  0.0466  0.0585  0.1895
16795W        W31926   4.327  13.210  14.477 -0.5608 -0.3659 -0.0802
16796W        W31927  14.670  14.270   3.832  0.2181  0.1976  0.1461
16797W        W31928  12.171   0.552  11.733 -0.1175  0.2528 -0.2283
16798W        W31929   6.582   9.400   4.813 -0.1591  0.2223 -0.0750
16799W        W31930   1.152  10.281   3.203 -0.1435 -0.1500  0.1800
16800W        W31931   8.467  13.184   0.780 -0.0881  0.0648  0.2907
16801W        W31932   0.513  14.057   0.592 -0.0193  0.0049  0.1832
16802W        W31933  17.315  12.074   1.773  0.0336 -0.1134 -0.2381
16803W        W31934  10.694   5.719   0.583 -0.0609  0.1547 -0.0817
16804W        W31935   0.826  13.910   3.684 -0.1721 -0.0126 -0.1322
16805W        W31936   2.506   4.931   2.537  0.0920  0.0955 -0.1053
16806W        W31937   8.777   4.254  14.950 -0.1382 -0.0249 -0.0793
16807W        W31938  15.475  10.570  15.830  0.1797  0.0285  0.1151
16808W        W31939   4.309  10.074  12.126  0.2410 -0.2105  0.3003
16809W        W31940  18.128  13.230  14.796 -0.0318 -0.1136 -0.1248
16810W        W31941   8.441   6.531   4.873 -0.2287  0.1761 -0.0878
16811W        W31942   8.019   6.461  15.027  0.3801 -0.0176 -0.0720
16812W        W31943   1.748  13.994   1.352  0.0708  0.1421 -0.2202
16813W        W31944   8.446  14.866  12.472 -0.3387  0.0355  0.0856
16814W        W31945   3.794  15.101  13.888 -0.1848  0.2891  0.1044
16815W        W31946   4.280  15.082   2.644  0.1022  0.0170 -0.2579
16816W        W31947  15.784  15.299  13.718  0.0851  0.1093 -0.0203
16817W        W31948   2.632   3.560  14.895 -0.2655 -0.1989  0.0106
16818W        W31949   1.627  14.888  13.115 -0.4900 -0.4254  0.2076
16819W        W31950  18.053   8.437  14.660 -0.1421  0.0601  0.0644
16820W        W31951   4.685  11.945   0.329  0.1045  0.2795  0.0092
16821W        W31952   0.306  11.898   1.738  0.1064 -0.1792  0.3663
16822W        W31953  17.303   1.114   1.282 -0.0503 -0.5748 -0.0426
16823W        W31954   8.913  12.289  12.518  0.0239 -0.0027  0.2982
16824W        W31955  11.835  14.165   0.841  0.3396 -0.0628  0.0759
16825W        W31956  13.137   8.043  15.154 -0.1713 -0.1724 -0.2502
16826W        W31957  15.013   7.979  11.820 -0.4373  0.2155  0.0549
16827W        W31958   4.385   2.494   4.445  0.2965  0.2808  0.3566
16828W        W31959  15.891   2.656   5.173  0.1366  0.1984  0.0339
16829W        W31960  18.133  11.923  12.599 -0.1611  0.2445 -0.3031
16830W        W31961  15.396  17.844  11.534  0.0128  0.2440 -0.2911
16831W        W31962   2.226   4.897   3.314 -0.0239  0.0120 -0.1448
16832W        W31963  13.282   4.365   3.782  0.0301 -0.0910 -0.0259
16833W        W31964  14.059   0.687   4.339  0.2486  0.3500 -0.3197
16834W        W31965   5.064  11.804   2.829  0.0993 -0.2184  0.1302
16835W        W31966  12.521  14.821  11.662 -0.0260 -0.0698  0.1762
16836W        W31967   8.583   8.195   5.583  0.1299  0.2342  0.1160
16837W        W31968   5.192  14.543   4.535  0.0286 -0.0754 -0.3524
16838W        W31969   8.575   7.663  13.282 -0.1090  0.0736  0.1517
16839W        W31970   7.842  17.859   2.481  0.1403  0.1724 -0.0052
16840W        W31971  14.824  18.211  13.123 -0.0427  0.0364  0.0250
16841W        W31972   3.241   6.154  12.406 -0.0546 -0.2413 -0.2588
16842W        W31973   1.297   5.671  13.284  0.1608 -0.0026  0.2184
16843W        W31974  14.856   7.179  11.151  0.0055  0.3048 -0.3776
16844W        W31975   9.202   0.569  14.399 -0.1008 -0.0217 -0.0914
16845W        W31976   0.208  15.775  11.817 -0.2576 -0.0327 -0.1490
16846W        W31977   1.550   5.804  16.091 -0.0027 -0.1054 -0.0686
16847W        W31978   6.246  12.771   4.535  0.1394  0.1059  0.0118
16848W        W31979   4.755   5.296   2.077  0.2091  0.0601  0.2980
16849W        W31980   7.482  10.729  12.645  0.0257  0.1071 -0.3371
16850W        W31981  17.118  13.630  15.248  0.0943 -0.0575  0.0782
16851W        W31982   8.371  16.103  13.413  0.1561 -0.3019 -0.1025
16852W        W31983   0.643  16.311  15.565  0.0859  0.1354 -0.1433
16853W        W31984   8.662   1.961  13.235 -0.2550 -0.1426 -0.2345
16854W        W31985   3.307   1.744   4.902  0.1631 -0.0323 -0.0175
16855W        W31986   2.360   9.846  14.792  0.2811  0.2865  0.1198
16856W        W31987  17.178   5.829   4.254  0.6613 -0.0748 -0.1957
16857W        W31988   1.091   8.016  14.161 -0.4179 -0.1096  0.2119
16858W        W31989  17.969  10.974  14.820  0.1604  0.0719  0.0815
16859W        W31990   0.123  14.273   0.922  0.1378  0.0768 -0.1371
16860W        W31991  13.529   7.663  14.653  0.3624  0.1575 -0.1446
16861W        W31992   4.406   9.287   0.190  0.1716 -0.1048  0.3233
16862W        W31993  11.285   9.233   3.641  0.0519  0.1302  0.3371
16863W        W31994  13.118   6.230   0.633  0.2026  0.2346 -0.0515
16864W        W31995   2.924   0.786   4.210 -0.2748 -0.2378 -0.2372
16865W        W31996   1.262  13.571  12.659  0.0695  0.1001 -0.0923
16866W        W31997   7.022   3.991   2.259 -0.1570 -0.0064  0.2073
16867W        W31998  11.253   2.420  12.672  0.0737  0.0202  0.1035
16868W        W31999   1.067  16.464  11.677  0.0801 -0.1112 -0.1331
16869W        W32000   3.198  13.561  12.260 -0.0208 -0.1553 -0.0904
16870W        W32001   4.934  10.598   3.007  0.1371 -0.2694 -0.4026
16871W        W32002  13.544   3.943   2.490  0.2722  0.2329  0.0584
16872W        W32003   4.736  14.915  13.268  0.0134  0.0062 -0.0208
16873W        W32004  14.352   2.673   3.025  0.1532  0.0161 -0.1819
16874W        W32005  18.343  16.929   2.852  0.3685 -0.1999  0.0488
16875W        W32006  17.774  15.505  11.768 -0.0062  0.0533  0.1089
16876W        W32007   7.099  15.391  15.643  0.4136 -0.0537  0.1233
16877W        W32008  13.859   3.421  12.708 -0.3147  0.0404 -0.2725
16878W        W32009  14.655   2.082   2.535  0.1002  0.2081  0.1161
16879W        W32010   2.474   7.164   5.033  0.1054  0.0667  0.1794
16880W        W32011   2.143  15.973  15.761 -0.0106  0.0827  0.1657
16881W        W32012  15.275  13.798  14.063 -0.0228  0.0812 -0.2678
16882W        W32013   1.832  12.419  15.389 -0.1479  0.1572 -0.1143
16883W        W32014   0.133   7.079  15.755  0.3236 -0.1656 -0.1623
16884W        W32015  12.260   3.838  13.164 -0.0180  0.3781 -0.0930
16885W        W32016   1.399  15.784   4.903  0.1448  0.3454 -0.1640
16886W        W32017   5.931   7.781  11.588 -0.0836  0.2723  0.1227
16887W        W32018  17.779   1.004   1.968  0.0995  0.1186 -0.1551
16888W        W32019  10.124   4.191   5.629  0.2993  0.2430  0.2153
16889W        W32020  13.685  13.789   5.304  0.0495 -0.2194  0.1999
16890W        W32021   6.846   0.940  12.148  0.0798 -0.2355 -0.0146
16891W        W32022   6.486   9.800   3.906  0.3355  0.1090  0.0215
16892W        W32023   5.130  14.703  15.983 -0.2648  0.3352 -0.0224
16893W        W32024   5.255   6.410   3.395 -0.4239 -0.1022 -0.0149
16894W        W32025   6.707   3.174   3.459  0.1678 -0.3917 -0.0655
16895W        W32026   9.162  13.821   4.888  0.1035  0.1512 -0.0738
16896W        W32027  11.767   6.717   4.946 -0.1064  0.1800 -0.1945
16897W        W32028   7.099  17.708   1.935  0.0073 -0.0903  0.0682
16898W        W32029  18.028  10.437   4.528 -0.1114  0.1811  0.2899
16899W        W32030  16.049  10.431   1.113  0.1716 -0.0095 -0.2610
16900W        W32031   0.392  11.611   5.236 -0.2346  0.0350 -0.0978
16901W        W32032  17.433  10.646  14.952  0.1236 -0.1090 -0.0035
16902W        W32033   0.806   9.660  12.250  0.1987 -0.1091  0.0610
16903W        W32034  11.335   9.380   3.145  0.0159 -0.3325  0.1198
16904W        W32035   1.066   9.330   0.398  0.0115 -0.1003 -0.1298
16905W        W32036   1.186  12.522   1.916  0.0153  0.2324 -0.0711
16906W        W32037  13.850   4.765  14.550  0.0372 -0.2890 -0.0846
16907W        W32038  13.486   8.224  13.518  0.1666 -0.0735  0.1210
16908W        W32039   1.890   8.702   3.458  0.0558 -0.0759  0.0958
16909W        W32040   1.060   7.459   0.089 -0.2658  0.3211  0.2309
16910W        W32041  12.168  16.649   3.800 -0.1761 -0.4005 -0.0654
16911W        W32042  11.480  17.878   3.136  0.1700 -0.3032 -0.0168
16912W        W32043   3.535   7.245  10.781  0.1246 -0.1661  0.0024
16913W        W32044  14.997  17.212  13.234  0.3195  0.0279 -0.1891
16914W        W32045  16.512   3.822   3.729  0.0057 -0.2273 -0.1243
16915W        W32046   8.774   4.937  12.729  0.0013  0.1336  0.0538
16916W        W32047   0.788   8.596  13.027 -0.0051  0.3272 -0.2522
16917W        W32048   2.179  14.106  14.107  0.1170  0.3470  0.0507
16918W        W32049   3.687  14.803   3.907 -0.1023 -0.1967  0.0956
16919W        W32050   5.126  15.500   1.661  0.2247 -0.0871  0.1894
16920W        W32051  12.952   7.297  13.818  0.3851  0.0887  0.0895
16921W        W32052  14.247  14.110   3.885 -0.0483 -0.2306  0.3454
16922W        W32053  18.021   1.537  15.363 -0.1463 -0.1194 -0.2719
16923W        W32054  14.834  12.725  13.025  0.0063 -0.1194  0.0836
16924W        W32055  16.951   9.333   3.350  0.0992 -0.1008 -0.4356
16925W        W32056  13.613   0.795   4.623  0.0187  0.0510  0.0758
16926W        W32057  11.730   0.177   4.678 -0.1082  0.2775  0.0012
16927W        W32058  10.379   1.217  14.152  0.1625 -0.0080  0.3352
16928W        W32059   8.757  16.113  11.299  0.1082  0.0188 -0.3241
16929W        W32060  13.819  16.165   5.063 -0.0254 -0.0406  0.1282
16930W        W32061  14.888   4.546   3.043 -0.4748  0.0090  0.0446
16931W        W32062   5.364  17.003   2.972 -0.1270 -0.2008 -0.2294
16932W        W32063  12.420  10.143   2.893 -0.0736 -0.0191  0.1438
16933W        W32064   4.291   7.820   4.188  0.0113  0.1489  0.0035
16934W        W32065   2.613   3.383   3.373 -0.0442  0.1150 -0.1012
16935W        W32066  11.738   9.594   1.150 -0.0273 -0.1341  0.1828
16936W        W32067   7.421  13.583  11.107  0.1296 -0.0193 -0.1529
16937W        W32068  15.542  12.509   9.931  0.0628 -0.5343 -0.1469
16938W        W32069   1.936   5.102  10.952 -0.0937  0.3278  0.2014
16939W        W32070   8.505   2.875   5.147 -0.1748 -0.2002  0.1074
16940W        W32071  17.158   1.306  15.569 -0.2422 -0.2109 -0.1069
16941W        W32072   3.152   0.351   1.359 -0.0191  0.0147 -0.2851
16942W        W32073  11.515   8.316   3.793  0.1697  0.2512  0.2578
16943W        W32074   4.414   6.768   2.379  0.2208 -0.0173 -0.1461
16944W        W32075   2.410   5.177  10.875  0.1816 -0.1241 -0.1075
16945W        W32076   7.866  14.889   4.171  0.0347  0.1118 -0.1285
16946W        W32077   6.563  11.888   2.672 -0.2112  0.0680 -0.1107
16947W        W32078  11.227   9.579   3.938  0.1663 -0.0165  0.0207
16948W        W32079  17.532   5.432  13.229  0.0513 -0.2630 -0.4269
16949W        W32080   3.969  11.717   1.354 -0.4037 -0.1586  0.2826
16950W        W32081   1.645   4.108   3.402 -0.0245  0.2989  0.0899
16951W        W32082   8.898   2.214   5.227  0.3007  0.1185  0.3180
16952W        W32083   5.705   7.001  16.103  0.0108  0.1479 -0.5941
16953W        W32084  11.224  10.921  14.417 -0.1192 -0.0590 -0.0767
16954W        W32085  16.519   8.030   4.515  0.5969  0.0394  0.3366
16955W        W32086  18.112   2.743   1.451  0.1395 -0.1762 -0.1681
16956W        W32087   1.572   7.605  15.031  0.0557 -0.0687  0.2846
16957W        W32088  15.623  11.888  14.279  0.1320 -0.3196 -0.1183
16958W        W32089  13.096  16.621  14.117  0.3751 -0.0724 -0.2717
16959W        W32090  10.894   5.273  10.494  0.1327  0.1230 -0.1984
16960W        W32091  14.148   1.979  12.065  0.3844  0.1627  0.2177
16961W        W32092   8.172   8.896  11.310 -0.0312 -0.0482 -0.1210
16962W        W32093   7.130   0.945   4.410 -0.0092  0.0356 -0.2208
16963W        W32094   7.562  12.792  14.031  0.2858  0.2236 -0.0468
16964W        W32095  14.584   3.690   9.996 -0.2865  0.3349  0.1618
16965W        W32096   4.568   8.414   0.997 -0.0522  0.3678 -0.1163
16966W        W32097   4.506   8.751   2.665 -0.0221 -0.1551  0.1629
16967W        W32098  16.243  12.628   0.080 -0.0572  0.0623  0.1654
16968W        W32099  14.596  15.941   4.549 -0.2494 -0.1628  0.1452
16969W        W32100  13.642   3.607   5.803  0.0516 -0.1817  0.1193
16970W        W32101  15.376   9.803  11.694 -0.1172 -0.2840  0.0495
16971W        W32102   3.888  15.653  13.662 -0.1250  0.1681 -0.1439
16972W        W32103  15.997   8.441   3.644  0.3237 -0.1746 -0.2932
16973W        W32104   1.105  17.056   0.581 -0.0191 -0.1858  0.1802
16974W        W32105  17.935   3.380   2.257  0.0800  0.3501  0.1323
16975W        W32106   8.077   8.985   2.393 -0.2151 -0.1342 -0.0258
16976W        W32107  12.548   6.908  13.705  0.1793 -0.2036  0.1283
16977W        W32108   3.366   7.612   3.155 -0.0879  0.0905 -0.0915
16978W        W32109  17.242  14.902   4.625  0.0340 -0.1249 -0.2176
16979W        W32110  10.825   1.790   1.783 -0.0364  0.1236 -0.0598
16980W        W32111   4.975   5.023  14.441  0.2445 -0.4835 -0.2154
16981W        W32112   6.808   1.625  13.007 -0.2586 -0.1755 -0.2455
16982W        W32113  12.111   5.629   3.140 -0.2075 -0.0201 -0.0506
16983W        W32114  13.590  12.290   3.665  0.0361 -0.2751 -0.1666
16984W        W32115  17.999   0.940   3.044 -0.1348  0.0048  0.2629
16985W        W32116   6.217  13.401   0.084 -0.0314  0.0147 -0.2326
16986W        W32117  18.297  13.593  12.810 -0.3398 -0.3167  0.4444
16987W        W32118   7.043  14.091  13.451  0.2988 -0.4022 -0.0520
16988W        W32119  14.730  15.485   4.419  0.0535  0.1371  0.1308
16989W        W32120  18.212   6.224  11.196  0.1866 -0.1361  0.2053
16990W        W32121  12.047  10.483   2.914 -0.0268  0.1020 -0.1262
16991W        W32122   5.308  13.357   3.568  0.1419  0.0503  0.0026
16992W        W32123  16.259   7.190   2.338 -0.0895 -0.1527 -0.1906
16993W        W32124  17.332   3.254  12.706 -0.0956  0.1721 -0.1086
16994W        W32125   2.753  17.249  11.412 -0.0277 -0.4866 -0.1913
16995W        W32126  16.927   6.767  15.032  0.0054  0.0212  0.0672
16996W        W32127  10.384   9.104  15.548 -0.1421  0.1395  0.1571
16997W        W32128  14.787   4.365  13.435  0.0454  0.1591  0.1238
16998W        W32129  12.507   5.740   3.365 -0.1661 -0.1850 -0.0497
16999W        W32130   6.518   6.172   1.955  0.0062 -0.1816  0.1143
17000W        W32131   3.038  12.084  14.936  0.1857  0.2166 -0.1105
17001W        W32132   9.858  15.443   3.793 -0.2285  0.0894 -0.1298
17002W        W32133   5.841  11.939   3.352 -0.2225  0.0909 -0.0081
17003W        W32134   7.318   2.775   2.383 -0.1578  0.0773  0.1348
17004W        W32135  11.115   8.576  14.369 -0.0621  0.0805  0.2713
17005W        W32136   2.654  12.584   3.265  0.3161 -0.1265 -0.1172
17006W        W32137  15.156  15.753   0.169  0.0838  0.0965  0.1774
17007W        W32138   6.995   0.595   1.753  0.1221 -0.5720  0.2825
17008W        W32139   8.115   8.982  10.443 -0.1220  0.1001 -0.0993
17009W        W32140   4.611  14.482   1.816  0.4218 -0.1434  0.3545
17010W        W32141   6.269   7.862  15.694  0.0962 -0.1461 -0.1692
17011W        W32142   6.576  16.207  13.080 -0.0507 -0.0058 -0.1218
17012W        W32143   1.745   3.020   2.833 -0.0676 -0.1692  0.1460
17013W        W32144  17.652  14.095   1.337 -0.2656  0.0306 -0.0621
17014W        W32145  17.585  16.329   5.217 -0.3814 -0.0200 -0.0741
17015W        W32146   9.559   2.949  12.126  0.2357 -0.1512 -0.0245
17016W        W32147  16.255   7.391  11.902  0.0144 -0.2392  0.0284
17017W        W32148   3.607  17.154  14.271  0.0519  0.2888 -0.1621
17018W        W32149   6.161  14.573  11.205 -0.2207 -0.1775 -0.0762
17019W        W32150   2.690  15.747   4.508  0.0689 -0.4778  0.2283
17020W        W32151   0.895   8.280  14.539 -0.0610 -0.1773  0.0561
17021W        W32152   4.975   6.333  10.894 -0.1387 -0.0047 -0.1089
17022W        W32153   5.970   5.064  11.309 -0.0042  0.0243 -0.1039
17023W        W32154   2.044   8.806   4.455 -0.0410 -0.2001 -0.0605
17024W        W32155  10.151   9.230  15.149 -0.2700  0.4130  0.1856
17025W        W32156  15.125  11.279  11.182 -0.0129  0.1430  0.3211
17026W        W32157  13.749   7.128   0.378  0.1113  0.2409  0.3750
17027W        W32158   7.357   8.802   4.073  0.1086 -0.2000  0.1152
17028W        W32159   4.505   1.193  15.994  0.1141 -0.1309  0.0783
17029W        W32160   2.523   6.070   2.904 -0.0652 -0.0427  0.0404
17030W        W32161  14.482   3.402  13.618  0.0473 -0.0034  0.1863
17031W        W32162  13.336   0.284   1.732  0.0783 -0.1395  0.1181
17032W        W32163   0.575  11.321   0.200 -0.0653 -0.2073  0.0098
17033W        W32164   4.046   2.574  12.885 -0.1563 -0.0826 -0.0890
17034W        W32165   7.106   0.026   4.753  0.0353  0.1232 -0.0222
17035W        W32166   3.062  12.453  10.033 -0.1783 -0.1104 -0.0407
17036W        W32167   8.687   4.102   3.926 -0.3761 -0.0895  0.0322
17037W        W32168  11.740  10.555   0.909 -0.0217 -0.3094  0.0259
17038W        W32169   5.559   3.627  14.557 -0.3453 -0.2194  0.1185
17039W        W32170   9.469  14.617  12.178  0.0398 -0.1527  0.3799
17040W        W32171  14.250   0.704   3.847  0.6086  0.2588 -0.2082
17041W        W32172   2.752  12.464   3.754 -0.2247 -0.0881 -0.0799
17042W        W32173   7.897  11.550   2.900  0.0138 -0.1153 -0.1994
17043W        W32174  18.279   2.471  11.011  0.0473 -0.0224  0.2582
17044W        W32175  14.051  18.222   5.727  0.0393  0.0149  0.1989
17045W        W32176  13.123   4.899  15.439  0.2893  0.0329 -0.1397
17046W        W32177  13.989   3.430   5.477  0.0631  0.1279  0.1291
17047W        W32178   1.718   0.510   6.174  0.1082 -0.1453 -0.1798
17048W        W32179  17.335   8.001  11.463 -0.1640 -0.1542  0.2501
17049W        W32180   9.327  14.400  12.648  0.2826  0.0226 -0.0397
17050W        W32181  14.431  11.151   4.412  0.2031  0.2045 -0.1964
17051W        W32182  12.838   9.668  11.435  0.4485 -0.1764  0.0307
17052W        W32183  14.963  14.391  11.973  0.0921  0.0882  0.0363
17053W        W32184   3.713  14.775   1.939 -0.2627 -0.3718  0.0122
17054W        W32185   4.904  10.253  15.015 -0.2513  0.0692 -0.4742
17055W        W32186   7.039  11.218   5.223  0.1294  0.1609 -0.1129
17056W        W32187  11.622   6.245   4.193 -0.2061 -0.1973  0.0852
17057W        W32188   6.579   2.997   1.712  0.0595  0.0958 -0.0092
17058W        W32189   3.895   2.838  14.920  0.1123 -0.0641  0.1541
17059W        W32190   3.811  15.208  13.338 -0.0927 -0.1380 -0.0806
17060W        W32191   6.964  13.370  15.089  0.0366  0.0308 -0.0429
17061W        W32192   0.457  10.302  11.438 -0.0658 -0.3480  0.0841
17062W        W32193  12.140  10.213  15.563  0.2114 -0.0250 -0.0250
17063W        W32194   1.161  10.377  15.422  0.2629 -0.0304 -0.3716
17064W        W32195   8.989   3.090  11.074  0.0676 -0.1919 -0.0627
17065W        W32196  16.388  13.219   3.492  0.1070 -0.0941  0.0572
17066W        W32197  15.587  17.191   2.352 -0.1334 -0.0207  0.2231
17067W        W32198   7.552  13.001   3.374  0.0983 -0.1066 -0.2429
17068W        W32199  11.192   4.701  15.799  0.0911  0.1410  0.0364
17069W        W32200  13.571  14.569   4.967  0.2525  0.1579 -0.1574
17070W        W32201   8.539   2.414   1.532 -0.2692 -0.3279 -0.1388
17071W        W32202  12.873  11.350  15.762  0.2916 -0.1803  0.0767
17072W        W32203   1.855   2.517   3.575 -0.0408 -0.2574 -0.4729
17073W        W32204  17.750  17.553   0.101  0.1133 -0.2377  0.0254
17074W        W32205  13.877   2.048   5.071 -0.0295  0.2158 -0.0203
17075W        W32206  17.341  16.823  15.704 -0.0084  0.0550  0.3271
17076W        W32207  17.983   6.324  14.292 -0.3100  0.1056 -0.1026
17077W        W32208  11.777  17.276  14.414 -0.0798  0.0234 -0.0607
17078W        W32209  13.993  17.448   2.129  0.2740 -0.2368 -0.0799
17079W        W32210   3.774   1.455  15.280 -0.3690  0.5350  0.0899
17080W        W32211   4.018  11.013   3.735 -0.0802  0.0692 -0.1997
17081W        W32212  13.367   1.251   5.621 -0.3728 -0.2340  0.0716
17082W        W32213   8.892   5.061   0.392 -0.2957 -0.2592  0.0108
17083W        W32214  11.263   9.053   0.293  0.1478  0.1594 -0.3035
17084W        W32215  12.686   4.794   4.545  0.0773 -0.1015 -0.1903
17085W        W32216   2.906  17.193   5.026 -0.0591 -0.1213 -0.0139
17086W        W32217   9.392   0.259  12.468  0.4352 -0.0026 -0.2092
17087W        W32218   6.930  15.358   2.225 -0.2462 -0.3581 -0.3344
17088W        W32219  16.581   7.699  15.819  0.2873  0.2059  0.1844
17089W        W32220   2.707  16.385  13.203  0.0300 -0.1038  0.0163
17090W        W32221  14.618  10.465   3.931  0.2381 -0.1842  0.0238
17091W        W32222  17.440  15.889  11.726 -0.2313  0.1358 -0.0439
17092W        W32223  17.785  13.857  14.293  0.1837 -0.0692 -0.1446
17093W        W32224   5.930  13.796   0.257 -0.1253  0.2115 -0.0945
17094W        W32225   6.432  18.142  13.329 -0.2265 -0.0374 -0.0866
17095W        W32226  10.533  14.405  15.278 -0.2594  0.2442  0.3121
17096W        W32227  16.791  12.955  12.027 -0.0019  0.2557 -0.2786
17097W        W32228   5.949  16.382  14.464  0.1655  0.2776 -0.2778
17098W        W32229   4.531   8.773  13.702  0.1929 -0.0784 -0.1778
17099W        W32230  13.108  10.261  16.050  0.0191  0.1889  0.1090
17100W        W32231  11.505   2.353   1.001  0.2854 -0.0586 -0.0140
17101W        W32232   0.502   1.569   3.397  0.1997 -0.0079 -0.1559
17102W        W32233   5.180  14.638   0.372 -0.2365  0.2287  0.0443
17103W        W32234  15.925  11.580   5.348  0.0765  0.2218  0.0162
17104W        W32235   9.463  12.832  15.283 -0.2108  0.1117 -0.3641
17105W        W32236   0.864  16.308  12.109 -0.0697  0.0024 -0.0983
17106W        W32237  10.223   7.993  13.005  0.1194 -0.2001 -0.4974
17107W        W32238   0.699  18.314   5.854  0.0656 -0.3367 -0.0494
17108W        W32239  15.836  12.017   3.675 -0.0892  0.1531  0.1089
17109W        W32240  11.422  10.035   3.930 -0.1788 -0.2804  0.2115
17110W        W32241   1.328  16.753   3.691  0.2326 -0.0452  0.1836
17111W        W32242  16.026   9.810   3.119 -0.2912 -0.0703 -0.1296
17112W        W32243   1.896   3.692   3.245  0.0132  0.1804 -0.1542
17113W        W32244   0.447  15.073  12.441  0.1658  0.0080 -0.2372
17114W        W32245   0.764   3.726   4.051  0.1260 -0.0192  0.0263
17115W        W32246   9.204  16.653   5.687 -0.0461 -0.3023 -0.1499
17116W        W32247   2.815   6.389   5.037 -0.1913  0.2237  0.0354
17117W        W32248   6.014  14.482   2.488 -0.1814 -0.1981 -0.3134
17118W        W32249   3.517  14.769   2.434 -0.1236  0.1386 -0.0186
17119W        W32250  11.112   7.500   1.162 -0.0812 -0.0208  0.0665
17120W        W32251  16.565  13.938  14.176 -0.2710  0.2019  0.0400
17121W        W32252   9.329   3.840  12.141  0.0032  0.1172 -0.0301
17122W        W32253  11.332   1.250   5.251  0.1419  0.2306 -0.0564
17123W        W32254   2.496   1.491  11.632  0.0185  0.0549  0.0974
17124W        W32255  12.264   2.301   0.357 -0.0596 -0.5134  0.0629
17125W        W32256   8.447   3.616  15.418 -0.1752 -0.1225  0.2391
17126W        W32257   0.577  16.618   1.257 -0.1291  0.0957 -0.0952
17127W        W32258  12.851   8.819   0.745  0.1123  0.0539  0.3019
17128W        W32259  13.666   9.654  12.460  0.0994 -0.3804  0.2362
17129W        W32260  16.247  11.462  13.085 -0.1272  0.0131  0.2063
17130W        W32261   8.385  15.124  13.061  0.1105  0.0428 -0.2373
17131W        W32262  11.828  17.028   5.057 -0.3861 -0.0850  0.0581
17132W        W32263   3.171   3.768   0.629  0.1613  0.0051  0.0023
17133W        W32264   0.138   6.524  15.836  0.0491 -0.0681  0.1546
17134W        W32265  11.456   6.051   3.661  0.2692 -0.0929  0.0101
17135W        W32266   8.589  12.894  13.201 -0.2139 -0.3358  0.0758
17136W        W32267   8.860   8.066  11.648 -0.0200  0.0731  0.3361
17137W        W32268   9.448   1.355   2.371 -0.2019 -0.1589  0.1939
17138W        W32269  10.065  12.328   3.909 -0.0923  0.1406 -0.1152
17139W        W32270  17.516  15.486   3.602 -0.1914  0.1022 -0.1505
17140W        W32271  11.973   8.852   4.896 -0.0961 -0.2881 -0.0044
17141W        W32272  14.109   7.056   4.311 -0.1289  0.1550  0.0425
17142W        W32273   7.023   1.038   3.258  0.1582  0.1162 -0.1777
17143W        W32274  17.627  15.866   1.991 -0.0459  0.4267  0.3945
17144W        W32275   2.041  11.647  15.589 -0.0396 -0.2450  0.1280
17145W        W32276  17.614   9.551  15.574  0.0015 -0.0067  0.3023
17146W        W32277   8.055   6.525  15.989  0.0079 -0.0354 -0.0143
17147W        W32278  15.536  13.373   4.733 -0.1734  0.1659 -0.1869
17148W        W32279   0.200  15.441  10.604 -0.1010  0.1677 -0.2780
17149W        W32280  12.685   6.249   3.211  0.0404 -0.1088  0.3087
17150W        W32281  14.770   3.610  11.707 -0.2070  0.2696  0.2464
17151W        W32282  13.736   3.014  14.998  0.1252  0.0376 -0.0380
17152W        W32283   7.342   7.456  12.757 -0.0492 -0.2481  0.0596
17153W        W32284  14.209   3.053   3.987  0.1214 -0.1631 -0.1283
17154W        W32285  12.459   5.778   1.334  0.0625  0.2274  0.0627
17155W        W32286   1.835  10.479  13.693  0.2672  0.2416  0.0011
17156W        W32287   3.019   5.411   5.176  0.0414 -0.2931 -0.0782
17157W        W32288  14.876  11.798  15.900  0.0305  0.1359  0.0558
17158W        W32289   7.716   8.072  13.319 -0.2527 -0.0077 -0.3032
17159W        W32290   0.324   5.561  11.688 -0.3708 -0.0007 -0.0920
17160W        W32291  15.835   6.332   3.750 -0.1928 -0.2704 -0.0928
17161W        W32292   6.796   5.862   5.477 -0.0648  0.2099  0.2735
17162W        W32293  14.425   6.762   4.035  0.0244 -0.1164 -0.0428
17163W        W32294  13.696   2.534  13.574 -0.1140 -0.2114 -0.0179
17164W        W32295   2.122   0.198  13.401 -0.5174  0.1987  0.1064
17165W        W32296   0.079  12.144   4.460  0.1001  0.0215 -0.1824
17166W        W32297   6.332   3.379   0.622  0.2841 -0.2302 -0.0555
17167W        W32298   0.959   3.540   3.114  0.3808  0.0872 -0.0183
17168W        W32299  16.627  14.246  13.233  0.0320  0.2705  0.0510
17169W        W32300  12.725   1.372  14.947 -0.1983 -0.3490 -0.4469
17170W        W32301  12.043  14.933  13.629 -0.0156  0.1372  0.0602
17171W        W32302   5.517   7.365   1.558 -0.0966 -0.0479 -0.0464
17172W        W32303   1.650  16.442  10.696  0.0129 -0.2757  0.0430
17173W        W32304   2.660  16.103  11.682  0.1081 -0.0557 -0.1408
17174W        W32305  17.220   2.690   2.597  0.1797 -0.3061 -0.0597
17175W        W32306   8.510  15.593   4.789 -0.1177  0.1450  0.0645
17176W        W32307   3.260   7.560  14.802  0.1939  0.0691 -0.2242
17177W        W32308  13.854   6.222   1.133  0.0152 -0.3482  0.0874
17178W        W32309  10.135   1.518  11.735  0.2267  0.0496  0.1291
17179W        W32310  12.357   9.191  12.753 -0.0171 -0.2614 -0.0109
17180W        W32311  13.376   8.988  15.224 -0.1146 -0.0079 -0.0400
17181W        W32312  18.316   5.379  12.576 -0.1679 -0.0934  0.0301
17182W        W32313   8.546   0.121   3.745  0.1788 -0.0624  0.0208
17183W        W32314   6.565   2.466   4.165 -0.2141 -0.1175 -0.1469
17184W        W32315   7.281  18.361  15.559 -0.1429  0.1505  0.1499
17185W        W32316  12.535   8.596   1.159  0.0020 -0.1423 -0.2039
17186W        W32317  18.093  10.643   1.202 -0.0055  0.0841 -0.3338
17187W        W32318  15.877  17.991  11.593  0.1453  0.0236  0.2948
17188W        W32319   1.275   9.819  10.285  0.3248  0.1243  0.2247
17189W        W32320  13.663  11.637   3.499  0.1177 -0.2675  0.2757
17190W        W32321   9.430   5.048   5.387  0.1815  0.0069 -0.0406
17191W        W32322   6.792  12.117   5.115 -0.0073 -0.0117  0.5303
17192W        W32323  11.063  11.815  12.567  0.1064  0.0995 -0.0146
17193W        W32324  12.448  10.660  13.392  0.1678  0.1678  0.3742
17194W        W32325   1.141  10.906   4.455 -0.0688  0.2120  0.1459
17195W        W32326  13.693   5.987  11.604 -0.1793  0.1000 -0.2579
17196W        W32327  14.549  11.386   1.998  0.2087 -0.1386  0.0325
17197W        W32328   2.184  13.546   1.850  0.0975 -0.0232  0.1442
17198W        W32329   0.305  12.053   3.958  0.0383  0.0252  0.2438
17199W        W32330  17.739   2.679  10.196 -0.2834 -0.0386  0.0485
17200W        W32331   5.097   7.291   0.673 -0.1405  0.3168 -0.2864
17201W        W32332   5.819   0.598   2.348 -0.1669  0.2350  0.0153
17202W        W32333  17.998   1.421   2.035 -0.1056 -0.1174 -0.0173
17203W        W32334  12.163  13.417   0.319  0.0870  0.3736 -0.0486
17204W        W32335  16.172   9.162  12.445 -0.1011 -0.0201  0.0017
17205W        W32336   4.195   8.615  15.220 -0.0820  0.1213  0.0202
17206W        W32337  16.871   9.355  14.939  0.1071 -0.0362  0.3605
17207W        W32338  12.610   9.421  11.881 -0.2455  0.1385  0.2750
17208W        W32339   5.729  17.815   1.446 -0.0178 -0.2057  0.1522
17209W        W32340  16.808   4.164   3.022  0.1504 -0.0590  0.1399
17210W        W32341  16.170  12.409  11.475  0.3089 -0.1067  0.0366
17211W        W32342   8.600  11.226   4.033  0.1627  0.1126 -0.0450
17212W        W32343   3.520   6.165  10.944  0.2107  0.3471  0.0695
17213W        W32344   6.107   0.006   3.182  0.0734  0.2789  0.1329
17214W        W32345  18.010   5.683   1.352 -0.1337 -0.0136  0.0051
17215W        W32346   0.914  13.724   3.047 -0.3104 -0.0491 -0.2784
17216W        W32347  14.409   8.318   5.031  0.1347 -0.0056  0.1223
17217W        W32348  10.078   7.479   2.907  0.0596  0.1192 -0.0898
17218W        W32349  16.884  16.451   2.101 -0.2165  0.0143  0.0991
17219W        W32350  16.120  17.687  10.816 -0.1227 -0.1530 -0.0876
17220W        W32351  15.488   6.521   2.659 -0.1443 -0.1396 -0.2401
17221W        W32352   3.971  16.689  12.850 -0.0056  0.1774  0.0942
17222W        W32353   1.741  17.252   1.925  0.3571 -0.2627  0.0553
17223W        W32354  13.539  14.302   0.662  0.0484  0.1188 -0.3089
17224W        W32355  14.917   6.774  14.636  0.0717  0.0300  0.2172
17225W        W32356   7.831   7.281  15.774 -0.3572 -0.0266  0.0511
17226W        W32357   7.941   5.592   0.474 -0.0438  0.3188 -0.1092
17227W        W32358  10.298  16.954  15.941 -0.1138  0.1503  0.3676
17228W        W32359  14.793  17.139   1.095 -0.0259 -0.0435  0.2909
17229W        W32360  15.608  13.521  10.926 -0.2221 -0.1402  0.0364
17230W        W32361   1.998   8.570   2.402 -0.1657  0.1138  0.0786
17231W        W32362   1.498   5.179   0.790 -0.0026 -0.0216 -0.1170
17232W        W32363  11.788   3.760  14.279  0.1085  0.0413  0.2271
17233W        W32364   1.155   3.333   2.125  0.0113  0.0097 -0.0471
17234W        W32365   3.034  10.001  12.097  0.3068 -0.0211  0.2222
17235W        W32366   0.627  14.246  11.254  0.1885 -0.0751 -0.4185
17236W        W32367  12.956   5.748  14.960 -0.3204 -0.1883  0.1588
17237W        W32368   5.799   1.838  13.987  0.0040  0.1114  0.0093
17238W        W32369  10.438  13.102   3.500 -0.1230  0.0077  0.0179
17239W        W32370   0.588  12.866  11.113 -0.2160 -0.0731 -0.2664
17240W        W32371   7.187  18.366   5.252 -0.1130  0.0055  0.1086
17241W        W32372  14.249  14.143  14.198  0.2847  0.0535  0.1334
17242W        W32373   8.951  15.654  11.248 -0.0969 -0.1785  0.0126
17243W        W32374  10.056   3.909   2.903 -0.0111 -0.0589 -0.4551
17244W        W32375   1.559   7.122   9.934  0.1936  0.2276  0.1449
17245W        W32376  12.601  11.424   3.602 -0.4064  0.2932  0.1636
17246W        W32377  14.012  11.167   3.239 -0.0773  0.1101  0.0621
17247W        W32378   7.489  11.228  14.959 -0.4146 -0.2681 -0.0996
17248W        W32379   1.010   6.393  14.706  0.0654  0.0090  0.0025
17249W        W32380   5.687  10.540  13.212 -0.1835 -0.0061  0.0714
17250W        W32381   1.437   6.358   5.726  0.0032  0.1842 -0.0567
17251W        W32382   6.265  12.834   0.072 -0.1135  0.0397 -0.1076
17252W        W32383  16.658   8.463   0.670 -0.3594 -0.0993  0.0855
17253W        W32384   8.056  11.403   1.376  0.2478 -0.4176 -0.0371
17254W        W32385   6.555   6.330   3.662  0.0094  0.1017 -0.0965
17255W        W32386   1.036   5.095  12.414  0.0179  0.0018 -0.4519
17256W        W32387  16.936   0.762  13.990  0.1212 -0.0298 -0.0551
17257W        W32388   2.789  12.538  15.123  0.0095  0.1612  0.1498
17258W        W32389  16.487   3.647   1.345  0.2442 -0.0405  0.0949
17259W        W32390  10.671  12.933  13.682  0.0849 -0.2237  0.3995
17260W        W32391  11.568  10.544   3.212  0.1885  0.1231  0.2146
17261W        W32392   0.238   6.664   4.278 -0.1634 -0.0982  0.0269
17262W        W32393   0.659   0.640   1.637  0.1576 -0.2533  0.2494
17263W        W32394   6.277   9.727   1.365  0.0069 -0.0268 -0.0615
17264W        W32395   0.845   0.158   3.579 -0.3711  0.1659  0.3663
17265W        W32396   7.418  13.151  14.497 -0.1090  0.0422 -0.1827
17266W        W32397   8.240   6.472   2.779  0.1460 -0.2493  0.0088
17267W        W32398   4.841  16.672   1.115  0.1678 -0.1532 -0.1617
17268W        W32399   5.738  14.126  13.722 -0.5361  0.1371  0.1166
17269W        W32400  10.563  16.383   2.787  0.4567  0.0715 -0.2497
17270W        W32401  11.100  14.231   2.122  0.0351 -0.0708  0.2688
17271W        W32402   8.381  17.760  12.511  0.1208 -0.1059 -0.1720
17272W        W32403   8.525   1.375   3.992 -0.0771  0.2682  0.4439
17273W        W32404   8.177   3.272   4.914  0.1378 -0.1060 -0.4237
17274W        W32405   0.095   6.906   5.101 -0.1480  0.3988  0.4012
17275W        W32406   1.619   5.805   5.217 -0.2173 -0.1161  0.3333
17276W        W32407   6.159  10.568  13.873 -0.1992 -0.1961  0.1118
17277W        W32408   3.117   3.114  13.142  0.3332  0.2001 -0.0690
17278W        W32409   6.662  13.096   5.225 -0.2816  0.1907  0.0151
17279W        W32410   0.797  18.081  15.876 -0.1530 -0.2398  0.1235
17280W        W32411  14.136   6.315   3.545 -0.1108 -0.6109 -0.1631
17281W        W32412   1.979  16.138  12.719  0.1202  0.0034 -0.0708
17282W        W32413   6.846   1.647  13.541 -0.1124  0.1081 -0.0210
17283W        W32414  11.753   0.921   2.754 -0.0961 -0.0121  0.2602
17284W        W32415   5.429  11.010   3.854  0.0250  0.0524 -0.2461
17285W        W32416   5.471   6.159  12.434 -0.1052 -0.0127  0.2427
17286W        W32417   6.527   8.876  13.649  0.2428 -0.0318 -0.0313
17287W        W32418   7.084   5.397   0.378  0.0091  0.3306  0.1517
17288W        W32419   5.196   5.004  13.395 -0.1317  0.0497 -0.0426
17289W        W32420   2.920  13.724  14.397  0.3321  0.0639  0.2510
17290W        W32421   9.297   1.322   1.887  0.1383 -0.2415  0.0780
17291W        W32422   5.499  15.094   9.876 -0.1445 -0.2555  0.0686
17292W        W32423   9.492   2.285   0.965 -0.0858 -0.0181  0.0727
17293W        W32424   9.709   5.491   3.037  0.2044 -0.4210 -0.1414
17294W        W32425  12.426  15.372   5.076  0.1896  0.1598  0.1106
17295W        W32426   0.288   2.337   5.837 -0.0437 -0.0188  0.1805
17296W        W32427  18.212  16.511   0.514  0.0596 -0.0825  0.1932
17297W        W32428  10.673   9.741  12.885  0.1777  0.0876  0.4857
17298W        W32429  11.536   0.929  11.200  0.1868 -0.3881  0.1145
17299W        W32430  14.860   6.161  12.243 -0.3019  0.0255  0.0468
17300W        W32431   1.773   2.674   2.305  0.1760  0.0461 -0.2508
17301W        W32432  15.570   4.467   5.263  0.2202  0.2498 -0.0540
17302W        W32433   5.410  12.764  13.205 -0.2459  0.1700  0.2812
17303W        W32434   7.346   5.543   3.224 -0.0112  0.1432 -0.1060
17304W        W32435  18.107  10.215   2.578 -0.1492 -0.0978 -0.0838
17305W        W32436  11.217   7.518  10.760 -0.0149 -0.3253 -0.2225
17306W        W32437   5.283   5.340  14.197 -0.2634 -0.1088  0.1614
17307W        W32438   2.844   8.673   4.088  0.0329 -0.0644  0.0783
17308W        W32439   6.526  10.144   4.592  0.4299  0.2327  0.0396
17309W        W32440  10.658   4.257  11.721  0.4355  0.1839  0.1642
17310W        W32441  12.442  11.140   4.949  0.2799 -0.1668  0.1861
17311W        W32442  14.972  18.304   1.727  0.3443 -0.2848  0.0568
17312W        W32443  14.171  11.134   5.453 -0.2587  0.2059 -0.4179
17313W        W32444   2.598   1.647   1.365 -0.0276  0.0703 -0.2722
17314W        W32445  15.375   2.228  14.269 -0.2228 -0.1015 -0.3030
17315W        W32446   1.920  15.643   5.607 -0.2600 -0.0656 -0.3516
17316W        W32447   7.419  13.772   3.583  0.0909  0.3357 -0.0346
17317W        W32448  17.372  16.144   4.343  0.0672 -0.0134 -0.0947
17318W        W32449  16.314   3.021   0.738 -0.2395  0.1913  0.1515
17319W        W32450   5.159   7.748   1.254 -0.2512  0.3032 -0.1213
17320W        W32451   7.979   0.176  11.912 -0.2950  0.4516  0.1362
17321W        W32452  16.686  15.811  13.983 -0.1526 -0.0936  0.2526
17322W        W32453   2.778   1.581  12.156 -0.1419  0.0995 -0.1234
17323W        W32454  16.637  12.579  12.989 -0.3777 -0.1317 -0.1126
17324W        W32455  11.973   8.912  13.451  0.1126 -0.1789 -0.1540
17325W        W32456  13.751   4.430   3.554 -0.1760 -0.1879 -0.2015
17326W        W32457  11.430   6.076   0.885  0.0792 -0.1635  0.3414
17327W        W32458   5.899  10.724   0.422  0.0493  0.2743  0.1143
17328W        W32459   5.657   2.314   0.360 -0.0404 -0.3097 -0.0841
17329W        W32460   3.838  16.540   9.978  0.1266 -0.0700 -0.0401
17330W        W32461   6.112   8.684  12.492 -0.1282 -0.0398  0.0406
17331W        W32462  17.591  10.374   3.828  0.3852 -0.1189  0.1326
17332W        W32463   7.877   5.195   1.511  0.2858 -0.1049 -0.0285
17333W        W32464   5.589  16.911  15.160  0.0947  0.0467 -0.0675
17334W        W32465   4.879  12.208   4.860 -0.0883  0.3807  0.0152
17335W        W32466   4.445  14.832   1.303  0.1060 -0.3379  0.0188
17336W        W32467   8.094  15.249   0.220 -0.1716  0.0869  0.0384
17337W        W32468  16.939   8.800   2.385 -0.0595  0.3426  0.2568
17338W        W32469   2.656  10.125   5.037  0.0512 -0.1374 -0.2132
17339W        W32470  12.595  17.514  14.997  0.3935  0.0202  0.0564
17340W        W32471  16.271   0.443  10.447  0.2412 -0.0479  0.1902
17341W        W32472   9.508   6.509   4.383  0.1859  0.0200 -0.0173
17342W        W32473  15.540  12.562   0.571 -0.0626  0.0609  0.2348
17343W        W32474  15.664   5.651   2.198 -0.0195 -0.1825 -0.0169
17344W        W32475   0.788  10.747  13.487 -0.1365 -0.4422 -0.1198
17345W        W32476   5.196   3.481  13.170 -0.0975 -0.1751  0.3411
17346W        W32477   5.849   9.940   0.029  0.0938 -0.1754  0.1585
17347W        W32478  10.676   7.050   6.045  0.2173  0.2804 -0.2696
17348W        W32479  15.444   6.024   2.653  0.0166 -0.2325  0.0256
17349W        W32480   3.369  17.201  12.246  0.0094 -0.4042 -0.2396
17350W        W32481  10.041  13.558  15.383  0.0829 -0.2870 -0.0369
17351W        W32482   5.754  13.157   9.942  0.2345 -0.0586 -0.0188
17352W        W32483   6.208  12.172  11.221  0.0669 -0.0710 -0.0806
17353W        W32484   1.667   0.989  11.166 -0.2143 -0.1947  0.0430
17354W        W32485   3.290  10.205  15.797  0.2791  0.1695 -0.2975
17355W        W32486   2.491  14.963   2.731  0.0239 -0.3660  0.2094
17356W        W32487   1.155   3.215  15.773  0.0641 -0.1066 -0.2908
17357W        W32488  17.674   2.469   1.638  0.2386 -0.1493 -0.4317
17358W        W32489   3.242   8.208  13.686  0.0563 -0.0290 -0.0480
17359W        W32490  10.295   5.414  15.492  0.0173 -0.1559 -0.0337
17360W        W32491   4.916  13.281   1.028 -0.0754 -0.2556  0.0681
17361W        W32492   5.574  13.784   2.182  0.1071 -0.0774  0.1209
17362W        W32493   8.792  10.613  12.089 -0.1610 -0.0784  0.1333
17363W        W32494   3.785  11.334   5.107  0.1673  0.1765 -0.0863
17364W        W32495   1.841  14.587   1.741 -0.0358  0.1788  0.0392
17365W        W32496  17.255   4.829   0.533  0.1551  0.0667  0.3108
17366W        W32497   1.556   4.465   5.179  0.3376 -0.2567  0.0491
17367W        W32498   2.166   2.264   0.814 -0.1662 -0.0118  0.0292
17368W        W32499  13.414  18.090   2.922  0.2725 -0.0264 -0.2333
17369W        W32500   8.413  13.649  15.776  0.0282  0.4154  0.1884
17370W        W32501  12.879   6.506   4.770  0.2251  0.2817 -0.1518
17371W        W32502   6.170  18.244  15.260  0.1099 -0.1441  0.0520
17372W        W32503  15.456  13.518  11.959  0.0456  0.2008 -0.1174
17373W        W32504  15.780   8.471  14.487 -0.0811 -0.0009 -0.0711
17374W        W32505  11.330   9.588  11.774  0.2301 -0.0932 -0.4059
17375W        W32506   7.087  10.913   2.139  0.0334 -0.3077  0.0498
17376W        W32507  18.325   7.268  14.263 -0.1655  0.0900 -0.0275
17377W        W32508  17.716  17.752  14.034 -0.1769 -0.0128 -0.1916
17378W        W32509  10.881   4.738   1.499  0.3675  0.1896 -0.1742
17379W        W32510  13.872  13.109   2.987  0.1038  0.1528  0.0968
17380W        W32511   9.984  16.366   0.734 -0.2283 -0.0739  0.0932
17381W        W32512  11.249   8.949  13.570 -0.1029 -0.1386 -0.1533
17382W        W32513   6.129   0.240  16.085  0.0518 -0.2113  0.1250
17383W        W32514   2.215  18.302   3.567  0.1650  0.0183  0.2509
17384W        W32515   0.989  15.136   4.351  0.2816 -0.1830  0.3231
17385W        W32516   7.487   8.507   5.159  0.0657  0.0319 -0.1534
17386W        W32517   0.600   7.468  13.100  0.1075  0.3260  0.2552
17387W        W32518  10.533  18.289   1.108 -0.0335  0.5207  0.2059
17388W        W32519  18.017  13.018  16.144  0.2014 -0.1484  0.2841
17389W        W32520  17.422  14.637   5.580 -0.1307 -0.1441  0.1771
17390W        W32521  15.097   8.357   5.437 -0.0480  0.2086  0.4882
17391W        W32522  16.719  14.605  15.720  0.0089 -0.4695 -0.2064
17392W        W32523   2.750   1.235  10.292  0.0034 -0.0019  0.0777
17393W        W32524   1.885   4.725  14.864 -0.2705  0.1815 -0.1884
17394W        W32525  15.879  15.028   1.190 -0.0452  0.0440  0.0243
17395W        W32526   4.984  12.241  15.266 -0.0379  0.2629 -0.2240
17396W        W32527   2.364  17.694  12.335 -0.1330  0.0635 -0.0430
17397W        W32528   6.302  10.908  10.925 -0.0502 -0.0689  0.0710
17398W        W32529  17.508   3.219  11.113 -0.0228 -0.1645  0.1821
17399W        W32530   9.803   1.980  13.839 -0.1234 -0.0613 -0.2337
17400W        W32531   6.340   5.305  12.566 -0.0646  0.0297 -0.0345
17401W        W32532  10.517   8.659  14.109 -0.0588  0.1507  0.4414
17402W        W32533  15.925  16.619   4.037 -0.0123 -0.1075 -0.2776
17403W        W32534  18.321   2.105  14.473 -0.1242 -0.0515 -0.1116
17404W        W32535   7.786  17.733  13.537 -0.0177 -0.0119 -0.1027
17405W        W32536   3.969   4.337   0.047  0.1601  0.0658  0.3514
17406W        W32537   6.725  10.359   3.087 -0.0521  0.0088  0.1829
17407W        W32538  12.965   3.230   4.809  0.1998 -0.0729 -0.5078
17408W        W32539  11.794  10.349   2.263  0.2885  0.3292  0.0216
17409W        W32540  16.077   5.359   1.118 -0.0205  0.2915  0.0686
17410W        W32541   2.482   9.557  10.652 -0.2354 -0.0782 -0.0383
17411W        W32542  10.382  11.199  11.284 -0.1258  0.1352 -0.2636
17412W        W32543   1.047   1.401   0.293 -0.0667  0.0824  0.0091
17413W        W32544   7.133  10.951  12.274 -0.0052 -0.3036 -0.0303
17414W        W32545   0.862   9.986  11.225 -0.0188 -0.0402  0.1673
17415W        W32546   1.816   3.741  12.463  0.2015 -0.3323  0.0108
17416W        W32547   6.350  16.922  13.636 -0.0909 -0.1174  0.2699
17417W        W32548   9.942  11.596   5.192  0.0232  0.1008 -0.2578
17418W        W32549  11.503   7.702  13.143  0.0312 -0.0377  0.2703
17419W        W32550   9.823   1.154   5.239 -0.0522 -0.2843 -0.0117
17420W        W32551   0.579  15.272  12.856  0.0817  0.3402 -0.2634
17421W        W32552  13.086   7.658   4.416 -0.2842 -0.2042 -0.0465
17422W        W32553   7.395   8.461  14.623 -0.0253  0.1665 -0.1814
17423W        W32554  11.198   9.123  15.267 -0.0520  0.3348  0.0415
17424W        W32555  14.963  11.345  15.638  0.0768  0.0466  0.0533
17425W        W32556   3.649   1.990   1.558  0.1638  0.2681 -0.1707
17426W        W32557  13.027   8.928   4.008  0.2606 -0.1685 -0.0092
17427W        W32558  13.684  14.806   1.932  0.1606 -0.2145 -0.3422
17428W        W32559   9.534  12.794   0.672 -0.3229 -0.0028  0.0846
17429W        W32560  10.926  12.452  13.982  0.0241  0.0349 -0.2278
17430W        W32561   4.286   5.110  13.546 -0.1134  0.0371  0.2653
17431W        W32562   2.324  17.821   2.027  0.1292  0.2071  0.1821
17432W        W32563   8.353   9.227   3.006 -0.0492  0.1161  0.0545
17433W        W32564  10.588  18.201   4.079 -0.1091 -0.0839  0.1981
17434W        W32565  16.412   8.653  13.256  0.2601  0.2651 -0.1814
17435W        W32566  15.753  14.000   1.171  0.2314 -0.3520  0.1172
17436W        W32567   2.597  15.847   4.990  0.0169  0.0534  0.3712
17437W        W32568   6.701  17.623  11.807  0.0979  0.3653 -0.1703
17438W        W32569   9.037  12.735  13.929  0.4071 -0.3115  0.0710
17439W        W32570  10.250   9.039  11.825  0.2446  0.2393  0.0200
17440W        W32571   2.055  14.960  16.104 -0.1539 -0.1225  0.2733
17441W        W32572  15.199  13.226   1.753  0.0532  0.1353  0.3370
17442W        W32573   2.061   0.623   2.580 -0.0110  0.1951 -0.2271
17443W        W32574  18.245   5.604  15.519  0.2364 -0.0392 -0.0273
17444W        W32575   6.102  12.358  11.658 -0.0783  0.1487  0.0211
17445W        W32576  13.656   7.234   4.391  0.1274 -0.0592 -0.0236
17446W        W32577  13.007  14.930  10.166  0.1982 -0.3304 -0.1760
17447W        W32578  12.077  14.721  11.488 -0.0022  0.2786  0.2588
17448W        W32579   6.114  12.935  12.013  0.0144 -0.0610  0.0753
17449W        W32580  16.870  16.219  14.839  0.0730  0.0590 -0.1036
17450W        W32581   4.323   8.607  14.095 -0.3041 -0.0969 -0.1488
17451W        W32582  15.097   2.756   4.803  0.0390 -0.2019 -0.0333
17452W        W32583   2.421  16.988  15.575  0.2744 -0.1766 -0.0801
17453W        W32584   6.680   9.095   3.629  0.1493 -0.0901 -0.0332
17454W        W32585  12.136  11.550  14.437 -0.1883 -0.2262 -0.0092
17455W        W32586  10.700  17.898  12.208  0.2723  0.1719 -0.3040
17456W        W32587  10.140  13.531   3.604  0.2387 -0.0707  0.3244
17457W        W32588   6.120   2.692  11.546  0.2321  0.2360 -0.1637
17458W        W32589   0.378   4.385   1.362  0.0178  0.0552  0.1706
17459W        W32590  13.939  15.152   0.149 -0.0217 -0.1322  0.2464
17460W        W32591  14.420  11.811   5.490  0.0506 -0.2724  0.1145
17461W        W32592  18.073   9.021   1.078 -0.2183  0.0802  0.2197
17462W        W32593  18.251   0.085  14.395 -0.2187 -0.1657 -0.1275
17463W        W32594  13.005  11.236  11.701 -0.1213  0.2317 -0.1851
17464W        W32595   6.219  12.421   4.145  0.3241 -0.1041  0.0965
17465W        W32596  10.000   4.210  12.563  0.0235 -0.0476 -0.0632
17466W        W32597   5.060  15.668  13.635  0.0724  0.0925  0.1279
17467W        W32598   8.424   4.375   0.238 -0.0435  0.0388 -0.0481
17468W        W32599   0.289   9.358   4.987  0.0616  0.2024 -0.1753
17469W        W32600  17.269   6.583   4.504  0.3735  0.1851  0.0558
17470W        W32601   2.527   2.898  11.357  0.2191  0.1542  0.2164
17471W        W32602  10.381  18.198  15.870 -0.1985 -0.0261 -0.1538
17472W        W32603   9.261  11.393   5.187 -0.2100  0.2726  0.2521
17473W        W32604  10.912   6.041   1.072 -0.1839  0.1815 -0.0284
17474W        W32605  10.690  15.978   9.581  0.0063 -0.0163  0.4504
17475W        W32606   1.208   5.547   1.937 -0.3788  0.0047 -0.2041
17476W        W32607   6.317   9.813  14.467 -0.2324  0.0370 -0.1292
17477W        W32608   3.072  12.520  11.265  0.0107 -0.2047 -0.1519
17478W        W32609  17.988  11.109   2.499 -0.1982  0.0552 -0.2867
17479W        W32610   5.841  12.484   2.545 -0.1294 -0.3412 -0.0126
17480W        W32611   9.753   3.272   4.534  0.1978 -0.2508 -0.0584
17481W        W32612   6.711   5.125   2.477  0.0652 -0.1248  0.0069
17482W        W32613  13.542  12.382  14.997  0.0950 -0.1355 -0.0774
17483W        W32614  12.959   5.753  10.232  0.1054 -0.2605 -0.3844
17484W        W32615  12.547   6.108  14.057 -0.1186  0.0227 -0.0042
17485W        W32616  17.863   6.629   4.489 -0.1335 -0.0091 -0.2065
17486W        W32617   1.711  14.987  13.820 -0.3739  0.2367  0.4259
17487W        W32618  10.890   8.550  12.859  0.2532 -0.0673 -0.1125
17488W        W32619  17.211   8.698  14.424 -0.0532 -0.0732  0.0359
17489W        W32620  17.210   3.137  12.019  0.1114 -0.1152 -0.2752
17490W        W32621  15.572   7.254  15.181  0.1424  0.0683 -0.3212
17491W        W32622  11.944   7.463  13.079 -0.1335  0.1106  0.0452
17492W        W32623   8.508   9.297   0.968 -0.3982 -0.1754  0.0035
17493W        W32624  13.034   6.433  13.285  0.0351  0.2147  0.2067
17494W        W32625   3.816   6.777   3.580 -0.1660  0.0346  0.0162
17495W        W32626   8.050  12.734  10.885 -0.1162 -0.3611 -0.0894
17496W        W32627  10.374  16.471   1.852  0.0908  0.0662  0.0794
17497W        W32628   9.327   1.180  13.379 -0.1180  0.0944  0.1274
17498W        W32629   9.547   1.980   4.622  0.1500  0.0600 -0.2639
17499W        W32630  15.705   3.557   0.113  0.1657 -0.2243 -0.1459
17500W        W32631   7.917  16.649  13.535  0.0553 -0.1073  0.0986
17501W        W32632   8.277  14.984   4.975  0.2073  0.1104  0.1427
17502W        W32633   9.122  12.485  15.051 -0.1188 -0.1463  0.0781
17503W        W32634  17.546  12.733   2.565  0.4270  0.1727 -0.1737
17504W        W32635   5.504  17.652  11.443 -0.0104  0.1955  0.2962
17505W        W32636  16.663   0.263  10.647 -0.0109 -0.1213 -0.3953
17506W        W32637   1.939  13.465   1.426 -0.0349  0.4058 -0.1428
17507W        W32638   9.681  14.798  13.485  0.2157 -0.0901  0.0989
17508W        W32639  12.720   4.155  14.900 -0.2126  0.0605  0.0067
17509W        W32640   4.353  16.787  15.555  0.0029  0.0998 -0.1404
17510W        W32641  18.107   4.907  12.805  0.1278  0.0286 -0.5109
17511W        W32642  15.764   4.177  13.147  0.0825 -0.1494  0.2835
17512W        W32643  12.363   7.484   5.599 -0.2578  0.0581  0.1018
17513W        W32644   7.460  15.390  16.038  0.0877  0.2341  0.0292
17514W        W32645  14.693  10.318  13.956 -0.1940  0.0489 -0.0998
17515W        W32646   6.620   8.788  15.032 -0.1945  0.1587 -0.1828
17516W        W32647  16.507   7.154   1.011  0.1626  0.0105  0.2404
17517W        W32648  17.862  13.739   2.709  0.0377  0.2057 -0.0198
17518W        W32649   5.035   8.147  14.423  0.0716 -0.2176  0.1856
17519W        W32650   7.301   9.317  13.593 -0.3115 -0.0115 -0.1332
17520W        W32651  12.157  17.161   0.490  0.0041 -0.3446 -0.3257
17521W        W32652   7.890   9.055  13.096 -0.0062 -0.2852 -0.0709
17522W        W32653   6.177  12.587  10.906 -0.0086 -0.3639 -0.0800
17523W        W32654   2.695  11.428  10.853 -0.2801 -0.1745 -0.2165
17524W        W32655  12.109   8.427   2.933  0.0416 -0.2020 -0.1847
17525W        W32656  18.356  11.712  12.150  0.1771  0.1401 -0.0558
17526W        W32657   9.711   0.216  14.329 -0.0585 -0.1053 -0.0129
17527W        W32658  12.874   7.761   2.757  0.1120  0.0095 -0.1044
17528W        W32659   9.917   6.514  15.727 -0.0435 -0.1279  0.2775
17529W        W32660  17.130   2.476   0.403 -0.3630 -0.0255  0.0133
17530W        W32661   8.103   3.329   0.296 -0.0533 -0.0338  0.1219
17531W        W32662  13.351   3.258  12.400 -0.0759  0.3389 -0.0531
17532W        W32663  13.238   6.044   1.783  0.0957 -0.1184  0.0576
17533W        W32664  15.641  11.230  11.224  0.2412 -0.0250 -0.2457
17534W        W32665   9.870   2.085  13.318  0.1808 -0.1378 -0.1402
17535W        W32666   7.158  13.587  10.673  0.2605  0.0009  0.1090
17536W        W32667  13.914   8.602  15.681  0.1856  0.0843 -0.1153
17537W        W32668   4.919  12.877  11.704  0.3296  0.1453  0.0490
17538W        W32669   7.158   1.700   0.754  0.3853  0.1648 -0.0475
17539W        W32670   8.761   3.128   1.448 -0.0646  0.1648  0.2032
17540W        W32671  12.506   3.993   5.581 -0.0268 -0.2441  0.3942
17541W        W32672   4.223  13.913  14.578 -0.0316 -0.0500  0.3911
17542W        W32673   0.947   0.107   0.920 -0.2859  0.1746  0.2306
17543W        W32674   4.595  14.383   1.182  0.0693  0.0548 -0.0390
17544W        W32675   6.164   0.844   2.039  0.1888 -0.0368 -0.0866
17545W        W32676  14.339   8.681   1.187  0.1259  0.0682 -0.0156
17546W        W32677  11.387  12.637  14.964  0.0190  0.2847 -0.0273
17547W        W32678   8.631   7.070   2.564  0.1597 -0.1378 -0.4590
17548W        W32679  12.708  10.955  12.175  0.0788 -0.0139  0.2349
17549W        W32680   9.904   2.933   1.374  0.2058 -0.0667 -0.2890
17550W        W32681  18.112  14.548  16.140 -0.1075 -0.1821 -0.2553
17551W        W32682   4.549  16.315  13.699  0.0096  0.3263  0.5704
17552W        W32683   3.871   4.966  13.999 -0.0714  0.0004  0.0093
17553W        W32684  14.329  15.133  11.970 -0.2471 -0.3186 -0.0397
17554W        W32685  11.324  17.161   1.225  0.1361 -0.1115  0.0243
17555W        W32686   6.971   3.090  15.327 -0.0497 -0.1765 -0.3009
17556W        W32687   2.918  17.947   3.518  0.2438  0.1016 -0.0990
17557W        W32688  14.513  15.743  13.034  0.0361  0.1563 -0.0796
17558W        W32689  11.460  17.390  14.080  0.0638  0.0247  0.0674
17559W        W32690  12.191  16.781  12.854 -0.0567 -0.2770 -0.2111
17560W        W32691   4.436   4.639  10.385 -0.0599  0.0861 -0.2216
17561W        W32692  15.351  15.132   2.357 -0.1471  0.4008 -0.1938
17562W        W32693   1.292   7.788  12.783  0.0273  0.1179  0.0075
17563W        W32694  15.782  17.070   4.090 -0.2889  0.3683  0.0219
17564W        W32695   6.221  10.807   2.766  0.0656 -0.0250 -0.1282
17565W        W32696   8.200  13.256  13.345  0.0154  0.2178 -0.2662
17566W        W32697  10.778   2.728   4.154 -0.4976 -0.1305  0.1526
17567W        W32698  12.844  14.805  10.745  0.0371 -0.0331  0.0203
17568W        W32699   8.465   8.192  13.162 -0.1768  0.0093 -0.0710
17569W        W32700  18.052   4.956  16.138 -0.0947  0.0587  0.0226
17570W        W32701  17.911   1.158   3.532 -0.0112  0.1709  0.2403
17571W        W32702  17.816   9.760   3.898 -0.2398  0.0059  0.1203
17572W        W32703   8.206  12.929  14.980  0.1710  0.0365 -0.0122
17573W        W32704  17.282   8.587  12.120 -0.0681  0.0764  0.1702
17574W        W32705   3.966   5.229  11.135 -0.2459 -0.1806 -0.0220
17575W        W32706   2.059  15.116   2.564  0.0437 -0.0741  0.2487
17576W        W32707  13.805  16.889   2.975 -0.2558  0.2010 -0.0637
17577W        W32708   4.258   1.991  15.457 -0.1636  0.1393 -0.1324
17578W        W32709  10.802  15.142   5.336 -0.0098  0.0402  0.1371
17579W        W32710  10.799  17.938  13.581  0.0916 -0.1754  0.2988
17580W        W32711  15.255   9.446  14.162  0.1093 -0.0195  0.0254
17581W        W32712   1.109  11.386   0.327  0.1758 -0.0227  0.0747
17582W        W32713   4.825  13.551  13.920 -0.2063  0.1898  0.0463
17583W        W32714  11.872   1.785  12.566  0.2590 -0.3653  0.0453
17584W        W32715   1.148  11.755  11.036  0.4374 -0.2157 -0.2186
17585W        W32716   6.851   1.519   5.326  0.1533 -0.0060  0.0961
17586W        W32717  11.554   4.832   5.160  0.1486  0.0270  0.1279
17587W        W32718  13.076  12.940  13.057  0.1260 -0.1757 -0.1920
17588W        W32719   7.737   2.750   2.848  0.2370  0.2133  0.0522
17589W        W32720   9.582   4.792   2.926 -0.0614 -0.1032 -0.2084
17590W        W32721   1.037  14.046   2.426 -0.2017  0.2024  0.0434
17591W        W32722   9.556  12.025  10.042  0.3013 -0.2995  0.1337
17592W        W32723   7.505   0.286   2.089 -0.1168 -0.0940 -0.1847
17593W        W32724   8.187  12.238  12.102  0.0692 -0.1472 -0.0112
17594W        W32725   6.702   7.414  14.216  0.1742  0.1008 -0.2205
17595W        W32726  12.809  10.163   3.221 -0.3135 -0.0168 -0.0881
17596W        W32727   7.816  13.885  10.945 -0.1006 -0.0308  0.1106
17597W        W32728   2.792   3.836   0.318  0.0953 -0.4552 -0.0084
17598W        W32729   4.504   6.159   3.292  0.0533  0.0222  0.0110
17599W        W32730   3.299  12.906   1.660 -0.2724  0.0538 -0.0156
17600W        W32731   2.598  13.858   4.413 -0.3917 -0.0782  0.0075
17601W        W32732   1.040   2.220  14.449  0.2595  0.1403 -0.1351
17602W        W32733  12.314   9.517  12.219 -0.1450 -0.1793  0.0246
17603W        W32734  11.604  14.837   0.147 -0.0611  0.1255  0.0775
17604W        W32735  15.384  10.935   5.358  0.3440  0.0241  0.0068
17605W        W32736   6.717   1.179  11.639  0.2546  0.2231  0.1129
17606W        W32737  17.378  12.938  11.433 -0.0492  0.2371  0.2935
17607W        W32738   0.923  15.540   3.083  0.1400 -0.1039  0.1723
17608W        W32739   1.487  10.599   4.200  0.0281  0.1727  0.3889
17609W        W32740  17.641  12.539   4.018  0.1298  0.1566  0.2484
17610W        W32741  10.783   6.772   2.681  0.0092 -0.2239 -0.1880
17611W        W32742  10.171   1.387   3.498  0.3670 -0.0751 -0.3150
17612W        W32743   1.371  14.507   2.697  0.0359 -0.0357  0.0445
17613W        W32744   4.555   7.872  15.146  0.1867  0.0827 -0.3088
17614W        W32745   2.174  13.550  11.151  0.1660  0.2050  0.0339
17615W        W32746  10.682  11.521   4.767 -0.7323  0.1732 -0.0441
17616W        W32747   8.439  16.121   4.700 -0.2847  0.1511 -0.2559
17617W        W32748   2.612   3.707  13.419 -0.0068 -0.1723 -0.1465
17618W        W32749  17.971  16.800  15.753  0.2233 -0.2254  0.1618
17619W        W32750  14.086   2.186   2.117 -0.3090 -0.2842  0.1762
17620W        W32751  18.299   3.735   2.270  0.2529 -0.2142  0.0496
17621W        W32752  13.161   8.455  14.439 -0.0261 -0.0104  0.0121
17622W        W32753   1.506   9.050  12.673  0.0027 -0.1499  0.1561
17623W        W32754   3.557  13.978   0.159  0.2042 -0.0949  0.0983
17624W        W32755   4.232  10.482  11.096 -0.1700  0.1406  0.1675
17625W        W32756   4.852  13.920   3.011  0.1211 -0.0035 -0.0674
17626W        W32757   4.747  16.981  12.905 -0.2894  0.2108  0.0186
17627W        W32758  17.538   2.322  13.476  0.2486  0.1392 -0.1544
17628W        W32759  18.016   1.738   3.149  0.3032  0.2350  0.1964
17629W        W32760   4.128   7.053  16.077 -0.2214 -0.2194 -0.3024
17630W        W32761  17.649  11.074  15.209  0.1188  0.1581 -0.2006
17631W        W32762   9.398   3.441   1.992  0.1031  0.3094 -0.3374
17632W        W32763   9.852   2.286  11.112 -0.0363  0.2608 -0.2394
17633W        W32764   5.528  11.526   1.475  0.0369  0.0025  0.0304
17634W        W32765   5.226   4.841   2.760 -0.3036 -0.5254 -0.2362
17635W        W32766  17.039   1.715   4.935 -0.0741  0.1347  0.1315
17636W        W32767   9.671  10.270  15.066  0.1819  0.1798  0.4618
17637W        W32768  15.258   6.118   1.601 -0.3648  0.2804 -0.1238
17638W        W32769  10.046  14.800   5.537 -0.0678  0.2005 -0.1489
17639W        W32770   4.073   0.316  12.648  0.0041  0.0216  0.1067
17640W        W32771   9.252   3.181   5.095 -0.0248 -0.0745  0.3213
17641W        W32772   3.688   7.781   3.858  0.0990 -0.2742 -0.1085
17642W        W32773   5.472   2.660  10.552  0.1138  0.0569 -0.1835
17643W        W32774   9.694   9.620  15.869  0.4364 -0.3672  0.4110
17644W        W32775  12.281   2.501  13.159  0.1470  0.2383  0.1491
17645W        W32776  10.217  12.185  14.195 -0.0342 -0.0320  0.0729
17646W        W32777   0.102  16.963   1.814 -0.2496  0.0647 -0.2994
17647W        W32778   2.798  13.180  12.300 -0.1728  0.2254  0.0880
17648W        W32779   7.836  14.840  15.205  0.1550 -0.0700  0.3130
17649W        W32780   7.467  17.602   0.053  0.3041  0.0013 -0.2639
17650W        W32781  14.121   8.264  12.317  0.0415 -0.0465  0.1972
17651W        W32782   6.841   5.252  12.804 -0.3598 -0.0706  0.0303
17652W        W32783   7.807  11.531  11.975 -0.0749 -0.2970 -0.1223
17653W        W32784  12.181  17.585   0.288 -0.0146  0.0735  0.3413
17654W        W32785  15.164   0.438   0.916 -0.2017 -0.3190  0.0092
17655W        W32786   3.797  17.536   0.759 -0.0774 -0.4474  0.0061
17656W        W32787   6.073  10.882  15.021  0.0272 -0.0377 -0.0434
17657W        W32788  11.394   8.515  14.882 -0.0858 -0.0856  0.1208
17658W        W32789   7.132   2.513   1.402  0.1119 -0.2632 -0.2117
17659W        W32790  10.657   7.327   3.322  0.1568  0.1467 -0.1003
17660W        W32791  11.593   6.251   1.417 -0.1035  0.0947  0.0764
17661W        W32792  14.933   0.268  12.841  0.1601 -0.1005  0.2511
17662W        W32793  10.944  13.721   0.876  0.1510 -0.1123  0.1225
17663W        W32794   0.297  10.078  14.974  0.1623  0.2042  0.2882
17664W        W32795  14.752  11.042   0.820 -0.5003 -0.1982 -0.0111
17665W        W32796  10.472  16.724   3.964  0.0172  0.0674 -0.1720
17666W        W32797   6.754  12.465   4.002  0.2888 -0.1147  0.1580
17667W        W32798   7.247  14.419  12.220 -0.2866 -0.2552  0.2818
17668W        W32799  16.638   1.305   1.855 -0.4077  0.3150 -0.1735
17669W        W32800   3.864   8.586   1.125 -0.3810 -0.0681  0.0725
17670W        W32801   7.970  16.987   4.706 -0.2832 -0.1120 -0.2426
17671W        W32802   0.509  10.565  13.853 -0.1883  0.0708 -0.0244
17672W        W32803  10.575   3.378   0.877  0.5196  0.2372  0.1078
17673W        W32804  12.202   8.956  12.132  0.3332  0.0192  0.0918
17674W        W32805  14.414  11.927   3.658  0.1532 -0.3775  0.0068
17675W        W32806  14.373  14.877  13.995 -0.0602 -0.0220 -0.0809
17676W        W32807   7.961  11.804   1.613  0.0830  0.2763 -0.4162
17677W        W32808  15.453   5.892  12.909 -0.1779  0.0678 -0.0918
17678W        W32809  15.639   5.381   4.651  0.4202 -0.2156  0.3182
17679W        W32810  12.889  16.687   4.292  0.0474 -0.0095 -0.0115
17680W        W32811  13.818   7.674   3.697  0.0837 -0.2583  0.2683
17681W        W32812   9.528  17.576   4.405 -0.1407  0.1237 -0.2292
17682W        W32813  10.479   3.142  15.791 -0.2332  0.0899  0.3497
17683W        W32814  10.199   4.452   3.831  0.1385 -0.0079  0.4596
17684W        W32815  13.487   4.777  10.505  0.0814 -0.2043  0.0388
17685W        W32816  13.991   2.204  15.314 -0.4568  0.1445 -0.0013
17686W        W32817  14.128   7.218  12.586 -0.1522 -0.0039 -0.1329
17687W        W32818   3.586  16.998  10.966 -0.0952 -0.0230  0.1449
17688W        W32819  17.204  11.944   1.303 -0.1940 -0.1363  0.1180
17689W        W32820  16.069   5.791  11.960 -0.0134 -0.1498 -0.0074
17690W        W32821   4.101  11.974   5.363  0.0177  0.2796 -0.0984
17691W        W32822   8.352  14.906  15.218  0.0064 -0.1432  0.1919
17692W        W32823  11.371   3.197  11.043  0.0997  0.0225  0.0779
17693W        W32824   5.641   5.092  11.729  0.1165  0.0780 -0.0450
17694W        W32825   2.459   3.316  13.647 -0.0264  0.0391  0.0092
17695W        W32826   2.794   2.300  12.602  0.4485 -0.2618  0.0405
17696W        W32827   2.754  12.126  15.406  0.1747  0.3461  0.0373
17697W        W32828  17.857   4.981  12.322  0.1169  0.2950 -0.1719
17698W        W32829  11.589   6.121  13.367 -0.2449 -0.0508 -0.0664
17699W        W32830   6.041   7.012  10.855 -0.0805 -0.0413 -0.1631
17700W        W32831   7.414   2.525   6.365  0.1792  0.0802  0.1451
17701W        W32832   3.682  12.733   1.389 -0.1074 -0.0039  0.2097
17702W        W32833   1.672   4.330  10.343  0.1149  0.1395  0.1785
17703W        W32834  16.648   3.274   1.629 -0.0358 -0.1859  0.0102
17704W        W32835   7.161   0.636   3.986  0.1041 -0.2917 -0.0371
17705W        W32836   2.786   0.886  15.158  0.0580  0.0007 -0.1932
17706W        W32837  15.240   4.136  11.618 -0.0614  0.0152 -0.1661
17707W        W32838   9.765  13.318   2.304 -0.0612  0.0600  0.1257
17708W        W32839  15.496  14.960   3.599  0.0062 -0.0009  0.0111
17709W        W32840  15.136   2.075  13.230  0.1892  0.0674 -0.1975
17710W        W32841   7.642   3.394   4.257  0.0609 -0.0670 -0.0731
17711W        W32842  10.228   8.378   2.524  0.2920 -0.1519 -0.0774
17712W        W32843  17.266   7.569  12.602  0.2817 -0.1409 -0.0527
17713W        W32844   0.480   5.402   2.744  0.0111 -0.3031  0.0843
17714W        W32845   9.183   1.896   4.971  0.1637  0.3296  0.1225
17715W        W32846  10.820  12.094   2.042  0.1042  0.1041 -0.0781
17716W        W32847   9.179  14.667   1.205 -0.0686  0.0239  0.1948
17717W        W32848  15.777   4.477  10.967 -0.1506 -0.0242 -0.0323
17718W        W32849  10.479  11.283   1.640 -0.0864  0.0212  0.1899
17719W        W32850  13.915   7.022   4.786 -0.0794  0.0226  0.3607
17720W        W32851  17.607  12.265  13.007 -0.0803 -0.3798  0.1422
17721W        W32852   1.015  17.083  13.536  0.0733  0.3181 -0.2268
17722W        W32853  13.392  17.593   3.290 -0.0459  0.0080  0.1256
17723W        W32854   7.056  11.267   3.093  0.0359  0.2840  0.0295
17724W        W32855  10.214   3.423  14.097 -0.0475  0.3054  0.0756
17725W        W32856  12.443   3.952   0.903 -0.0698  0.2517  0.0992
17726W        W32857  12.498   9.151  14.223  0.1856  0.0108  0.0926
17727W        W32858  13.760  17.116   2.483 -0.2964 -0.1899  0.1251
17728W        W32859   4.946   6.463   5.301  0.0725 -0.1419  0.1036
17729W        W32860  13.376  11.277  14.023  0.0575  0.2963  0.0282
17730W        W32861   8.247  16.805  12.682  0.1184 -0.1282  0.0635
17731W        W32862   6.368   9.586   0.901  0.0638  0.0332  0.2627
17732W        W32863  12.190   8.939  14.617 -0.0631 -0.2783 -0.4897
17733W        W32864  12.683   0.938  11.302  0.0702 -0.1621  0.1779
17734W        W32865  16.728  13.279   1.713  0.0115  0.1482 -0.1369
17735W        W32866   6.514   5.210  13.605  0.0117 -0.0668 -0.3297
17736W        W32867   0.968   6.729   2.538  0.1476  0.0989  0.0888
17737W        W32868  10.655   1.208   5.527  0.2378 -0.0308 -0.4723
17738W        W32869   0.701   5.752  14.027 -0.2310 -0.0035 -0.3124
17739W        W32870  15.213  15.727   6.126  0.1054 -0.2808  0.2997
17740W        W32871   7.392   0.774   5.362  0.2069  0.1231 -0.1017
17741W        W32872  11.409  10.578  11.237 -0.0082  0.0420 -0.2574
17742W        W32873  10.397   4.488  14.696  0.1918  0.1593 -0.2513
17743W        W32874   1.511  14.452   1.385 -0.0261  0.0740 -0.1536
17744W        W32875   5.258   2.386  14.948 -0.0600  0.1930  0.2364
17745W        W32876  14.573   5.501   2.216 -0.0363 -0.2996  0.1004
17746W        W32877   1.977   9.158  15.983  0.4102  0.1815  0.3995
17747W        W32878   4.852  14.885  15.615  0.0565 -0.0556  0.1448
17748W        W32879   4.813  17.536   1.843 -0.1567 -0.1300 -0.2165
17749W        W32880  13.114  18.272   3.970 -0.0469 -0.1999 -0.1229
17750W        W32881  17.545   6.424  11.703 -0.0714  0.3362 -0.1216
17751W        W32882   1.988  13.725  12.121 -0.1618 -0.1499 -0.2779
17752W        W32883   3.109   2.865  11.862  0.0269 -0.0441  0.0694
17753W        W32884  11.446  14.097   2.608  0.1595 -0.4761 -0.1558
17754W        W32885  11.545  15.900  12.907 -0.5741 -0.2524  0.0000
17755W        W32886   5.488   4.756  15.864  0.0570 -0.0331 -0.1021
17756W        W32887  16.675   5.970   0.761  0.0196 -0.2486 -0.1038
17757W        W32888   3.316   5.094   0.125 -0.1911  0.0949  0.1901
17758W        W32889  12.006  12.460  10.923  0.3795  0.3785  0.1944
17759W        W32890   4.076  13.931   2.297  0.2729 -0.0210 -0.3402
17760W        W32891  17.745  10.330   6.151  0.0110 -0.0385 -0.1856
17761W        W32892  13.665   2.695  14.631 -0.0797  0.1350  0.3980
17762W        W32893  12.913   6.933  15.642  0.1369 -0.2987 -0.0290
17763W        W32894   7.524  11.487  13.631  0.2526 -0.2185  0.0974
17764W        W32895   3.565   4.024  15.604  0.0907 -0.0370  0.1693
17765W        W32896   2.016   6.350  15.288 -0.1250 -0.2872  0.1507
17766W        W32897   7.261   6.774  15.116  0.2542 -0.1091  0.1030
17767W        W32898   2.086   5.092  12.595 -0.1176  0.0117 -0.3203
17768W        W32899  10.133  12.664  11.445 -0.0582 -0.0618 -0.2377
17769W        W32900   4.829   1.431   1.610  0.0469 -0.0892 -0.1909
17770W        W32901  11.439   5.598   2.235  0.1024  0.3162  0.3354
17771W        W32902  18.166   8.901   0.266 -0.0242 -0.1381  0.1504
17772W        W32903  18.120  11.438  15.875  0.0670  0.0914  0.4400
17773W        W32904   3.206   7.167   3.842 -0.0538  0.0233 -0.1981
17774W        W32905  17.047  15.923   2.691 -0.2453 -0.0071 -0.0641
17775W        W32906  11.238  14.811  15.997 -0.0475  0.0397 -0.1673
17776W        W32907  10.955   5.812  11.330  0.2777 -0.4265 -0.2038
17777W        W32908  15.357   7.751   1.440 -0.4086 -0.0291 -0.4334
17778W        W32909   4.225  10.317   1.811 -0.1627  0.2344  0.0396
17779W        W32910  18.047   6.411   0.472 -0.0471 -0.2063  0.0622
17780W        W32911  12.010  10.039  12.131  0.1816 -0.0273  0.2190
17781W        W32912   7.462  17.746  11.741  0.1462 -0.0726 -0.2367
17782W        W32913   3.857  10.121   5.754  0.0945  0.4952  0.1274
17783W        W32914  15.048  12.070   2.722 -0.1937  0.1873 -0.3352
17784W        W32915   6.494   6.806  12.675 -0.2247 -0.1586  0.0792
17785W        W32916   2.071   0.387  15.665 -0.0428 -0.1223  0.2708
17786W        W32917  17.219   9.903   3.362 -0.2528  0.0104  0.0368
17787W        W32918  11.003   3.194   3.359 -0.1883  0.1643  0.0142
17788W        W32919  10.616  16.916  13.833 -0.0657  0.0774  0.1783
17789W        W32920  15.068  12.828   2.087  0.3622 -0.1283  0.0092
17790W        W32921  17.130   9.858   1.775 -0.0909 -0.1322 -0.1188
17791W        W32922  14.732  16.425   3.750  0.0856 -0.2843 -0.1422
17792W        W32923   0.964   2.457  13.427 -0.2020 -0.0535  0.1957
17793W        W32924  18.310  14.486  15.676  0.0067  0.0513  0.1239
17794W        W32925  10.001  13.447  12.573 -0.0628 -0.0744 -0.5319
17795W        W32926  15.377   7.608  14.505  0.2422 -0.2171 -0.0459
17796W        W32927   2.071   2.547  14.187  0.1233 -0.0943 -0.2178
17797W        W32928   4.978   8.716   2.466 -0.2242 -0.0357 -0.2063
17798W        W32929  13.273   5.496  11.554  0.0903  0.0753  0.2073
17799W        W32930   8.921   1.465  13.528 -0.0772  0.3121  0.1394
17800W        W32931   7.426   4.688   2.832 -0.0904  0.2864  0.1629
17801W        W32932   1.541  10.068  12.890  0.0601 -0.0180  0.0872
17802W        W32933   0.031  15.449  12.390  0.0761 -0.2788  0.0399
17803W        W32934  11.317   4.855   1.760  0.0831  0.0935 -0.0531
17804W        W32935   5.686   2.818   1.161  0.0010  0.0591  0.2418
17805W        W32936  14.151   3.297   0.277  0.0961 -0.1095 -0.1634
17806W        W32937   5.471  15.676   4.373 -0.2159 -0.1777  0.0874
17807W        W32938  11.990  13.671   0.994 -0.0126  0.6094 -0.1042
17808W        W32939   0.787   0.632   0.145 -0.1435 -0.2718  0.1182
17809W        W32940   8.962   7.096   1.182  0.0910 -0.0208 -0.1206
17810W        W32941  15.403   5.198  15.536  0.1327  0.0160  0.0490
17811W        W32942   8.191   9.534   4.644 -0.2589  0.0110 -0.1213
17812W        W32943  12.200  11.920   4.537 -0.1824 -0.0010 -0.1102
17813W        W32944  17.845  17.123   5.742 -0.1339  0.2800  0.1688
17814W        W32945  13.438   2.255  14.254  0.3692  0.1684  0.3060
17815W        W32946   5.530  12.730   2.942 -0.2645 -0.4297 -0.0846
17816W        W32947   4.680  17.781   0.177 -0.1077  0.0043 -0.0032
17817W        W32948  10.910  15.029   3.704 -0.1617  0.1765 -0.0410
17818W        W32949  16.805  11.537   3.057  0.1872  0.3345 -0.2442
17819W        W32950   2.972  12.992   0.285  0.0325  0.1917  0.2440
17820W        W32951  16.226  15.487   1.334  0.0927  0.2240  0.1165
17821W        W32952   0.022  18.139  14.042  0.0711  0.0457  0.1713
17822W        W32953  14.593   1.572  14.095  0.0517 -0.0587  0.0612
17823W        W32954  13.374  15.712   5.489 -0.1100 -0.1432  0.0545
17824W        W32955   8.418  10.469   2.916  0.0007 -0.1857 -0.2031
17825W        W32956   3.847   7.361   4.996  0.3897 -0.2782  0.1583
17826W        W32957  16.496   6.477   0.659  0.0226  0.2847  0.0546
17827W        W32958  18.270   5.389   1.099 -0.0102 -0.1363 -0.3109
17828W        W32959   0.709   2.714  13.746  0.0588 -0.0945 -0.1491
17829W        W32960   2.191  16.536   0.426  0.1192 -0.4162 -0.5860
17830W        W32961   4.141  13.147   1.592  0.1236 -0.0751 -0.3947
17831W        W32962   6.914   0.988   5.181  0.0894 -0.0664  0.1161
17832W        W32963  11.887   5.170  14.810  0.1344  0.1248  0.0359
17833W        W32964  18.340  16.254   0.134  0.3198 -0.1214  0.1028
17834W        W32965   0.842  12.067  14.224 -0.0093  0.0289 -0.2902
17835W        W32966   0.226   5.963  12.510 -0.2569 -0.0868  0.2574
17836W        W32967   4.905   4.433  13.669 -0.1718  0.2948  0.0118
17837W        W32968   3.684   2.336  13.615 -0.3488 -0.0301 -0.0761
17838W        W32969   4.777  10.104   2.907 -0.2308 -0.1277  0.3162
17839W        W32970  12.891   3.721   0.865  0.2086 -0.0642 -0.0280
17840W        W32971  16.071   3.186   0.269 -0.1755  0.1088 -0.3969
17841W        W32972  17.420   9.013   3.314  0.2973 -0.0151  0.0501
17842W        W32973   7.378   1.041  11.253  0.1427 -0.3023  0.0930
17843W        W32974   9.528   1.832   2.109  0.2124 -0.0687  0.2540
17844W        W32975  17.374  16.238  14.924  0.1555 -0.1954 -0.0880
17845W        W32976   5.357   5.967   0.863  0.1583  0.3320  0.1803
17846W        W32977   5.129  18.028  11.060 -0.0770 -0.0471  0.0705
17847W        W32978  13.394  16.366  12.635 -0.0620  0.0344 -0.2643
17848W        W32979  11.920  11.845  13.040 -0.1525  0.0971 -0.0568
17849W        W32980  14.769  14.957  11.151 -0.1062 -0.0199  0.3851
17850W        W32981  14.731   9.276   1.407 -0.0342 -0.5170  0.1025
17851W        W32982  17.191   3.510   2.234  0.0695  0.2527  0.0982
17852W        W32983   1.157  13.927  11.973  0.2109  0.2331  0.0533
17853W        W32984   9.371  12.298  15.515 -0.0741 -0.1486 -0.1375
17854W        W32985   2.576   9.990  15.274 -0.1678 -0.1828  0.1696
17855W        W32986   0.859   3.581   0.886  0.3016 -0.3035  0.2617
17856W        W32987   6.027  18.241  14.083  0.1881  0.3383  0.0570
17857W        W32988   3.327   6.932  13.552 -0.0374 -0.2577  0.1832
17858W        W32989   2.861  17.781   2.816  0.0846 -0.1493  0.1225
17859W        W32990   4.678   7.723   1.398  0.0312  0.1500 -0.1046
17860W        W32991   0.583  17.936  13.414  0.4184 -0.0350  0.0466
17861W        W32992   8.307   1.376   5.285  0.0127 -0.2377  0.1516
17862W        W32993  11.453   7.945   1.970 -0.0793 -0.0873 -0.1589
17863W        W32994   3.763   8.457   3.033  0.0273 -0.0026  0.0934
17864W        W32995  13.080  10.846   4.860  0.1504 -0.0965 -0.0065
17865W        W32996   6.454  14.477   3.527 -0.3450  0.1094  0.0370
17866W        W32997  13.851  13.614  11.561 -0.0698  0.3353 -0.2096
17867W        W32998  10.476  13.403   1.466  0.0105  0.1242  0.2820
17868W        W32999   3.339   0.768   5.634  0.0159 -0.1347 -0.0284
17869W        W33000   8.239  18.146  11.635 -0.0899  0.4542  0.2367
17870W        W33001   8.870  13.489  14.597  0.1783 -0.1318 -0.1771
17871W        W33002  12.426   0.974  11.744  0.0074 -0.3506  0.1066
17872W        W33003  12.112  14.182  13.264  0.0598 -0.0729 -0.0204
17873W        W33004   8.878  17.512  11.754 -0.0104 -0.1272  0.1782
17874W        W33005  17.379  18.150  10.522  0.3543 -0.1745 -0.2421
17875W        W33006  14.122  15.901  14.513  0.0370 -0.3668 -0.0283
17876W        W33007   4.255  13.955  11.972  0.0829  0.1749  0.0106
17877W        W33008   1.625   7.670  13.339  0.0391  0.0368  0.3631
17878W        W33009   8.369  17.462   9.989  0.0191  0.0346  0.1091
17879W        W33010   1.546   7.578  13.965  0.4182 -0.4425  0.0499
17880W        W33011  11.576   1.228  14.776  0.2694  0.3930  0.4410
17881W        W33012  17.742  14.858   3.934 -0.0776  0.0223 -0.1613
17882W        W33013  17.975   4.022   2.870  0.0948  0.2318 -0.2757
17883W        W33014   8.245   7.314  11.867  0.1704 -0.0091 -0.1312
17884W        W33015  18.343  17.088  14.486  0.1922 -0.1894 -0.2016
17885W        W33016   4.221  15.910  13.476  0.0280  0.3060  0.3233
17886W        W33017  13.936  13.123  14.631 -0.0477 -0.1396  0.3164
17887W        W33018   5.168   4.860  13.968  0.1308  0.0524  0.0037
17888W        W33019   5.886  10.441   2.941 -0.0362 -0.2164  0.2045
17889W        W33020  14.253  12.038  14.518  0.4369 -0.0955  0.2079
17890W        W33021  16.606  11.882  13.016  0.0233 -0.2592 -0.0774
17891W        W33022   1.117  11.652   4.113  0.2942  0.0443  0.0221
17892W        W33023   7.587   4.478  11.136  0.0409 -0.1117  0.1970
17893W        W33024  10.968   5.486   1.059 -0.0003 -0.1978 -0.1578
17894W        W33025   7.082   0.829  13.104  0.0670  0.0171 -0.1471
17895W        W33026  16.584  10.971   6.104  0.2932  0.2414 -0.4855
17896W        W33027   2.905   1.721   1.746 -0.1003 -0.1481 -0.2323
17897W        W33028  12.869   5.930  14.511  0.4612 -0.2364  0.1261
17898W        W33029   3.678   4.518   5.975 -0.0845  0.1321  0.2656
17899W        W33030   9.172   0.413  16.018  0.0693 -0.2752 -0.3093
17900W        W33031  14.256  18.293  12.521 -0.0459  0.0162  0.0725
17901W        W33032   5.297   2.541   0.093  0.2853  0.1014  0.1021
17902W        W33033   2.900   0.335  15.017 -0.1190  0.1983 -0.1414
17903W        W33034   1.456  13.284  15.204  0.1128 -0.1589 -0.3827
17904W        W33035   1.224   9.061  14.479 -0.0134  0.1516  0.1166
17905W        W33036  11.024  10.886  12.488 -0.3753 -0.0164 -0.2192
17906W        W33037  15.989   3.634  12.013 -0.1831 -0.0832  0.2505
17907W        W33038   1.334  14.926  15.387 -0.0929 -0.3394 -0.1730
17908W        W33039   5.518   1.983   0.007  0.1284 -0.2186 -0.1658
17909W        W33040  12.594   0.912   3.008  0.1980  0.0616  0.0374
17910W        W33041   8.680  17.745  15.705 -0.2476 -0.1681  0.2084
17911W        W33042  14.104  17.064  15.541  0.1768 -0.2543  0.0340
17912W        W33043  17.305   1.885  11.632  0.1577  0.0087 -0.2842
17913W        W33044  17.229  11.663  11.775  0.3225 -0.2311 -0.0942
17914W        W33045   6.132   4.022  15.588  0.1032 -0.1713 -0.2893
17915W        W33046   1.808   0.211   3.557  0.0413 -0.0235  0.1040
17916W        W33047  11.691   7.622   3.957  0.1402 -0.3163 -0.0302
17917W        W33048  10.066  15.289  12.826  0.1414  0.3808  0.1226
17918W        W33049   4.469   4.232  14.026  0.1219 -0.3270 -0.3440
17919W        W33050   4.464  16.150   5.235  0.1283 -0.1437  0.1175
17920W        W33051   9.598   1.256   0.638  0.1060  0.2884 -0.1957
17921W        W33052   7.464  12.654  14.573  0.1682  0.1942 -0.0199
17922W        W33053  17.136   0.226  10.542 -0.1394 -0.2230  0.3952
17923W        W33054  11.660   0.819   2.092 -0.0625  0.0794 -0.2429
17924W        W33055   9.718  12.696   3.718  0.1577 -0.0813  0.2741
17925W        W33056   3.377   5.817   3.445  0.0656 -0.2257  0.3363
17926W        W33057   4.411   3.296  12.272 -0.1150  0.0416 -0.3008
17927W        W33058   8.239   2.039  15.167  0.0026  0.1588 -0.4277
17928W        W33059  11.873   2.325  11.859 -0.0742 -0.0356  0.2017
17929W        W33060   9.830   8.158   2.201 -0.3157 -0.0593 -0.0167
17930W        W33061   5.114  12.299  15.753  0.1133  0.2262  0.0902
17931W        W33062  10.656   8.126  12.797  0.0120 -0.0713 -0.3991
17932W        W33063  17.232  16.358   0.091 -0.1132  0.4111  0.1262
17933W        W33064   7.283  11.263   4.208  0.1525  0.1812  0.0831
17934W        W33065   6.659  15.005   5.220  0.0801 -0.1866 -0.3750
17935W        W33066  17.627  11.675   4.290 -0.1450 -0.1193  0.3462
17936W        W33067   9.398  15.848   3.637 -0.0011 -0.0484 -0.1677
17937W        W33068  17.657   0.126   5.741  0.2889 -0.2043 -0.2333
17938W        W33069   9.503   5.327   3.997  0.4362  0.1148  0.4526
17939W        W33070   2.510   5.614  12.544 -0.0811  0.1256  0.1113
17940W        W33071   7.370   5.638   1.808 -0.0979  0.1772 -0.1547
17941W        W33072  10.993  16.947  10.708  0.0398 -0.0922 -0.3118
17942W        W33073   2.739   4.770   0.429 -0.2277  0.2027  0.2187
17943W        W33074   7.668   2.315   1.775 -0.3500  0.0361  0.4038
17944W        W33075  17.824   2.969  15.432  0.2004  0.1435 -0.3075
17945W        W33076   2.964  17.522   3.237 -0.3507 -0.1526  0.0490
17946W        W33077   8.625   7.741   1.995  0.3302  0.1936  0.2505
17947W        W33078   3.088   9.460   0.906 -0.3420  0.1165  0.2200
17948W        W33079  10.287   1.861  13.553 -0.0758 -0.0608  0.2618
17949W        W33080   4.590  13.797   2.508  0.0873  0.1708  0.1868
17950W        W33081   3.805  14.363   2.508  0.0380  0.1724  0.0466
17951W        W33082  15.731   1.102   4.383  0.2223 -0.0416  0.1907
17952W        W33083  10.625   0.816  10.982  0.0774  0.3597 -0.2786
17953W        W33084   9.188  12.817   5.067  0.0031  0.0269 -0.0511
17954W        W33085  17.177   4.366  15.478 -0.2492  0.1888 -0.1210
17955W        W33086  17.977  12.005  15.571 -0.0312 -0.0880  0.4263
17956W        W33087   7.046   1.458  11.390  0.2431  0.2046 -0.3864
17957W        W33088   2.681  11.030   5.400  0.0218  0.2770 -0.0950
17958W        W33089  13.674  15.539  14.848 -0.1171  0.2820 -0.1287
17959W        W33090   3.865   0.094   3.444  0.1218 -0.0195  0.0729
17960W        W33091  12.482   8.336  11.500 -0.0358  0.5246  0.1463
17961W        W33092   3.723  10.425   1.338  0.1485 -0.1386 -0.2335
17962W        W33093   9.503   8.284  14.911 -0.2644 -0.1933  0.3553
17963W        W33094   2.219   6.841  15.373  0.1368 -0.0132  0.0047
17964W        W33095  13.680   9.438   0.200  0.2186  0.0344 -0.0614
17965W        W33096  12.650  15.105  16.094  0.0912 -0.2699 -0.3312
17966W        W33097   4.289  11.891  14.028  0.1620  0.2899 -0.0929
17967W        W33098   0.556   6.509  10.744 -0.1653  0.2322 -0.2232
17968W        W33099  10.966   2.907  11.155 -0.0531  0.1288  0.0865
17969W        W33100  13.284  12.791   3.114  0.0801 -0.1389 -0.0092
17970W        W33101  15.721   2.607   0.879 -0.2251 -0.4031 -0.0138
17971W        W33102  12.004  17.860   5.548 -0.1972 -0.4676 -0.2392
17972W        W33103   3.082  13.832  13.886 -0.0013  0.1427 -0.0543
17973W        W33104  14.738  13.863  10.977  0.0302 -0.2737  0.2748
17974W        W33105  13.517   9.987  12.937 -0.1680 -0.1059  0.0491
17975W        W33106  10.960   7.902  11.484 -0.0416 -0.2507  0.1652
17976W        W33107  14.711   2.153  14.484  0.2010  0.1302 -0.1798
17977W        W33108   8.365   1.796  11.082  0.0359 -0.1760  0.3183
17978W        W33109  12.791  17.190   2.118  0.1068  0.2019 -0.3665
17979W        W33110   9.818  11.082   1.965  0.3118 -0.1706  0.3695
17980W        W33111  15.932  10.271  11.195 -0.3035  0.0805  0.1188
17981W        W33112   1.142   1.802  15.664 -0.2031  0.2364  0.3769
17982W        W33113  12.398  17.986   3.636  0.0866 -0.1715 -0.1613
17983W        W33114  14.644  15.369  14.807  0.0393  0.0383 -0.2106
17984W        W33115  16.008   0.010   4.904  0.3969  0.1036 -0.1912
17985W        W33116  14.690  15.787   2.222 -0.2370  0.0761 -0.1859
17986W        W33117   4.833   9.739  14.123  0.0870  0.0019  0.0721
17987W        W33118   0.900  13.201  12.642  0.0452  0.0816  0.2869
17988W        W33119  10.386  14.429   4.040 -0.0552 -0.2098  0.0688
17989W        W33120  12.590   7.318  15.652 -0.1861  0.2548  0.1372
17990W        W33121   4.920   3.174   4.696 -0.0107 -0.1625 -0.0283
17991W        W33122  16.817   0.507   5.202 -0.3860 -0.0226  0.1386
17992W        W33123  12.554   7.155  16.100  0.0514  0.1307 -0.0200
17993W        W33124   9.998   1.958   4.193 -0.1587 -0.0614  0.2020
17994W        W33125   1.782  16.135   5.566  0.1227  0.0390 -0.1573
17995W        W33126   4.584  12.573  15.015 -0.1185 -0.1661 -0.0034
17996W        W33127  12.154  16.901  10.999  0.1520 -0.1411  0.0713
17997W        W33128   0.414  10.563   3.348  0.1249 -0.2076 -0.0784
17998W        W33129   8.235   2.564  15.123  0.0898  0.2746 -0.0802
17999W        W33130  16.271   5.327  14.569 -0.0151 -0.0295 -0.1059
18000W        W33131  12.065  17.151   4.077  0.1146  0.2946 -0.0659
18001W        W33132  12.346   1.597  15.830  0.0921  0.0527 -0.1506
18002W        W33133  18.299   2.798   4.053  0.2265  0.4815 -0.2207
18003W        W33134  11.346   6.894  12.352 -0.0584  0.4119 -0.1388
18004W        W33135  12.095  14.237  11.852 -0.2267  0.2484  0.1276
18005W        W33136   4.100   1.347  13.923 -0.3543 -0.0321 -0.1957
18006W        W33137  16.613  11.016  12.006 -0.0390 -0.0575  0.1228
18007W        W33138  15.744  16.438  15.887 -0.0583  0.0095 -0.0521
18008W        W33139  17.189   3.039   4.113 -0.1426 -0.0452  0.4052
18009W        W33140  14.553   5.317   1.726 -0.3041  0.3574  0.0225
18010W        W33141   4.933   5.449  15.247  0.1660  0.0211 -0.0868
18011W        W33142   4.475   3.839   1.519 -0.0592  0.1191 -0.1629
18012W        W33143   4.676  10.025   2.203 -0.2132  0.1940 -0.0533
18013W        W33144  13.921  11.278   4.514  0.0208 -0.2068  0.2513
18014W        W33145   2.762  17.778   2.270  0.3698 -0.1829 -0.0245
18015W        W33146  16.565  13.519   3.898 -0.0448 -0.2471 -0.2920
18016W        W33147  16.742  10.225   5.056 -0.1879 -0.1517 -0.0827
18017W        W33148   4.687  10.613  13.061  0.2739  0.1079 -0.0123
18018W        W33149   9.185  16.906   2.027 -0.0063  0.1198 -0.1844
18019W        W33150   4.751   4.977   3.720 -0.2408 -0.1681  0.0247
18020W        W33151  10.296   1.583   1.939  0.1638 -0.3299 -0.3473
18021W        W33152   1.005  17.789   1.582  0.1072 -0.0064 -0.1321
18022W        W33153  15.214  17.776  12.880 -0.2752  0.1434 -0.0602
18023W        W33154  15.746  16.175  14.062 -0.1815  0.1174  0.1065
18024W        W33155   3.065  13.377   3.732 -0.0699 -0.0929 -0.0172
18025W        W33156   6.178   8.521  13.847  0.0340 -0.0570 -0.0590
18026W        W33157  15.339   7.051  13.523 -0.3084  0.0193  0.3890
18027W        W33158  18.091  12.790   3.288  0.1248 -0.0007  0.0036
18028W        W33159  13.768   1.112   5.030  0.0651  0.0210 -0.0133
18029W        W33160   6.923  12.755  11.868 -0.1660  0.1975 -0.3361
18030W        W33161  15.708   9.370  11.520 -0.0593 -0.5011 -0.0324
18031W        W33162   2.808   1.178  15.736  0.1687 -0.0154  0.0427
18032W        W33163   7.195  10.890  14.729 -0.0995 -0.1843  0.2413
18033W        W33164  13.664  15.917   1.318  0.0023  0.0386  0.0458
18034W        W33165   3.743   8.829   5.515  0.0837  0.0468  0.1455
18035W        W33166  12.177   8.018  11.258  0.0401 -0.0062  0.0779
18036W        W33167   3.335   9.894  13.857 -0.3046 -0.0595 -0.1283
18037W        W33168   2.941  11.609  12.801 -0.0044  0.0101  0.1270
18038W        W33169   3.545   6.096  13.470  0.1278 -0.0027  0.1646
18039W        W33170   5.551   7.306  11.678 -0.1228 -0.1154  0.1124
18040W        W33171   0.636   2.447   2.282 -0.3126 -0.3058  0.1415
18041W        W33172  14.079   2.293   0.414 -0.1638 -0.0392  0.1222
18042W        W33173   8.545   5.758  11.920  0.2052  0.0530  0.0376
18043W        W33174   0.560   2.082   3.721 -0.0886 -0.1046 -0.0061
18044W        W33175   2.514   8.541  15.744 -0.0463  0.1424  0.1985
18045W        W33176   2.507   4.018   1.425 -0.0264  0.3505  0.2647
18046W        W33177  16.076  10.009   0.223 -0.3183  0.0208 -0.2732
18047W        W33178   9.857   1.940   1.756 -0.0941 -0.0581 -0.3195
18048W        W33179   1.170   7.596   2.608  0.0173  0.2049  0.2230
18049W        W33180   6.375  14.644  15.257  0.2670  0.1289  0.1373
18050W        W33181  18.321   5.671  13.855  0.0695 -0.1799  0.1932
18051W        W33182  15.167   2.988   0.521 -0.2137 -0.1568 -0.0135
18052W        W33183  16.830   1.603  11.727 -0.2538  0.2595 -0.2304
18053W        W33184   1.490  13.580  12.181 -0.0153  0.1644  0.4661
18054W        W33185   5.053  15.960  11.585  0.0357 -0.0964 -0.0046
18055W        W33186   6.296  14.496  12.793 -0.2376  0.0562  0.0433
18056W        W33187   8.141  13.468  15.096 -0.0400  0.2851 -0.0442
18057W        W33188   5.601   9.294   4.447  0.0540 -0.0715  0.2619
18058W        W33189  17.194   5.950  13.945 -0.4151 -0.0386 -0.1128
18059W        W33190  13.676   6.792   5.978 -0.0867 -0.3579 -0.0779
18060W        W33191  13.430  13.927   4.448 -0.0186  0.3341  0.1829
18061W        W33192  11.551  12.511  11.121  0.0347 -0.0340 -0.4480
18062W        W33193  13.881   4.715   1.527 -0.2606 -0.2917 -0.0683
18063W        W33194   3.596   2.827   0.054 -0.1076  0.3787  0.0849
18064W        W33195   1.221  18.248   3.434 -0.0954  0.0836  0.0112
18065W        W33196  11.772   8.078   4.194  0.1903  0.0295 -0.1186
18066W        W33197   4.974  13.233   4.220 -0.1051 -0.1180  0.4634
18067W        W33198   2.728  14.728  11.682 -0.2099  0.0193  0.1926
18068W        W33199  10.563  15.416  15.452 -0.0765 -0.2257 -0.0371
18069W        W33200  15.316   7.722  15.059 -0.1223 -0.0084 -0.3058
18070W        W33201   0.569  17.819  12.499  0.1070  0.1608  0.2065
18071W        W33202  12.726   3.601   5.791  0.1358 -0.0640  0.0251
18072W        W33203  12.456  10.135  11.194  0.0789  0.0756 -0.1731
18073W        W33204   0.601  13.418  16.136  0.2626  0.3347  0.0230
18074W        W33205   0.806   2.992   3.906 -0.0435  0.1461  0.1888
18075W        W33206   5.757   9.162  15.121 -0.0449 -0.3093 -0.2483
18076W        W33207   7.051  10.184  13.999  0.1929 -0.0632  0.1592
18077W        W33208  11.346  12.799   2.113 -0.0795  0.2832  0.0230
18078W        W33209  16.624   6.818   4.989 -0.0094 -0.1683 -0.0244
18079W        W33210   4.028  12.504   3.296  0.4865  0.1176 -0.1333
18080W        W33211  15.820   7.878   4.473 -0.1563  0.1933  0.1664
18081W        W33212  12.009   2.718   0.094  0.0137  0.0875  0.2267
18082W        W33213  13.257   5.248   0.257  0.2227 -0.1478 -0.0581
18083W        W33214   9.756  16.589   2.349 -0.0057  0.1448 -0.2602
18084W        W33215   5.667   6.893   2.028 -0.2085  0.1713 -0.1670
18085W        W33216   0.322  16.255   1.661 -0.0498  0.2345  0.0520
18086W        W33217  15.410  16.417   2.695  0.1495  0.5415 -0.2191
18087W        W33218  17.745   7.256  12.564 -0.1634  0.0483 -0.2440
18088W        W33219  11.204  15.668   2.704 -0.2500 -0.1219  0.1019
18089W        W33220   5.421   8.590   5.036  0.3883 -0.1795 -0.1890
18090W        W33221   4.847   5.073   3.011  0.1297  0.0148 -0.0221
18091W        W33222  16.550  15.253  14.661 -0.1182 -0.0319 -0.0469
18092W        W33223  15.394   1.727  14.594  0.2710 -0.4422  0.1146
18093W        W33224   1.109  18.136  10.823 -0.0792 -0.1808  0.1951
18094W        W33225   7.904   1.197  13.989 -0.2243  0.1904 -0.0625
18095W        W33226   0.199   5.932  10.400  0.1330  0.0877 -0.2491
18096W        W33227   3.415   4.117   2.490 -0.1534  0.5071  0.0811
18097W        W33228   7.047  17.031  10.569 -0.0462 -0.1851 -0.3283
18098W        W33229  15.200   5.901  14.205  0.0258 -0.4834 -0.0070
18099W        W33230  10.316  16.136   5.286 -0.0237  0.1396  0.2835
18100W        W33231  11.942  15.163  12.995 -0.0716  0.3595 -0.1275
18101W        W33232   9.160   5.154  12.007 -0.1004 -0.1171 -0.0037
18102W        W33233   5.409   3.917  13.034 -0.0984  0.0913 -0.1964
18103W        W33234  10.400  11.688  14.095 -0.3034  0.1085 -0.1613
18104W        W33235  11.304   0.454   4.945  0.0719  0.0284 -0.0053
18105W        W33236  10.748  14.550   9.984  0.0050  0.0780  0.2555
18106W        W33237  15.686   7.418  12.598  0.0626 -0.1743  0.0585
18107W        W33238  17.060   0.066   0.847  0.1860  0.4007  0.0094
18108W        W33239  13.160  13.484  13.094 -0.3164 -0.0957  0.1341
18109W        W33240  18.178  13.955  13.883 -0.0208 -0.1646  0.1660
18110W        W33241   9.075   7.455   2.582 -0.0210 -0.5314 -0.1023
18111W        W33242   0.795   2.793  15.625 -0.0201 -0.0109  0.3687
18112W        W33243  10.305  16.018   1.094  0.0737  0.1048 -0.1328
18113W        W33244   1.532   6.373  11.918  0.0240 -0.1629 -0.1957
18114W        W33245  11.466   1.493   4.778  0.0699  0.2049  0.0417
18115W        W33246   9.536  12.937  12.014 -0.2153 -0.2236 -0.0977
18116W        W33247   1.153  11.198   3.308 -0.0888  0.1644 -0.3903
18117W        W33248  13.320  17.836   1.900 -0.2972  0.0623  0.2230
18118W        W33249  13.233  10.462  14.367  0.3629 -0.0953 -0.1393
18119W        W33250  11.853   3.701  11.843  0.1801 -0.3279 -0.2340
18120W        W33251   7.823   1.199  10.004 -0.1317  0.0535  0.1730
18121W        W33252  14.101   6.296  11.602 -0.0014 -0.0335  0.3194
18122W        W33253   7.168  17.809  12.855 -0.1345 -0.0570  0.1985
18123W        W33254   1.023   5.971   2.105 -0.2832  0.0122 -0.1135
18124W        W33255  16.309  13.983   3.925 -0.2491  0.1295 -0.0251
18125W        W33256  13.715  17.485  14.977  0.0313 -0.0005 -0.0862
18126W        W33257   8.250  13.157  14.041 -0.4326  0.1563 -0.1787
18127W        W33258  15.046  16.189  15.825 -0.1278 -0.3162 -0.3395
18128W        W33259  11.117  12.259  15.146  0.1736  0.1956  0.3772
18129W        W33260  14.881   5.720   1.847 -0.1818  0.1090  0.2183
18130W        W33261  14.408  15.187  11.471  0.0485 -0.0101  0.1447
18131W        W33262  17.451   3.471   1.529  0.0524  0.0398 -0.1311
18132W        W33263   2.223   4.613   4.346 -0.2611  0.0679 -0.1902
18133W        W33264   8.060   4.347   4.476 -0.1858 -0.0091 -0.1640
18134W        W33265   2.534  13.804   0.320  0.0516  0.1797 -0.0590
18135W        W33266   2.857   1.754   2.631 -0.1069 -0.0350 -0.2099
18136W        W33267   5.352   4.598  15.243  0.0281  0.1907 -0.0234
18137W        W33268   6.168   2.802   1.894 -0.1827  0.0601 -0.0881
18138W        W33269   3.528   2.151   4.546 -0.2439 -0.0204  0.0098
18139W        W33270  17.971  12.717  13.194 -0.0591  0.0357  0.0147
18140W        W33271   2.267   1.267   1.418 -0.1982 -0.2257 -0.0784
18141W        W33272   8.145   2.561   1.961 -0.2906 -0.0665 -0.1161
18142W        W33273   2.433  17.978  15.203  0.0160  0.0867 -0.1819
18143W        W33274   4.050   8.576  13.624  0.2747 -0.1347 -0.0272
18144W        W33275  17.527   5.363   2.901  0.0082  0.0568  0.2601
18145W        W33276   3.814   8.022  12.618  0.2549  0.0291 -0.0260
18146W        W33277   0.200   2.564   5.374  0.0116 -0.3004 -0.0451
18147W        W33278  17.559  13.852  15.136  0.1156  0.2570  0.0313
18148W        W33279  12.173  11.351   1.996 -0.5173 -0.1603 -0.3471
18149W        W33280  14.112   8.954  11.053  0.1040 -0.1261  0.0494
18150W        W33281   1.171  10.719   3.531 -0.0451 -0.3747  0.0662
18151W        W33282  14.934   5.404  15.398  0.0256  0.0653 -0.2236
18152W        W33283   3.146  18.217   1.198  0.0031  0.2732  0.1176
18153W        W33284   7.125  10.323   3.857 -0.1691  0.0404  0.2845
18154W        W33285  11.125   5.644   1.816  0.0002  0.1609  0.0224
18155W        W33286   3.406  15.048   0.427 -0.3097  0.3072  0.2597
18156W        W33287   6.374  12.944   1.820  0.0339  0.0259 -0.3043
18157W        W33288  14.237   9.199  15.006  0.0437 -0.0345 -0.0992
18158W        W33289  17.638   6.161   3.443  0.0944  0.0933 -0.0106
18159W        W33290  16.805   2.747   0.669  0.0105 -0.0084 -0.2234
18160W        W33291  16.896   5.723  12.261  0.1026  0.0426 -0.0715
18161W        W33292  13.657  12.140   2.953 -0.1192 -0.1196  0.0974
18162W        W33293  17.454  17.075  15.267  0.2048  0.2586  0.0117
18163W        W33294   1.390  14.211  14.796 -0.0309  0.1633 -0.1536
18164W        W33295   2.931   5.986  15.046  0.2400 -0.1931  0.3542
18165W        W33296   4.270  17.033   0.584  0.0385 -0.2965  0.0164
18166W        W33297   9.096  13.008   4.064  0.1287 -0.0702 -0.0297
18167W        W33298  17.244  12.333  13.781 -0.1892  0.0036  0.0880
18168W        W33299   0.572   6.812  15.537  0.3261  0.1897  0.0456
18169W        W33300  10.887   9.752  13.964 -0.2534 -0.3634  0.1810
18170W        W33301  13.185  13.111   1.847  0.0656 -0.2444 -0.2552
18171W        W33302   5.966  14.247   5.405 -0.1373 -0.0550 -0.0627
18172W        W33303   8.514   1.506  14.378  0.0459 -0.1470 -0.2466
18173W        W33304   7.172   0.125   4.168 -0.2736  0.0181  0.4789
18174W        W33305  18.261  16.012   2.938  0.3787  0.0732 -0.1262
18175W        W33306  17.527  17.113  11.083  0.0770 -0.2597 -0.0456
18176W        W33307   4.973  14.807  13.670 -0.3137 -0.1442 -0.1531
18177W        W33308  10.747  14.095   4.233  0.2234  0.2506  0.2232
18178W        W33309  13.598  18.288   3.867 -0.2574  0.1784  0.1047
18179W        W33310   4.488  15.409  15.840  0.2190 -0.0056 -0.2577
18180W        W33311   5.000  10.574   0.606 -0.0025 -0.0188 -0.3948
18181W        W33312   4.306  15.253  12.531 -0.0563  0.0716  0.0612
18182W        W33313   8.424   0.067   5.785 -0.1063  0.2076 -0.0775
18183W        W33314   0.824   5.157   1.906  0.3046  0.0931 -0.0060
18184W        W33315   1.173   9.224   2.388  0.3330 -0.0125  0.0970
18185W        W33316   1.524  16.692   5.306 -0.1376 -0.0429 -0.3035
18186W        W33317  13.472   8.497  13.028 -0.2439 -0.1440 -0.0781
18187W        W33318  11.154  10.129   2.747 -0.0192 -0.0516  0.2689
18188W        W33319   8.076   1.415  11.967  0.2688  0.1693  0.1710
18189W        W33320  10.819   1.144   1.279 -0.2258  0.2314 -0.3525
18190W        W33321  12.711  17.454   0.165  0.2615  0.1696  0.3925
18191W        W33322   8.351   8.261  15.293 -0.0734  0.3180 -0.0276
18192W        W33323   3.551   6.635   0.041  0.1396 -0.0998  0.0929
18193W        W33324  11.983  14.926   0.542  0.2229  0.1198  0.2293
18194W        W33325   2.367  17.205  12.262  0.0271  0.1815  0.1870
18195W        W33326  12.286  16.114   2.209  0.3120  0.1421 -0.0053
18196W        W33327  11.424  13.488  14.834  0.2077  0.3209  0.0124
18197W        W33328  14.020   0.613   4.930 -0.0832  0.0112 -0.0152
18198W        W33329  12.735  14.629  15.030 -0.1042  0.0611 -0.1233
18199W        W33330   5.335  12.807   0.325 -0.1418  0.1311  0.1237
18200W        W33331  14.920  15.541   1.808  0.0956 -0.0455  0.0289
18201W        W33332  13.309   7.578  10.729 -0.0706 -0.1849  0.1217
18202W        W33333  13.963   8.416  15.170 -0.1201 -0.0493 -0.0255
18203W        W33334   7.981   4.853   3.536  0.0603  0.0908 -0.0021
18204W        W33335  18.077  12.284   4.729  0.3790 -0.4156 -0.2750
18205W        W33336  15.981   4.195   4.958 -0.1961 -0.0356 -0.2461
18206W        W33337  12.333  11.197  13.275 -0.0917 -0.0887 -0.2337
18207W        W33338   9.709   3.408   0.203 -0.1439 -0.2035 -0.0680
18208W        W33339  12.937  11.098   0.005  0.1121  0.0536 -0.1006
18209W        W33340   6.730   6.903   0.696 -0.4995  0.0940  0.2708
18210W        W33341  10.818   5.536   2.264  0.1543  0.0331 -0.0480
18211W        W33342  16.520   7.137  14.991 -0.3055  0.1243 -0.1212
18212W        W33343   9.806   5.629   4.270 -0.1604 -0.0820  0.2048
18213W        W33344   6.044   9.640  13.066  0.2725 -0.0737  0.2518
18214W        W33345  11.500  16.420   3.041  0.0659  0.0176 -0.0757
18215W        W33346  17.503  10.068  14.415  0.0945  0.0970  0.3537
18216W        W33347   5.609  18.094   5.555 -0.1695  0.4323 -0.0663
18217W        W33348  17.840  16.763   1.522  0.2085 -0.1798 -0.0186
18218W        W33349  12.470  17.867   4.745  0.2276  0.1863 -0.1779
18219W        W33350   1.387   2.394   3.730 -0.0443 -0.0413  0.1790
18220W        W33351   3.811   8.531  10.919  0.1435 -0.1085 -0.0081
18221W        W33352  11.837   1.770  13.337 -0.0006  0.0308  0.1045
18222W        W33353  11.812  15.400   1.716  0.1058  0.1567 -0.2387
18223W        W33354  11.977  17.231  12.083  0.0117  0.1129 -0.3628
18224W        W33355   0.034   4.526   1.690  0.0701 -0.0118 -0.2400
18225W        W33356  16.945  16.411  12.076 -0.2243 -0.2306  0.0319
18226W        W33357   8.709  14.900   0.978 -0.2618  0.2897 -0.1848
18227W        W33358   1.161  12.523   3.149 -0.1192 -0.2043  0.1630
18228W        W33359   8.305   9.513  15.685 -0.1531 -0.2966  0.3426
18229W        W33360   5.270  16.504   0.378 -0.0500 -0.0662 -0.0534
18230W        W33361   7.877   7.494  12.763 -0.3309 -0.1488  0.0169
18231W        W33362   7.823  11.734   5.776  0.0899 -0.1166  0.0549
18232W        W33363   8.785   9.246  10.035 -0.3791  0.0050 -0.1605
18233W        W33364  12.621   8.095   0.266  0.0658 -0.0814 -0.0288
18234W        W33365  14.334   0.653   1.576  0.2735 -0.2257  0.3034
18235W        W33366   1.997   6.109   5.356  0.1378 -0.0758  0.0309
18236W        W33367  10.138  17.410  10.913 -0.0729 -0.0553 -0.1045
18237W        W33368  11.900  14.414   4.134  0.0291  0.1570 -0.1621
18238W        W33369   0.205   8.498   4.569  0.0638  0.3023 -0.0297
18239W        W33370  14.484   3.875   1.936 -0.0143  0.0177  0.0660
18240W        W33371  12.960  12.572  10.990  0.2124 -0.0094 -0.3783
18241W        W33372  18.358   0.604   0.599 -0.1232 -0.0893 -0.0173
18242W        W33373   2.353   4.445  15.770  0.1483  0.0423  0.1432
18243W        W33374   2.073  12.742   5.530 -0.1375  0.0712  0.3439
18244W        W33375   2.951  14.824   0.305 -0.2076  0.0827  0.1889
18245W        W33376  16.732   8.937   4.055  0.0160 -0.2898  0.2175
18246W        W33377   8.348   5.792  15.873  0.1109  0.0234 -0.3323
18247W        W33378   2.118   3.500  12.126 -0.0356  0.0025  0.3775
18248W        W33379   9.913  17.083  13.838  0.0951 -0.2940  0.2921
18249W        W33380   5.195   8.562   4.587  0.1188  0.0053  0.0495
18250W        W33381   4.628  17.925  12.603 -0.1675  0.1253  0.4461
18251W        W33382   9.800   2.160  14.938  0.0933 -0.0299  0.1689
18252W        W33383   4.340   0.614  13.048  0.1569  0.0312 -0.1240
18253W        W33384   5.022   2.197   4.499  0.1309  0.0396 -0.2399
18254W        W33385   6.570  16.116  16.024 -0.0762 -0.0219  0.0142
18255W        W33386  17.226   1.460  14.180  0.2636  0.0996 -0.1943
18256W        W33387   7.316  11.770   2.266  0.1955 -0.0712  0.1682
18257W        W33388  14.720   9.000  10.838 -0.1092 -0.1288 -0.0998
18258W        W33389  11.658   8.993   1.062  0.2611  0.1072 -0.1895
18259W        W33390   9.094   0.399   0.900  0.1157 -0.2751  0.0158
18260W        W33391  14.628   8.668   1.703  0.0702  0.3384 -0.0224
18261W        W33392   5.215   2.949   3.194  0.0441  0.2582  0.0986
18262W        W33393  11.750  11.414   0.260 -0.2184 -0.2336  0.0711
18263W        W33394   0.691  14.799  13.388 -0.2027  0.1048 -0.2491
18264W        W33395   6.497   5.059   6.168  0.3974  0.0135  0.0140
18265W        W33396   7.390  13.466   3.189  0.0163  0.1511  0.0730
18266W        W33397   5.184  11.918  14.954 -0.1163  0.1872 -0.0158
18267W        W33398   5.858  11.427   2.577  0.2259 -0.1347 -0.0941
18268W        W33399   4.910  10.265   5.756 -0.2143  0.1163  0.0324
18269W        W33400   5.182   0.657   0.849 -0.0870 -0.0635  0.1487
18270W        W33401   3.139   2.779  15.756 -0.2392 -0.3530 -0.1924
18271W        W33402   1.253   3.772   4.029 -0.1590  0.0317 -0.2033
18272W        W33403  16.769   0.728   3.414 -0.1184  0.3205 -0.1268
18273W        W33404  14.227   3.558  14.022  0.2368  0.0188  0.0914
18274W        W33405  11.973  17.547  13.425  0.0659 -0.0673  0.0838
18275W        W33406   1.761  10.421  10.959 -0.1005 -0.1563  0.0351
18276W        W33407   3.876  17.596   2.767 -0.1561 -0.0565  0.0688
18277W        W33408   7.328  15.516   5.023 -0.4359  0.1705 -0.1315
18278W        W33409  10.441   8.551  13.608 -0.0719 -0.0900  0.1065
18279W        W33410   6.293  16.752   2.193  0.2560  0.2777  0.0039
18280W        W33411   5.203   0.858   3.606 -0.1744 -0.1267 -0.1338
18281W        W33412   8.395  11.533  14.547  0.0762  0.0911  0.1450
18282W        W33413  13.118   8.168   1.107  0.1202  0.3516  0.3896
18283W        W33414   9.528   0.771  14.791 -0.1170 -0.1041 -0.2107
18284W        W33415   1.971   8.855  10.526  0.1908  0.0281 -0.2379
18285W        W33416  15.666   3.833   5.918 -0.0078  0.1556  0.1009
18286W        W33417   3.722   2.203   0.639 -0.2654  0.1872  0.4051
18287W        W33418   0.715   2.155  12.158  0.2386  0.0456  0.1602
18288W        W33419   4.411  12.962   3.169 -0.1321 -0.3100 -0.1294
18289W        W33420   3.544   2.152   3.116  0.2118  0.1753  0.0785
18290W        W33421   3.901  11.914  13.179 -0.0518 -0.0661 -0.0858
18291W        W33422  14.243   9.344   5.193 -0.0863 -0.2291  0.2421
18292W        W33423  17.053   7.015  13.929 -0.0166 -0.0802  0.2061
18293W        W33424  12.626  12.203  10.763 -0.1081  0.0795 -0.0861
18294W        W33425   1.906  13.175   1.962  0.2205  0.0796  0.4054
18295W        W33426   9.339   5.836  14.521  0.0063  0.0160 -0.0549
18296W        W33427   7.574   2.980  13.990  0.1308 -0.0925 -0.1317
18297W        W33428   1.165   0.181   4.478 -0.0962 -0.1031 -0.0261
18298W        W33429   8.694  10.815  13.293  0.1768 -0.1885 -0.1478
18299W        W33430  16.001   8.671  12.482  0.0167  0.0757  0.0929
18300W        W33431   3.934  15.071   4.412  0.1092 -0.0405 -0.0653
18301W        W33432   6.646  10.636   3.498  0.0591 -0.0312 -0.0045
18302W        W33433  15.163  17.672   4.604  0.1884 -0.0356 -0.1971
18303W        W33434   7.641  13.636   9.267  0.1204 -0.3632 -0.1758
18304W        W33435  10.779  15.950   2.461 -0.0983 -0.0092  0.1536
18305W        W33436   4.840  14.304  13.953 -0.0977  0.0695 -0.0469
18306W        W33437   4.571  14.362   4.209  0.0468 -0.0458  0.0806
18307W        W33438  15.280  14.769   4.388 -0.0826 -0.0227  0.2599
18308W        W33439   8.966  12.456   4.664 -0.0644  0.0280  0.1227
18309W        W33440  10.255   6.586  15.273 -0.0726 -0.0609 -0.3068
18310W        W33441  17.213   6.523  12.407  0.2201 -0.0225 -0.0269
18311W        W33442   1.655  11.734   2.718 -0.3231 -0.0812  0.1506
18312W        W33443   0.340   9.058   4.560 -0.0488  0.0340 -0.0610
18313W        W33444  11.899   4.455   3.550  0.0013  0.2493 -0.5249
18314W        W33445   0.910   1.708   4.433 -0.4852 -0.0980 -0.2547
18315W        W33446  12.148   0.929   1.987  0.1328  0.1171  0.2101
18316W        W33447  16.769   6.138   0.276 -0.1621  0.0340 -0.0386
18317W        W33448   0.112   6.101   0.545  0.0466  0.0016 -0.3435
18318W        W33449   8.778   4.468  12.563 -0.1632  0.0121 -0.0560
18319W        W33450  11.121   0.054  11.164  0.0683  0.3717 -0.0090
18320W        W33451   4.955  12.701   4.590 -0.0785  0.0093  0.2280
18321W        W33452   5.036  17.836   3.959 -0.3570 -0.0770  0.1293
18322W        W33453   3.449   6.436   9.933 -0.0288 -0.1344 -0.2749
18323W        W33454   7.617  15.411  11.716 -0.1502  0.0545 -0.1137
18324W        W33455   8.330   0.852   0.340 -0.0091  0.3426  0.0013
18325W        W33456   4.308  18.118   5.019  0.3552  0.1189  0.1281
18326W        W33457  11.235  16.849   2.839 -0.4301 -0.0205 -0.0307
18327W        W33458  12.766   8.315   0.780 -0.5202 -0.3091  0.0152
18328W        W33459  17.789   1.706   5.411  0.0138 -0.2205 -0.0159
18329W        W33460   5.520  14.708  14.902  0.2755 -0.2869  0.2023
18330W        W33461   8.736  17.542  15.268  0.1526  0.3733 -0.2126
18331W        W33462  12.655   9.709   3.098  0.3154 -0.2756 -0.0778
18332W        W33463   4.836  16.978   5.467  0.0534 -0.0157 -0.2986
18333W        W33464  14.758   0.432   1.849  0.1391  0.0420 -0.0409
18334W        W33465  11.672   7.044   4.538 -0.2543 -0.0318 -0.4082
18335W        W33466   3.865   6.395   4.517  0.0689 -0.0896  0.1124
18336W        W33467  17.283   9.526   3.056  0.3793  0.3538  0.4284
18337W        W33468   2.132  13.595  14.665  0.1569 -0.0340  0.1093
18338W        W33469   5.620  10.515  13.734  0.2136 -0.0192  0.0824
18339W        W33470  12.574  14.262   2.065  0.1010  0.2442  0.0810
18340W        W33471  15.070   8.345   1.769 -0.1857  0.0164  0.0152
18341W        W33472  14.060   1.700   5.379 -0.1443  0.0705  0.2086
18342W        W33473   4.972   7.768   5.106 -0.1149 -0.0449  0.2606
18343W        W33474   3.561  17.380  14.674 -0.0293  0.1351 -0.0496
18344W        W33475   7.361  16.596   0.737 -0.0307  0.0523 -0.1204
18345W        W33476   9.793   3.712   3.277  0.3389 -0.1674 -0.0981
18346W        W33477   5.400  17.069   2.397  0.3295 -0.1031  0.0288
18347W        W33478  17.970   8.894   3.138  0.0360  0.1464  0.0662
18348W        W33479   0.141   2.230   0.627  0.0667 -0.2109  0.2767
18349W        W33480  15.331   7.605  11.052 -0.0134  0.1142  0.0649
18350W        W33481  17.796  15.375  14.700 -0.0183  0.0656  0.0106
18351W        W33482   1.714   9.102  10.934  0.0363 -0.1307 -0.0395
18352W        W33483   1.992   2.894   1.069 -0.0178  0.1245 -0.1285
18353W        W33484   2.846   1.686  13.486 -0.0306  0.0328  0.1581
18354W        W33485  10.010  14.036  14.053  0.0714  0.1301  0.0858
18355W        W33486   9.725  16.826  14.602 -0.0411 -0.0686  0.3605
18356W        W33487   8.771  17.038  11.710  0.2742 -0.0017  0.1079
18357W        W33488  12.941   3.738   1.816 -0.1513 -0.2259 -0.0902
18358W        W33489   1.701  14.406  10.519 -0.0173  0.3650 -0.0446
18359W        W33490  15.779  11.654  15.273 -0.5458  0.0430 -0.5128
18360W        W33491   6.299  11.025  11.936  0.2859 -0.0001 -0.0884
18361W        W33492   9.619   1.543   2.795  0.0131  0.2749 -0.0934
18362W        W33493   3.391  15.146   2.141 -0.0095 -0.0027  0.1087
18363W        W33494   8.747  16.433  15.651  0.0394 -0.3791 -0.3319
18364W        W33495  16.185  12.061   0.367 -0.0683 -0.1811  0.0375
18365W        W33496   9.706   9.441   4.783 -0.1555  0.1977 -0.0334
18366W        W33497  12.999   9.832  13.173  0.1096 -0.1603 -0.1891
18367W        W33498  15.119   7.275  10.704 -0.1909 -0.2234 -0.1174
18368W        W33499   5.444   9.844  13.818  0.0641 -0.0140 -0.1437
18369W        W33500   5.160  14.725  12.427 -0.2036 -0.0786 -0.1197
18370W        W33501   0.121  10.697   3.762  0.1156 -0.1706  0.0125
18371W        W33502   9.126   0.209   6.056  0.2953  0.3286 -0.0908
18372W        W33503  16.945   1.874  12.105 -0.2355  0.0900  0.0289
18373W        W33504   2.056   8.410  11.345 -0.0393 -0.2605 -0.4151
18374W        W33505  10.462   5.272   0.751  0.0703 -0.0621 -0.2035
18375W        W33506  17.759   7.193  10.414 -0.0811  0.0455  0.0235
18376W        W33507   4.963  12.149   1.676 -0.3931  0.0350 -0.2181
18377W        W33508  11.174   2.063  14.968 -0.1200 -0.1139 -0.1588
18378W        W33509  14.629   8.533  14.316  0.2645 -0.1507 -0.0078
18379W        W33510  16.372   0.606   3.850  0.1303 -0.2298 -0.1546
18380W        W33511   6.459   8.847   4.072 -0.1610 -0.0567  0.3442
18381W        W33512   3.982   6.846  14.690 -0.3140 -0.0579  0.2307
18382W        W33513  15.466   0.098   4.779 -0.1959 -0.2607 -0.1261
18383W        W33514   2.058   1.831   2.963  0.1357  0.0508 -0.0637
18384W        W33515  16.286  13.960  12.517  0.1015 -0.2068 -0.0722
18385W        W33516  14.573   8.372  12.082  0.5846  0.0925  0.0335
18386W        W33517  14.415   2.997  12.040  0.1642 -0.0238 -0.1849
18387W        W33518   2.630  11.209   1.789 -0.0569 -0.2569 -0.0602
18388W        W33519   4.748  12.844   2.376  0.1399  0.0075  0.0186
18389W        W33520   6.982  16.049  14.916 -0.1152  0.2341 -0.0247
18390W        W33521  16.221   6.920   0.696  0.5008  0.2770 -0.1195
18391W        W33522   1.201   2.776   1.564  0.2071 -0.0671 -0.0708
18392W        W33523  14.683   8.875   0.145 -0.1560 -0.0372  0.0790
18393W        W33524   0.680  10.062   1.593  0.1475  0.1705  0.1169
18394W        W33525  12.623   0.137  10.825 -0.0825 -0.1030 -0.0283
18395W        W33526   7.036   1.419  14.436  0.0201 -0.5932  0.0886
18396W        W33527   4.532   9.287  11.016 -0.0610 -0.1354  0.2189
18397W        W33528   3.884  10.473   2.671 -0.2842 -0.1033  0.0409
18398W        W33529   0.161  10.196  13.028 -0.0008  0.2211  0.5190
18399W        W33530   9.290   6.296   2.652 -0.2069 -0.0364 -0.1544
18400W        W33531  12.426  11.846  12.630  0.1346 -0.2191 -0.0290
18401W        W33532  11.022  18.198  13.145 -0.0184 -0.0131 -0.1524
18402W        W33533   9.177   4.268   2.884 -0.0248  0.3025 -0.0074
18403W        W33534  15.978  16.041   2.602  0.0465  0.0148  0.3781
18404W        W33535   9.316  10.320   4.268  0.1025  0.0073 -0.0533
18405W        W33536  16.945  11.156  15.727 -0.3788  0.0520 -0.2357
18406W        W33537   4.325   0.433  13.714  0.2627  0.1988  0.1737
18407W        W33538  15.412   9.594   2.092  0.0223  0.1960 -0.0037
18408W        W33539  17.826   7.831   1.347  0.2311  0.2268 -0.1340
18409W        W33540   9.863   9.796  11.982 -0.2923  0.1006  0.0574
18410W        W33541  10.892   7.766  13.699 -0.1110  0.1514 -0.3233
18411W        W33542   9.524   6.691   5.222  0.1737  0.3258 -0.0527
18412W        W33543   2.324  12.328   3.570 -0.2265 -0.5149 -0.2241
18413W        W33544   3.167   3.070  10.845  0.0978 -0.1973 -0.4228
18414W        W33545   9.627  12.272   5.510 -0.0991  0.0507  0.0126
18415W        W33546  16.298   3.493  16.042  0.4029  0.1262  0.2421
18416W        W33547  14.739   9.454   4.696  0.1769  0.2220  0.0819
18417W        W33548  18.045   7.521  15.079 -0.0739 -0.1383 -0.0612
18418W        W33549   3.875  15.718   0.619 -0.0127  0.2279 -0.1079
18419W        W33550  16.502  13.782  11.990 -0.0631  0.3355 -0.0289
18420W        W33551   9.087  11.952  12.172  0.0905 -0.1924 -0.0268
18421W        W33552  17.817  17.559   2.256 -0.1670  0.0166 -0.5652
18422W        W33553  10.808  10.264  15.899  0.1368 -0.2411 -0.2267
18423W        W33554   0.400   6.455  14.077 -0.0445  0.1914  0.1018
18424W        W33555   7.528  11.805   1.062  0.0803 -0.3342 -0.0851
18425W        W33556  14.291   0.789   5.621  0.3265  0.2316  0.1271
18426W        W33557   7.644  16.749  11.226 -0.0916  0.0947 -0.3064
18427W        W33558   4.184  12.546   1.762 -0.1318 -0.1685  0.1116
18428W        W33559  16.569   0.045  13.580  0.2981 -0.3092  0.0616
18429W        W33560  16.951   0.768  14.805  0.0196  0.0096 -0.0514
18430W        W33561   9.532   3.286  12.842  0.0671  0.2805  0.0478
18431W        W33562   7.000  13.455   2.844 -0.2515 -0.0754  0.2539
18432W        W33563   5.332  17.672  11.947 -0.1111  0.2755 -0.0704
18433W        W33564   4.139   3.879  11.784 -0.0181 -0.0366  0.0024
18434W        W33565  11.728   4.745  15.127  0.1050  0.1123 -0.0554
18435W        W33566   5.677  11.515   1.986 -0.1099 -0.0138 -0.0451
18436W        W33567   3.002   3.304  13.576  0.0851  0.2929 -0.0015
18437W        W33568  13.477   7.288   1.321  0.1822 -0.0534  0.1722
18438W        W33569   2.690  12.627   2.131 -0.1831 -0.2951 -0.0248
18439W        W33570   5.195   1.128   1.910  0.1694  0.1153  0.2226
18440W        W33571  11.071   5.972  15.049 -0.0573 -0.0208  0.1710
18441W        W33572   0.730  16.301   1.996  0.2860  0.1566 -0.2301
18442W        W33573  15.536  11.785  11.926 -0.5136  0.3530  0.3750
18443W        W33574  15.586  12.932   3.087  0.0944 -0.0221 -0.3049
18444W        W33575  10.027   4.829  11.892  0.1131 -0.2778 -0.0209
18445W        W33576   2.852  17.152  12.117 -0.1313 -0.0742  0.0349
18446W        W33577   7.117  11.974  12.992 -0.0352 -0.0184  0.2806
18447W        W33578   3.799   4.200  13.289  0.0735  0.1180  0.0529
18448W        W33579  14.086   0.283  12.099  0.2875 -0.3168 -0.1793
18449W        W33580  11.583  14.282  13.221 -0.5043 -0.3734  0.0498
18450W        W33581  11.747   9.219  14.745  0.0429  0.1854 -0.0471
18451W        W33582   8.353   8.427   1.317  0.2365  0.0073 -0.2129
18452W        W33583   6.250  15.798  12.889  0.1730 -0.1701  0.0835
18453W        W33584   7.296   7.076  13.215  0.0315  0.2080  0.1419
18454W        W33585   0.676   1.416   4.815  0.4182 -0.2132  0.3251
18455W        W33586   7.894   5.141   3.966 -0.0318 -0.1571 -0.0232
18456W        W33587   7.926  11.668  15.267  0.3658  0.0614  0.0926
18457W        W33588  13.500  10.284   2.225  0.1361 -0.2635  0.0955
18458W        W33589  17.158   5.217  15.205  0.1961 -0.1595  0.0233
18459W        W33590   4.884   3.770   2.956 -0.0683 -0.2272  0.1744
18460W        W33591   6.634  12.506   0.887 -0.2830  0.1671  0.1372
18461W        W33592  12.447   4.021   1.854 -0.2085  0.1532 -0.2367
18462W        W33593   3.885  14.921   5.131  0.0767 -0.2256  0.0417
18463W        W33594  16.604  15.386  13.179 -0.3724 -0.0385  0.0263
18464W        W33595  13.144   5.534   4.832 -0.0004  0.0138 -0.0219
18465W        W33596   4.928   2.855  12.811 -0.1121  0.0343  0.1325
18466W        W33597  16.502   5.048   4.568  0.2589  0.1920 -0.0115
18467W        W33598  12.906  17.437  11.334 -0.1166  0.2292 -0.2279
18468W        W33599  18.340   6.742  14.847 -0.3157 -0.1110 -0.3315
18469W        W33600   6.648   2.444  14.040  0.5105  0.2320 -0.1216
18470W        W33601   9.887  14.309  15.959  0.6650 -0.2274 -0.0179
18471W        W33602   2.195  11.485  12.238 -0.0249  0.1482  0.1655
18472W        W33603   8.954  15.768  14.110 -0.2101 -0.0531 -0.0307
18473W        W33604   1.899   7.612   2.777 -0.0669  0.2293 -0.0824
18474W        W33605   4.864  10.985  13.377 -0.0552  0.2875  0.0610
18475W        W33606   7.961   6.059   0.910 -0.0568 -0.0308  0.1900
18476W        W33607  12.494  10.243  14.296  0.0862  0.2476 -0.2044
18477W        W33608   1.020  14.692  11.498 -0.1497  0.4398  0.0789
18478W        W33609   3.906  18.081  13.991 -0.2330 -0.1303 -0.1326
18479W        W33610  14.678   3.867  15.120  0.0637 -0.1147  0.3268
18480W        W33611  13.377  11.821   2.714  0.4676  0.3660 -0.0666
18481W        W33612  16.258   4.428   0.209 -0.2342 -0.0488  0.1691
18482W        W33613  11.958  18.129   3.290 -0.2915 -0.1116  0.0070
18483W        W33614   4.504   5.280   3.314  0.1379  0.1950 -0.0873
18484W        W33615   3.917   5.751   1.215 -0.0049 -0.0323 -0.2053
18485W        W33616   3.527   1.255  14.322  0.0473  0.0682 -0.0825
18486W        W33617  17.720   7.197  14.322  0.1891  0.0038 -0.0434
18487W        W33618   1.732   1.824   4.307  0.2359  0.0925 -0.1723
18488W        W33619  10.552   2.537   2.697 -0.1468 -0.2463  0.1769
18489W        W33620  16.175   8.161   4.210 -0.1521  0.0361 -0.2185
18490W        W33621   6.449  13.818  13.437 -0.3429 -0.3441 -0.0606
18491W        W33622  13.049  14.801  14.625 -0.0070 -0.1281  0.1439
18492W        W33623   5.301  15.200  14.292 -0.1079 -0.0342  0.1027
18493W        W33624   2.847   9.544  15.491  0.3223 -0.1750  0.1692
18494W        W33625   1.048   6.231  14.128 -0.5755 -0.0010 -0.4101
18495W        W33626  13.465   1.538  13.212  0.0861  0.0445  0.0202
18496W        W33627   1.626   0.090  13.351 -0.0240 -0.2038 -0.2566
18497W        W33628   7.596  15.587   3.765  0.4168  0.0719  0.0745
18498W        W33629   6.863   4.126   5.972  0.2141  0.2473 -0.2851
18499W        W33630  17.186   4.067  10.159  0.1549  0.2258  0.2521
18500W        W33631  17.144   7.916  14.997 -0.0245 -0.2923 -0.0595
18501W        W33632   4.186   3.470  11.222 -0.2378  0.0684 -0.2661
18502W        W33633   9.171   3.062  14.970  0.0548 -0.2015  0.3047
18503W        W33634  13.534  18.007  13.135 -0.0956 -0.0355  0.1401
18504W        W33635   3.451   5.005  10.937 -0.0319 -0.1433 -0.1697
18505W        W33636  14.407  17.373   3.943 -0.0516  0.4521  0.1000
18506W        W33637  16.406  15.503   9.938  0.0690 -0.0796  0.1295
18507W        W33638  10.419   1.633  12.507 -0.1850 -0.2565 -0.2421
18508W        W33639   5.823   0.418  14.553  0.1059  0.1227 -0.0297
18509W        W33640  13.554   3.898  12.028  0.0484 -0.1594  0.2671
18510W        W33641  14.026   9.297   1.502 -0.3452  0.0976 -0.1018
18511W        W33642  10.772  12.113  11.208 -0.0869  0.0453 -0.3101
18512W        W33643   3.849  13.705  13.495  0.4308 -0.2301  0.0069
18513W        W33644   2.577   8.139  15.386  0.1391  0.2088 -0.3798
18514W        W33645   6.911  16.937   0.919 -0.2010 -0.0463  0.1524
18515W        W33646   7.862  15.517  11.260  0.2157  0.0677 -0.0180
18516W        W33647   3.823   8.664   3.491  0.0174 -0.0203  0.1406
18517W        W33648   7.747  12.362  10.123  0.2525  0.3474 -0.2165
18518W        W33649   5.967  14.906  10.613 -0.1611 -0.0563 -0.0413
18519W        W33650   2.887   0.941  14.189  0.0438  0.2323 -0.1216
18520W        W33651  10.886  17.281   5.650  0.0748 -0.0600  0.0868
18521W        W33652   2.622   8.143   3.399 -0.2186 -0.0208 -0.1482
18522W        W33653   0.216   5.316   3.265  0.2080  0.1102  0.0082
18523W        W33654   0.291   1.896  16.044 -0.2033 -0.0987  0.1610
18524W        W33655   7.053   8.997   1.959 -0.0401 -0.3013  0.2073
18525W        W33656   8.386   7.556  13.726 -0.0853  0.0939 -0.1468
18526W        W33657   5.449   3.857  15.897 -0.2310 -0.0049 -0.0772
18527W        W33658   1.492   0.492   4.295  0.0092  0.0564 -0.0130
18528W        W33659   5.709   2.902  13.532  0.1543  0.1995 -0.1017
18529W        W33660   8.662  16.472   3.934 -0.2480  0.0684 -0.1998
18530W        W33661   5.031  10.088  10.915 -0.0964  0.0203 -0.0018
18531W        W33662   5.297   2.366   1.965 -0.2292 -0.0064 -0.2550
18532W        W33663  13.474   6.352   3.719  0.1335  0.0002  0.3149
18533W        W33664   3.057  16.906  16.009 -0.0506  0.1815 -0.3652
18534W        W33665  10.870   9.047   1.433  0.4414 -0.0698  0.1343
18535W        W33666  14.080   8.947  13.735 -0.0558  0.0086 -0.1312
18536W        W33667   4.110  16.769  13.711 -0.1275 -0.0321  0.1303
18537W        W33668   9.771   9.936   2.533  0.1360  0.2481 -0.2147
18538W        W33669  17.814  18.011   0.123  0.0776 -0.0742 -0.1120
18539W        W33670   0.611  11.634   3.910  0.0156  0.3566  0.1318
18540W        W33671  16.915  16.776   5.476  0.0909  0.1354  0.0824
18541W        W33672   9.337  13.015   2.823 -0.4948  0.0847 -0.1239
18542W        W33673   8.793  10.018   5.141 -0.1736 -0.0988 -0.1565
18543W        W33674  12.449  15.712  11.149  0.0593  0.1816  0.4123
18544W        W33675  12.290  15.297   0.418  0.0462 -0.0049 -0.3888
18545W        W33676   9.949   8.948   4.870  0.4739 -0.0322 -0.2384
18546W        W33677   7.020  15.648  11.300  0.1167 -0.1226 -0.3114
18547W        W33678   4.810  14.983   1.750 -0.1826  0.2519  0.1603
18548W        W33679   0.486   5.925   1.409 -0.0166 -0.0780  0.1132
18549W        W33680  15.378  15.033  13.432 -0.0442 -0.3082  0.0772
18550W        W33681   2.716  15.405  15.280  0.0517  0.1008  0.0799
18551W        W33682   0.015  13.029  13.131  0.1722  0.2130 -0.0803
18552W        W33683  12.303   8.983   5.683 -0.1647  0.1591 -0.2531
18553W        W33684   6.504   4.653   0.935  0.1192  0.1811 -0.2329
18554W        W33685  12.712   4.834  14.996  0.0956  0.2639  0.3355
18555W        W33686   5.239  17.953  13.206  0.1125  0.1366 -0.3333
18556W        W33687   4.237  12.213   1.244  0.0919  0.1677 -0.0580
18557W        W33688   8.112   9.301  13.992 -0.2766  0.1739 -0.2268
18558W        W33689   9.538  11.064  11.204 -0.0746  0.1893  0.2603
18559W        W33690  10.403   0.027   4.879  0.2266  0.3311 -0.0837
18560W        W33691   3.367   3.164   5.646  0.2024  0.1246  0.1993
18561W        W33692   3.929   4.788   2.727 -0.3097 -0.0515 -0.0182
18562W        W33693   3.820   4.233  12.551 -0.0357 -0.0721 -0.1401
18563W        W33694   7.795  11.848   0.534  0.1396  0.0312  0.2629
18564W        W33695  15.218  13.464  10.612  0.0794  0.1835  0.0663
18565W        W33696  12.541  11.099   0.867 -0.1270  0.0802 -0.1462
18566W        W33697  16.062  16.902   0.233 -0.1591  0.1437  0.1790
18567W        W33698  15.773   5.877   5.915 -0.0701 -0.0851 -0.0384
18568W        W33699   6.419   6.830  11.606  0.3868 -0.0268 -0.2169
18569W        W33700   8.850  15.101  12.646  0.0215  0.3376 -0.0396
18570W        W33701   6.416   3.962  16.059  0.0413  0.1183 -0.1980
18571W        W33702   1.132  17.916   4.540  0.0586 -0.3468 -0.0379
18572W        W33703   7.269   9.861   0.867 -0.2434 -0.3582  0.1819
18573W        W33704   4.807  16.778   0.117 -0.1678 -0.0182  0.0429
18574W        W33705   3.452  10.716  10.967 -0.1036  0.1595 -0.0486
18575W        W33706  13.272   2.290  16.031 -0.1935 -0.1237  0.0766
18576W        W33707  16.225  16.441   2.827 -0.5431  0.3292  0.0269
18577W        W33708   5.533  12.947  11.200  0.0894 -0.0120 -0.1738
18578W        W33709  12.825   7.128   3.419  0.1276 -0.1023 -0.2209
18579W        W33710   6.507  13.338  10.847 -0.3412 -0.2408  0.0739
18580W        W33711   5.454  10.949  11.460  0.2167  0.1588  0.0366
18581W        W33712  13.400   8.647   4.188 -0.2662  0.2155 -0.2066
18582W        W33713  10.000   7.128  14.634  0.3083 -0.1121  0.2508
18583W        W33714  11.603   6.839   0.309 -0.5103 -0.1163 -0.1837
18584W        W33715  17.250  14.055   3.723  0.2050 -0.0729 -0.4984
18585W        W33716   0.292   5.667   2.318  0.1492  0.0155 -0.1918
18586W        W33717   4.507   3.885  15.329  0.1816 -0.0310  0.0989
18587W        W33718  10.341  10.368  15.719  0.3288 -0.1629  0.5624
18588W        W33719  16.728  13.898   3.629  0.1831 -0.2531 -0.1465
18589W        W33720   2.073   4.230   4.114  0.0275  0.3902  0.2255
18590W        W33721   6.206  12.517   3.280  0.0620  0.2329  0.1444
18591W        W33722   0.006  14.865  11.474  0.0197  0.0379  0.0501
18592W        W33723   3.983  13.019   5.129 -0.2330 -0.0178  0.1061
18593W        W33724   6.613  10.115  12.710  0.0841  0.3327 -0.3615
18594W        W33725   7.677  10.051  12.476  0.2060  0.1185 -0.0287
18595W        W33726  16.727  15.506  12.689 -0.0467  0.0472 -0.0451
18596W        W33727  16.983   7.200   1.472  0.0226 -0.1383 -0.2062
18597W        W33728  11.247  12.264   5.010  0.0935  0.5691  0.1968
18598W        W33729   3.801  13.486   0.140 -0.0538 -0.1964  0.0087
18599W        W33730   2.114   8.298  15.467  0.2214 -0.0063 -0.1193
18600W        W33731  11.941  17.843   2.853 -0.0396 -0.2551 -0.3137
18601W        W33732  13.256  11.034  13.021  0.1646 -0.0516  0.3372
18602W        W33733   0.178   6.160   2.362  0.0363  0.2196 -0.0192
18603W        W33734   7.507  13.631   4.292 -0.0953  0.0438  0.1730
18604W        W33735   0.289  10.505   1.120 -0.1338  0.2758  0.0858
18605W        W33736   9.468   6.677  12.969 -0.1369 -0.2058  0.1254
18606W        W33737  15.367  15.364  11.809 -0.0741 -0.0121  0.1754
18607W        W33738   2.099   1.187  14.959 -0.2264  0.3927 -0.1931
18608W        W33739   8.424   0.095   4.743  0.0003 -0.0615  0.0783
18609W        W33740   6.287   1.010   1.483  0.2892  0.1676  0.0132
18610W        W33741   3.287  17.505  10.808 -0.1124  0.1967  0.2148
18611W        W33742   9.629   2.605  12.445 -0.1328 -0.1500 -0.0964
18612W        W33743   8.037  10.708  11.283 -0.0279  0.1919 -0.0746
18613W        W33744   8.833   5.709  13.769  0.0619 -0.1904 -0.0046
18614W        W33745  17.208  13.799  12.695 -0.1561  0.0162 -0.2370
18615W        W33746  12.222   7.781   4.190 -0.0740  0.1642 -0.2010
18616W        W33747   3.376  13.268   3.090  0.2220  0.0294 -0.2187
18617W        W33748   0.694  11.097  10.902 -0.3367 -0.1032  0.0243
18618W        W33749  11.053  16.027   5.570 -0.2885  0.0515  0.2389
18619W        W33750  11.005  18.352  12.615  0.2519  0.1724 -0.0628
18620W        W33751  12.334  13.368  14.518 -0.1566  0.1032 -0.0480
18621W        W33752  10.034   6.681  14.820 -0.1762 -0.1306 -0.0311
18622W        W33753  18.245   2.196  14.949  0.1692 -0.1610 -0.0739
18623W        W33754   9.485   5.999   3.076 -0.0971  0.4067  0.1215
18624W        W33755   9.394  16.989   3.322  0.0978 -0.0546  0.0792
18625W        W33756  16.561   0.997  12.376 -0.2238 -0.0433 -0.0084
18626W        W33757   6.388  16.744  12.456 -0.2168 -0.2243  0.1004
18627W        W33758   4.305  14.091  10.107  0.1159 -0.1157 -0.2757
18628W        W33759   9.351   0.793   0.536  0.0826  0.0996  0.0647
18629W        W33760   4.352   3.358  15.292 -0.2346  0.1164  0.1458
18630W        W33761  11.164   1.717   5.171 -0.0087  0.2109 -0.1531
18631W        W33762   4.163  12.383  14.864 -0.1697  0.0608  0.1958
18632W        W33763   9.942  12.823  13.710 -0.1521 -0.2232 -0.0752
18633W        W33764   3.703   0.593   0.520  0.1950 -0.0647  0.0272
18634W        W33765  12.766   0.837   5.598 -0.0573  0.2293 -0.0734
18635W        W33766   6.028   0.603   1.561 -0.2664 -0.2478 -0.0766
18636W        W33767   2.590   2.358  10.649  0.2667  0.0036  0.1968
18637W        W33768  14.409  18.222   5.280  0.0196  0.1187  0.1363
18638W        W33769  11.180  11.340  11.863  0.2303 -0.0829  0.2674
18639W        W33770  15.684  18.136  14.991 -0.2584 -0.2136  0.1288
18640W        W33771   2.531  10.851  12.347  0.0709  0.1682  0.2061
18641W        W33772  13.571  16.074  11.799  0.0641 -0.2129  0.1102
18642W        W33773   2.418  17.385  11.820  0.0726 -0.0479 -0.3457
18643W        W33774   4.785  13.564  14.499 -0.0986  0.0567  0.0102
18644W        W33775   6.174  14.135  15.137 -0.1748  0.1048  0.0065
18645W        W33776   5.942   9.372   2.410  0.1282  0.0653  0.2629
18646W        W33777   0.794  10.594  11.839  0.1491  0.1001  0.0536
18647W        W33778  18.186   2.554   5.048 -0.3079  0.0874 -0.0257
18648W        W33779  17.514   4.926  13.380 -0.1654 -0.1127 -0.2115
18649W        W33780  10.288   3.703   5.478 -0.1602  0.2511  0.2663
18650W        W33781   4.710   3.156  13.236  0.0395  0.1446  0.0909
18651W        W33782  14.066  14.730  14.993 -0.1530 -0.0298  0.2063
18652W        W33783  16.825  11.624  12.629 -0.0115 -0.2132 -0.1199
18653W        W33784  12.564  11.836  15.831 -0.2676 -0.1610 -0.3400
18654W        W33785  15.274   5.753  15.599  0.2417 -0.0434  0.0060
18655W        W33786   5.170   3.787   4.001 -0.1145 -0.1564  0.0118
18656W        W33787  11.065  11.545   1.750 -0.1116 -0.0124 -0.4235
18657W        W33788   0.255  17.955   0.476  0.0027  0.0021  0.2999
18658W        W33789  10.106  15.627   1.793  0.0310  0.0574 -0.0272
18659W        W33790   4.690   3.251  14.928 -0.1746  0.2915 -0.1510
18660W        W33791  10.141  17.068   0.255 -0.1796  0.0659  0.2753
18661W        W33792   5.897   2.393  12.827  0.3014 -0.0866 -0.0583
18662W        W33793  12.996  12.661   3.520 -0.0503  0.1709  0.0904
18663W        W33794  12.595   8.583   5.830  0.0747 -0.2391  0.3801
18664W        W33795   9.112  13.530  12.851 -0.1929  0.1311 -0.1599
18665W        W33796   8.106  14.388   4.851 -0.2629  0.2219 -0.4488
18666W        W33797   0.657  11.525  12.694 -0.0323 -0.1094 -0.3469
18667W        W33798   0.993  13.447  12.234 -0.0794 -0.3080 -0.3166
18668W        W33799   0.799  13.713   0.291 -0.1192 -0.0296  0.2144
18669W        W33800   2.382   9.264  11.334 -0.2542  0.3015  0.0458
18670W        W33801   8.652  16.153   2.392 -0.2107 -0.0399 -0.0329
18671W        W33802  12.447   4.450   2.212 -0.1076 -0.3205 -0.0599
18672W        W33803  17.838   9.990  15.902  0.0588 -0.0565  0.1906
18673W        W33804   6.314   9.492   5.250 -0.1748  0.2129  0.0503
18674W        W33805  10.776  17.709   3.996 -0.2055  0.4209 -0.1468
18675W        W33806   9.490  13.808  13.835  0.3219  0.0342 -0.3395
18676W        W33807   0.722  13.565   0.747  0.2911  0.2490 -0.3421
18677W        W33808  17.555   5.721   4.820 -0.2586  0.1028  0.0976
18678W        W33809   2.188   8.866  11.518  0.0488  0.0359 -0.0921
18679W        W33810  18.109  12.420  12.787 -0.1242  0.1614 -0.1970
18680W        W33811   3.806  11.884   4.380 -0.4116  0.0751 -0.1299
18681W        W33812   1.351   4.235   4.392 -0.1127  0.0419 -0.2324
18682W        W33813   6.365  13.330   5.809 -0.3353 -0.0198 -0.2825
18683W        W33814   0.648   0.452  14.931 -0.3770  0.1735  0.2160
18684W        W33815  17.043  16.867   0.830 -0.1303  0.0931 -0.0495
18685W        W33816   1.243   7.337   2.204  0.2380  0.0398 -0.0047
18686W        W33817  10.797  15.689   5.288 -0.0284 -0.0865  0.0162
18687W        W33818   1.508   7.597  11.531 -0.1036 -0.0186  0.2040
18688W        W33819   4.734  14.759  15.140  0.0644  0.1129  0.1525
18689W        W33820  12.559  14.406   4.057 -0.1563 -0.1579  0.1752
18690W        W33821   3.414  14.647   5.309 -0.0640 -0.3728  0.0078
18691W        W33822   6.996  10.512  14.446 -0.0560  0.0502  0.1323
18692W        W33823  17.524  13.091   4.032 -0.3017  0.0481  0.0460
18693W        W33824   1.205  10.751  12.627 -0.2853  0.2438  0.0909
18694W        W33825  16.369   4.854  15.363 -0.5537  0.1043 -0.3001
18695W        W33826  16.608   7.181  12.661  0.1103  0.1650  0.1541
18696W        W33827   0.476  16.851   4.173  0.1892  0.0952 -0.1334
18697W        W33828   1.433  13.993   3.857  0.2137 -0.3280  0.2625
18698W        W33829   5.633   4.828  13.586 -0.3211  0.0475  0.1288
18699W        W33830   6.712   0.330   2.561 -0.2322  0.2110 -0.0136
18700W        W33831  16.901   9.563   0.492  0.2788  0.1188  0.1492
18701W        W33832  12.989   3.267  15.244  0.1475 -0.0549 -0.5160
18702W        W33833  11.758  16.122  14.002 -0.0326  0.1424  0.0147
18703W        W33834  10.178   6.642  13.203  0.1537  0.0548 -0.0564
18704W        W33835   9.265  11.122   4.749 -0.3619  0.0601  0.0489
18705W        W33836   4.240   7.007   3.748  0.2377 -0.3524  0.1712
18706W        W33837   2.394  12.865   1.109  0.0078  0.0266  0.0400
18707W        W33838  14.183  11.448  13.996  0.0081  0.0878  0.0825
18708W        W33839   6.191   1.366   1.839 -0.1033  0.0953  0.1068
18709W        W33840   2.110  11.952  12.166 -0.0706 -0.1651 -0.1086
18710W        W33841   6.144   2.064   3.516 -0.1173  0.0500 -0.3457
18711W        W33842   3.542  13.981   5.564 -0.3136 -0.0142 -0.0406
18712W        W33843   5.832   0.141   3.956 -0.2600  0.0179 -0.0589
18713W        W33844  10.502   3.299  11.587 -0.0007 -0.1059  0.0964
18714W        W33845   6.597   8.080   1.952 -0.0281  0.0349 -0.0890
18715W        W33846   1.776   4.061  13.146  0.0971 -0.0251  0.1252
18716W        W33847  13.022   7.373   5.283 -0.1171 -0.0792 -0.3093
18717W        W33848   4.861  16.866   4.146 -0.2015  0.1296 -0.2414
18718W        W33849  10.141  11.544  12.219  0.2057 -0.2535 -0.0463
18719W        W33850   8.967  15.311   1.970  0.0241 -0.2842  0.3408
18720W        W33851   8.983  18.072   5.231 -0.2631 -0.2682 -0.0538
18721W        W33852  16.282   3.453  13.523 -0.0355  0.2100  0.1240
18722W        W33853   6.655   6.568   0.239 -0.0673 -0.2228 -0.2840
18723W        W33854  16.338  17.127  12.647  0.1452 -0.3506  0.1017
18724W        W33855   0.127   0.327  12.462  0.2158  0.0623 -0.3906
18725W        W33856   2.833  16.023   3.506 -0.2902  0.1231 -0.1952
18726W        W33857   6.200  12.041  13.122  0.3604  0.3200 -0.0414
18727W        W33858  11.378  10.588  11.781 -0.0735  0.1455  0.0298
18728W        W33859   8.307  15.885   5.573  0.0470  0.0056 -0.3099
18729W        W33860   7.962  15.044   3.105  0.2545 -0.0722  0.1334
18730W        W33861   8.336  15.461   5.248 -0.2282  0.2559 -0.3142
18731W        W33862   2.180   6.983  11.729 -0.1723  0.0812 -0.0526
18732W        W33863   0.188   9.361   2.019  0.3675 -0.0143  0.2479
18733W        W33864  10.175  16.116  12.088 -0.1583 -0.0840 -0.0916
18734W        W33865   8.800  13.331  13.176  0.3043 -0.2415 -0.3570
18735W        W33866   7.596  10.454   4.136 -0.1333 -0.4609  0.0148
18736W        W33867   6.603   6.569   2.715 -0.0677 -0.0808  0.1979
18737W        W33868   6.522   8.165   2.893 -0.0920 -0.0119  0.0330
18738W        W33869   8.918  12.501  15.585 -0.0950  0.0413  0.2642
18739W        W33870   6.476  13.629  13.980  0.2969  0.1009  0.1262
18740W        W33871   6.952   3.537  14.269  0.1073  0.4456  0.1337
18741W        W33872   6.258   1.730  14.875 -0.1710  0.0235  0.3129
18742W        W33873   8.561   0.932  13.640 -0.0902  0.0289 -0.1658
18743W        W33874  13.016   7.196   1.534 -0.0072 -0.0085 -0.0901
18744W        W33875  17.409  10.277   1.416 -0.2426 -0.1710 -0.1699
18745W        W33876  11.072   1.781   0.087  0.2454 -0.0358  0.0550
18746W        W33877  11.102   9.213   2.206  0.0153 -0.1690  0.3996
18747W        W33878   5.116   4.575  14.714  0.1227 -0.4149 -0.2052
18748W        W33879   5.062  12.536  13.556 -0.1626  0.2669  0.0244
18749W        W33880   1.862   5.861   4.174 -0.1163  0.0935  0.2048
18750W        W33881  15.738   6.853  11.446 -0.2344 -0.3156  0.0107
18751W        W33882  11.097  11.908  13.451 -0.2068  0.0258  0.2335
18752W        W33883  10.961  16.638   4.734  0.1939 -0.1399  0.1385
18753W        W33884   9.475   3.508  15.570  0.0810  0.3614  0.0833
18754W        W33885   6.353  10.693   0.549 -0.1790  0.1660  0.1417
18755W        W33886   0.308  13.549  14.104  0.1573 -0.2415  0.0007
18756W        W33887  10.514  16.824   5.817  0.0654  0.1038  0.0692
18757W        W33888   8.886   1.196   2.102 -0.0766  0.2038  0.1239
18758W        W33889  10.193   4.740  12.404  0.1225 -0.1176  0.1856
18759W        W33890   6.428   2.798   6.206  0.0205 -0.2180 -0.2563
18760W        W33891  17.541  17.952  13.609 -0.1179 -0.1076  0.1309
18761W        W33892   7.050  16.776  14.259 -0.0251  0.1878  0.0582
18762W        W33893   5.126  15.271  13.277 -0.1724  0.2896  0.1255
18763W        W33894  17.563  14.378  11.671 -0.0553 -0.2907 -0.3324
18764W        W33895  12.831   3.361   5.276  0.2677  0.1157 -0.2322
18765W        W33896  15.328   2.944   3.817 -0.1332 -0.1071 -0.1382
18766W        W33897   6.204   3.305  15.012  0.2413 -0.1461 -0.0450
18767W        W33898  18.261   3.298   3.249 -0.0438 -0.2785 -0.3590
18768W        W33899  15.309   9.397  13.119 -0.3322  0.0217  0.1183
18769W        W33900   3.773  15.845  12.093 -0.2290 -0.1587 -0.0629
18770W        W33901  10.523   3.823  14.005  0.0523  0.1236  0.0284
18771W        W33902  15.324  12.942  14.687  0.1569  0.0781  0.2253
18772W        W33903  15.821   7.856   2.836  0.0290 -0.1357  0.1510
18773W        W33904  15.226  13.000   4.387 -0.1289  0.2578  0.3033
18774W        W33905  14.625  14.397  15.929  0.1690  0.0972  0.3610
18775W        W33906  12.646   7.679  15.227  0.1573  0.0902 -0.0849
18776W        W33907   4.196   9.540  10.687 -0.2673  0.0491  0.0684
18777W        W33908  16.235   7.709  12.485  0.0546  0.1086 -0.0586
18778W        W33909   0.140   1.619   0.418 -0.0645  0.0385  0.2480
18779W        W33910  11.942   8.127  10.096 -0.2074 -0.0717  0.0311
18780W        W33911   3.076   8.248  12.251  0.0733  0.2105 -0.0961
18781W        W33912   3.183  17.367   4.448  0.1653 -0.1467 -0.0168
18782W        W33913   0.823  15.640  13.680  0.3923  0.2474  0.2428
18783W        W33914   5.993  13.755  14.063  0.2143 -0.0480  0.0569
18784W        W33915   2.481   0.461  11.558 -0.2380  0.2770 -0.2950
18785W        W33916  16.102   6.146  15.439  0.3008 -0.1444  0.0041
18786W        W33917   0.297   7.707   9.468  0.0321  0.1003 -0.1408
18787W        W33918  10.363  15.219   1.917  0.0399  0.0929  0.1557
18788W        W33919  17.798  13.599  13.900 -0.0768 -0.1790  0.0582
18789W        W33920   3.701   2.571  12.076 -0.1889 -0.0883  0.1000
18790W        W33921   8.271   6.317   2.266 -0.0062 -0.0878  0.0420
18791W        W33922  13.939   4.650   0.493  0.2531 -0.2917 -0.0450
18792W        W33923  10.973  11.134   1.245  0.1305  0.0256  0.0952
18793W        W33924  11.540  16.741   5.386 -0.3213 -0.1924  0.3699
18794W        W33925   5.831   3.764  15.053 -0.1958  0.1462 -0.0235
18795W        W33926   7.421   9.962  10.624  0.2541 -0.1487  0.1070
18796W        W33927  14.989   7.002   1.316 -0.3175 -0.1311 -0.0918
18797W        W33928  16.357   9.070   0.398 -0.1382 -0.0893 -0.0091
18798W        W33929   8.228  10.945   1.242 -0.2065 -0.1661  0.3095
18799W        W33930   8.911   5.773   4.811 -0.0141  0.1883  0.0116
18800W        W33931  10.890   9.328  15.609  0.2113 -0.1448 -0.2661
18801W        W33932   3.244  12.239  15.332 -0.0683  0.2454  0.1532
18802W        W33933   7.102   4.635   4.402 -0.1464  0.0673 -0.2212
18803W        W33934  12.419  17.984  14.114  0.1548 -0.1021  0.0430
18804W        W33935  13.202  14.517  11.166  0.0313 -0.3981  0.2865
18805W        W33936  14.229   6.917   3.502 -0.2956 -0.0296  0.0024
18806W        W33937   7.913  15.272  14.027 -0.0432  0.1217  0.0396
18807W        W33938   9.757   0.714  15.271 -0.0228 -0.2373 -0.0262
18808W        W33939  17.182  11.821   3.159  0.0385 -0.0739 -0.2765
18809W        W33940   2.104  13.025   4.687 -0.1101 -0.2876 -0.2109
18810W        W33941   4.480   2.305   3.117 -0.2369  0.1846  0.0765
18811W        W33942  14.745   6.084   1.503  0.1217 -0.2741 -0.3365
18812W        W33943   0.814   1.230  11.832 -0.1002  0.0108 -0.0002
18813W        W33944   1.688   2.939  13.181  0.0572  0.0169  0.3074
18814W        W33945   1.153   2.903  11.622 -0.3505  0.0217  0.2995
18815W        W33946   2.067  16.833  12.032  0.1928  0.0175 -0.1374
18816W        W33947   5.320  11.163  11.900 -0.0634  0.2190  0.0106
18817W        W33948   6.823  17.825  13.366  0.3014  0.3460  0.1603
18818W        W33949  10.832  10.510   2.935 -0.2074  0.1137  0.1435
18819W        W33950  10.425  11.697   2.823 -0.1457  0.2088 -0.1254
18820W        W33951  14.451   9.604   4.243 -0.1402 -0.1342 -0.2754
18821W        W33952   8.748   0.620   4.449 -0.0253  0.0829 -0.0300
18822W        W33953  13.808  10.046  12.153 -0.1915 -0.0157 -0.1457
18823W        W33954   5.999  12.127  12.684  0.0414 -0.0231  0.0310
18824W        W33955  16.983  17.926  11.892  0.1738  0.1256 -0.1006
18825W        W33956   3.628   2.098  12.030 -0.2015  0.0780 -0.2620
18826W        W33957   2.771   8.613  11.382  0.1942  0.3630 -0.0693
18827W        W33958  15.869  12.488   3.237 -0.0583  0.1809 -0.0445
18828W        W33959  13.772  17.595   0.352  0.2015  0.0124 -0.2079
18829W        W33960  11.548   0.584   6.252 -0.0553  0.1265 -0.1731
18830W        W33961  12.883   5.604   3.852  0.0290  0.2225  0.1880
18831W        W33962   7.526  17.426   4.795 -0.2054  0.0228  0.0519
18832W        W33963   5.382   9.924  15.499  0.0311 -0.0314 -0.0744
18833W        W33964   9.447  15.342   2.944 -0.2029 -0.1486 -0.1654
18834W        W33965  18.018  12.800   2.700  0.1764 -0.0453 -0.0176
18835W        W33966  18.287   3.572  14.642 -0.1514 -0.3575 -0.1054
18836W        W33967   7.323   1.217  14.839 -0.0705  0.3801 -0.0787
18837W        W33968  14.183   8.010   0.079  0.0710  0.0156  0.4379
18838W        W33969  11.157   4.278  11.657 -0.1049 -0.3048 -0.0965
18839W        W33970   2.938   0.725  11.556 -0.0042  0.1051 -0.0942
18840W        W33971   9.762   7.096  12.868 -0.0363  0.0643  0.0411
18841W        W33972  17.343   8.302  15.315  0.2240 -0.2980 -0.1018
18842W        W33973  18.254  14.568  14.346 -0.1605 -0.0725 -0.2828
18843W        W33974   9.862   7.265  15.689 -0.1652 -0.3201  0.1546
18844W        W33975  11.934   5.095   4.880  0.2774 -0.2282  0.2035
18845W        W33976  15.420  11.236  14.108  0.0248  0.4134 -0.1454
18846W        W33977  15.779   1.034  13.569  0.1879  0.2760 -0.1138
18847W        W33978   4.729  17.930  12.008 -0.1776  0.3391 -0.0457
18848W        W33979   3.752  15.310   1.724  0.0242  0.4296  0.3761
18849W        W33980  11.511   2.098  15.296 -0.0075  0.0074 -0.0062
18850W        W33981   5.132  14.430   5.010 -0.4015 -0.1489  0.0071
18851W        W33982  12.281  10.025   0.502 -0.2924  0.0570  0.1418
18852W        W33983  11.496  12.728   1.490 -0.2007 -0.1476 -0.0629
18853W        W33984   6.373   6.806   1.580  0.1417 -0.3103 -0.0655
18854W        W33985   7.802  11.475  11.065 -0.2489 -0.3623  0.0086
18855W        W33986   0.259  16.099   0.638 -0.0138 -0.1386  0.0474
18856W        W33987   5.403   2.519   2.974 -0.1035 -0.1856 -0.0767
18857W        W33988  15.146  17.179   1.543  0.2938  0.1470 -0.0037
18858W        W33989  10.744  12.146  15.841  0.0450  0.1238 -0.0145
18859W        W33990   2.071   9.279  13.366  0.1616  0.0342 -0.1005
18860W        W33991  15.238  15.221  14.822 -0.1065 -0.0108 -0.0138
18861W        W33992  14.835   8.685  15.840 -0.0411  0.0927  0.1615
18862W        W33993  15.705  16.967   0.638 -0.2243  0.1213 -0.0800
18863W        W33994  17.487   2.637   3.493 -0.1717  0.0300  0.1986
18864W        W33995   7.124  11.714  14.568  0.0784  0.0024  0.1738
18865W        W33996   1.962   5.981  12.047 -0.0796 -0.1566  0.4044
18866W        W33997   6.129  10.843  12.438 -0.0819 -0.0784 -0.1546
18867W        W33998   4.264   7.011  11.426 -0.0274  0.0138 -0.0109
18868W        W33999   0.881   3.166  12.532 -0.3896  0.0729 -0.3012
18869W        W34000   0.574   8.447   0.924  0.1054 -0.0126  0.1454
18870W        W34001   6.337   3.171  12.843  0.1195 -0.0484 -0.0202
18871W        W34002  18.351   1.163   0.519  0.0563 -0.0102  0.1485
18872W        W34003   8.816  18.369   4.258 -0.0451  0.0268  0.2564
18873W        W34004  10.429   3.004  11.163  0.0209 -0.3640 -0.0521
18874W        W34005   2.236   1.272   5.266 -0.0841 -0.1468  0.2650
18875W        W34006   4.921   4.382  16.097  0.0088  0.2627 -0.3160
18876W        W34007  14.400  11.966   6.111 -0.4462  0.0839  0.0006
18877W        W34008  13.734  14.579   0.323  0.1806  0.2565  0.0357
18878W        W34009  12.749   0.325  15.054  0.1379  0.0360 -0.2056
18879W        W34010   0.166  12.357  14.707 -0.2904 -0.0629 -0.0921
18880W        W34011  16.362  10.777   4.027  0.3094  0.0925 -0.0776
18881W        W34012   9.516  11.755  12.350 -0.2423 -0.1887  0.0234
18882W        W34013   5.739   4.052   0.393  0.0424 -0.0465  0.0630
18883W        W34014   5.311  14.267   3.130 -0.2537  0.3171  0.0482
18884W        W34015   9.313   7.333  11.083 -0.3014  0.0422  0.1805
18885W        W34016   9.496  16.297  16.100  0.2080  0.2618  0.2502
18886W        W34017  15.866   5.828  14.783 -0.1419 -0.0133 -0.0013
18887W        W34018   2.472   2.668  12.711  0.0347  0.4278 -0.0288
18888W        W34019   7.839   7.655  13.689  0.1559 -0.0781  0.2729
18889W        W34020  17.748   3.004  12.867 -0.1272  0.0748 -0.4033
18890W        W34021   3.069   9.876  11.602 -0.0502 -0.1837 -0.0781
18891W        W34022  11.323   1.557   6.262 -0.0664  0.1053  0.0634
18892W        W34023   7.406   6.295  11.472 -0.1172 -0.0908  0.2948
18893W        W34024  14.635   2.762   2.199 -0.1553  0.1726 -0.1920
18894W        W34025   8.676   7.189   0.698  0.3552 -0.1422 -0.0245
18895W        W34026   9.419  14.634  10.645 -0.3387  0.1845 -0.0347
18896W        W34027   0.505  13.891   2.333  0.1851  0.0369 -0.0724
18897W        W34028   2.006   5.768   0.161 -0.0875 -0.0123  0.2455
18898W        W34029  13.799  15.027  13.133  0.3127 -0.2324  0.0235
18899W        W34030  18.279  16.826   5.562  0.2029  0.2242 -0.0219
18900W        W34031  18.014   7.572   1.790 -0.2349  0.1484 -0.1091
18901W        W34032   7.756   2.100  14.953  0.1167  0.5109 -0.0160
18902W        W34033   2.829   2.960   3.641  0.1452 -0.0314 -0.2248
18903W        W34034   6.249   1.346  11.645  0.0801 -0.2965 -0.4596
18904W        W34035  17.108   3.778   3.107 -0.0261 -0.0835 -0.1635
18905W        W34036   7.541   4.139  15.755 -0.0669 -0.0868  0.2373
18906W        W34037   0.002   1.540   3.440 -0.1078 -0.0208 -0.0445
18907W        W34038  16.265   7.696   1.098 -0.0815 -0.0652 -0.1492
18908W        W34039   9.104  17.027   4.511 -0.1205 -0.0349  0.0721
18909W        W34040   4.281   1.170   0.968  0.1165 -0.0036  0.1297
18910W        W34041  11.716  15.281   0.244 -0.1215  0.0434  0.1205
18911W        W34042  11.935  12.510   0.778 -0.2269 -0.1188  0.0026
18912W        W34043  15.272   2.401  12.312  0.1591  0.2943  0.1869
18913W        W34044   2.160  13.241   3.471 -0.0416 -0.1300 -0.3635
18914W        W34045   0.716   4.739  14.880  0.1081  0.1871 -0.3269
18915W        W34046   5.788  13.774   4.591  0.3926  0.1659  0.0954
18916W        W34047  16.452   2.011  13.890  0.2688 -0.0860 -0.1716
18917W        W34048   4.817  12.113  14.227  0.1006 -0.4051  0.0580
18918W        W34049   3.338  12.096   3.740  0.2706  0.1305 -0.0940
18919W        W34050   5.826   3.831  11.321  0.2524  0.2514  0.0862
18920W        W34051   5.095  17.157  14.877 -0.4491 -0.1453  0.1655
18921W        W34052  14.724  12.375   0.447 -0.1056 -0.0788  0.0857
18922W        W34053   5.457  16.598  12.767 -0.1803  0.0442  0.0129
18923W        W34054  14.652   6.649   1.617  0.0630 -0.4501 -0.0728
18924W        W34055  10.542   4.102  15.991 -0.1285  0.1087 -0.0143
18925W        W34056   0.543  15.973  11.503 -0.1486  0.0762 -0.2358
18926W        W34057   6.810   8.739  15.777 -0.0885  0.1074  0.0906
18927W        W34058  11.400   1.825  15.786  0.2567 -0.2861  0.1703
18928W        W34059   9.103   7.059  14.362  0.1291 -0.1727 -0.2705
18929W        W34060   7.287  14.183  12.649 -0.1080 -0.1076 -0.2568
18930W        W34061   0.505   5.082  13.542  0.0174 -0.2780  0.2390
18931W        W34062   1.805   5.732   2.424  0.0166  0.1869 -0.0536
18932W        W34063  10.316  12.017  11.008  0.3191  0.0506 -0.1279
18933W        W34064  17.182   0.165  11.039 -0.0572 -0.0441 -0.2039
18934W        W34065  18.284  12.485   2.127 -0.2734  0.1181  0.1677
18935W        W34066  15.597   8.855   0.844  0.3168 -0.1789  0.6586
18936W        W34067  12.508   6.392  13.519  0.4995  0.0693  0.1827
18937W        W34068  13.036   9.493   1.787  0.0037 -0.0510  0.0785
18938W        W34069  16.921  12.176  14.191 -0.0106  0.3255  0.2692
18939W        W34070  15.929   6.681  12.406 -0.0139 -0.0290 -0.1330
18940W        W34071   9.474  16.366   3.642 -0.1335 -0.0527 -0.0364
18941W        W34072  15.555  16.370   4.909 -0.2835  0.0931 -0.1050
18942W        W34073  11.827   5.922   0.522  0.4333  0.2219  0.1766
18943W        W34074   7.406   9.117  13.131  0.1111  0.0459  0.1105
18944W        W34075   8.866  11.247  13.469  0.1962  0.0798 -0.1549
18945W        W34076   9.766  13.869   2.413  0.1484 -0.0795 -0.1843
18946W        W34077  17.562   7.218   0.210  0.0028 -0.0394 -0.1636
18947W        W34078   6.888  11.876  11.950  0.2321  0.1407 -0.0011
18948W        W34079   2.294  15.644  13.315 -0.1374  0.1324 -0.0054
18949W        W34080   4.587  17.767  13.114  0.1202  0.0014 -0.1573
18950W        W34081  13.043   5.570   0.576 -0.1278 -0.2508 -0.0911
18951W        W34082  18.254   1.098  11.846 -0.5208  0.0783  0.1592
18952W        W34083   0.310  14.382   1.399  0.3329  0.0143  0.3647
18953W        W34084   7.841   8.619   2.163  0.0343  0.0890  0.0257
18954W        W34085   8.817  12.449   2.865 -0.2635 -0.0936 -0.0036
18955W        W34086   6.228   2.307  15.666 -0.0389  0.1202 -0.3170
18956W        W34087   0.317   9.699  11.912  0.0393 -0.0933  0.1951
18957W        W34088  12.798   4.506   3.896  0.0730 -0.4494  0.0196
18958W        W34089  16.430   3.343  12.000  0.2038  0.2202  0.1445
18959W        W34090  16.406  13.302  12.131 -0.0934 -0.0155  0.3328
18960W        W34091  12.435  11.001   3.060 -0.2768  0.3155  0.1048
18961W        W34092  15.940  10.972   3.734  0.1002  0.1482  0.0522
18962W        W34093  12.707  10.556  12.592  0.3246 -0.0773 -0.2302
18963W        W34094  16.234   1.943   4.359  0.0832 -0.0905  0.1187
18964W        W34095  16.512  17.523  12.414  0.0460  0.1873 -0.2483
18965W        W34096  17.132  10.037   2.805 -0.3475 -0.2057 -0.3219
18966W        W34097   6.219   8.206   3.284  0.1262  0.0442 -0.2011
18967W        W34098  11.224  14.440   2.973  0.3136  0.0507  0.1356
18968W        W34099  15.619  15.426  13.200 -0.1175 -0.1659  0.1372
18969W        W34100   5.669   0.652  15.235  0.1421 -0.3394  0.1503
18970W        W34101  15.048  11.330   0.562 -0.2006 -0.0782  0.0023
18971W        W34102   6.940   7.410   3.400  0.3071  0.1007 -0.3009
18972W        W34103   4.833   1.986   4.085 -0.1542  0.0805  0.1497
18973W        W34104   9.588  15.297  13.652  0.0066  0.3048 -0.1521
18974W        W34105   2.489  18.098  13.550  0.3754  0.0751 -0.1615
18975W        W34106  16.123  18.052   3.900  0.1707  0.4114  0.2416
18976W        W34107  13.087   3.522  11.619  0.3224 -0.1856  0.3023
18977W        W34108   8.538  18.190  10.444  0.0387  0.0892  0.0408
18978W        W34109   3.517   4.633  11.766 -0.0973  0.2891 -0.0478
18979W        W34110  11.441  12.131   3.888  0.0016  0.3641 -0.0690
18980W        W34111   1.454  13.138  12.458  0.1548  0.1757 -0.1465
18981W        W34112   1.683  14.489  13.627  0.4924  0.0173 -0.2778
18982W        W34113   9.747   7.852  13.296 -0.0326 -0.1701  0.2648
18983W        W34114  16.219   8.728  11.306  0.0371  0.0713 -0.1544
18984W        W34115   1.903   5.929   9.920  0.3020  0.0397 -0.1543
18985W        W34116   5.291  15.996  15.918 -0.0609  0.0230  0.3076
18986W        W34117  15.079  13.285  13.053 -0.2934  0.1303 -0.1202
18987W        W34118   3.507  16.592  11.986  0.1674 -0.0860  0.2878
18988W        W34119  13.452   0.947  15.508  0.0097 -0.1701  0.1035
18989W        W34120   3.348  10.666  13.555 -0.5315 -0.2327 -0.3322
18990W        W34121   8.811   9.477   0.335  0.0581 -0.3056 -0.2834
18991W        W34122   0.381   7.108  11.825  0.0087  0.0601  0.1306
18992W        W34123  16.222   6.089   5.187  0.1643  0.2779  0.2006
18993W        W34124  14.595   2.924   4.873  0.1459  0.3383  0.1460
18994W        W34125   4.152   7.056  15.154 -0.0056  0.1082 -0.3851
18995W        W34126  16.688   2.623  11.541 -0.0548 -0.3141  0.2144
18996W        W34127  15.487  14.199  16.130 -0.2115  0.0554 -0.1994
18997W        W34128   8.746   5.079  14.295 -0.1453  0.2239 -0.1191
18998W        W34129   6.041  16.926   1.362  0.0020 -0.1729  0.3414
18999W        W34130   3.461   6.507  14.795  0.3805 -0.0188 -0.3044
19000W        W34131   7.445  12.881   0.552 -0.0529 -0.1204 -0.1654
19001W        W34132   7.619   6.367   1.159  0.0401 -0.0385 -0.2605
19002W        W34133   1.561   6.638  13.401 -0.1661 -0.1045  0.1468
19003W        W34134   9.972   5.388   3.538 -0.0464  0.1424 -0.3392
19004W        W34135   1.194   7.168  11.365 -0.1344 -0.1455  0.1865
19005W        W34136  16.133   7.436   0.726 -0.0688  0.1312 -0.0742
19006W        W34137   7.740   8.024   1.576 -0.1294 -0.2021 -0.0228
19007W        W34138   9.945  17.089  11.222 -0.2484  0.1342  0.1320
19008W        W34139   0.090  16.388  14.952  0.1288  0.1623 -0.2608
19009W        W34140   4.261   0.787   3.721  0.3735  0.0495 -0.0248
19010W        W34141   7.325   7.305   6.245 -0.0916  0.1298  0.2555
19011W        W34142  14.896   1.531   5.567 -0.2303 -0.0973 -0.2591
19012W        W34143   4.006   2.938  15.990 -0.3542  0.0610 -0.1811
19013W        W34144   9.685   4.301  12.966  0.0968 -0.0979  0.5666
19014W        W34145   4.268  16.829   3.973  0.0349  0.2067 -0.2592
19015W        W34146   3.495  12.857   0.462 -0.2273 -0.1481 -0.0572
19016W        W34147  13.648   1.352  15.192  0.1706  0.0213  0.1488
19017W        W34148   7.656   3.796  11.838 -0.1276  0.0703 -0.2315
19018W        W34149  17.847  11.500  15.448 -0.0936  0.0055 -0.1579
19019W        W34150  12.777  15.687   2.049 -0.1570 -0.0954 -0.1779
19020W        W34151  10.235   9.674  12.705 -0.3437  0.2176 -0.2789
19021W        W34152  12.982   4.649  11.143 -0.0764 -0.2664  0.2485
19022W        W34153  11.747   9.755   5.409  0.3182 -0.0710  0.0666
19023W        W34154  15.569   3.893   3.595  0.0480  0.1498  0.1811
19024W        W34155   8.844  13.057   3.242 -0.3298  0.0264  0.0033
19025W        W34156   6.387  12.902  10.598  0.0510 -0.0527  0.0295
19026W        W34157   5.827   5.653   3.554 -0.3399  0.0440 -0.1010
19027W        W34158  12.104   1.662   1.214 -0.2553 -0.3895  0.0990
19028W        W34159   4.069  13.594   2.626 -0.0782  0.1609  0.1262
19029W        W34160   5.663  11.912   2.815 -0.0714 -0.0875 -0.1563
19030W        W34161  10.335  14.689  13.678  0.1868 -0.1093 -0.0452
19031W        W34162   9.821  18.319   0.844 -0.0708 -0.0926  0.0590
19032W        W34163  15.607   1.437   4.739 -0.2363 -0.0311 -0.0003
19033W        W34164   6.806  13.837   1.238 -0.0618 -0.2754 -0.0907
19034W        W34165   5.806   5.384   4.458 -0.0770  0.1612 -0.1962
19035W        W34166  12.070   6.488   9.624 -0.1888 -0.0605 -0.0533
19036W        W34167   9.723   5.894   4.679 -0.3270  0.1854 -0.1780
19037W        W34168  12.022  15.935   1.488  0.2486  0.0407 -0.2032
19038W        W34169  16.314   9.624   2.370  0.0259  0.1161 -0.0290
19039W        W34170  17.479   9.987   0.101  0.2183  0.0275 -0.0303
19040W        W34171  14.545   9.192   3.957 -0.1671  0.0349 -0.2783
19041W        W34172   8.412  11.194   4.893  0.2105  0.2382 -0.0403
19042W        W34173   2.783   2.299   0.094  0.0479 -0.0602 -0.0894
19043W        W34174   9.530  12.364   3.423 -0.0456  0.1293  0.3312
19044W        W34175   9.646  13.953  13.399 -0.1096 -0.0369  0.0700
19045W        W34176  17.250  15.305  15.920  0.1161  0.0117  0.2830
19046W        W34177  13.403  18.303   0.257  0.2414  0.3561  0.0013
19047W        W34178   4.098   9.494   3.766  0.1486 -0.3677 -0.2925
19048W        W34179   2.693  10.374   4.609 -0.3702 -0.0383 -0.0770
19049W        W34180   2.545   6.558   3.829  0.2325  0.1412 -0.1685
19050W        W34181   1.413   8.729  15.871 -0.3047  0.1491 -0.1347
19051W        W34182   5.770  14.739   5.592  0.3165 -0.1996  0.1250
19052W        W34183   4.386  10.850  15.488 -0.1519  0.0421  0.1780
19053W        W34184   9.477  11.933  13.958 -0.2268  0.0390  0.0838
19054W        W34185   7.959  16.424  12.532 -0.1176  0.0329 -0.0217
19055W        W34186  10.272  13.881  10.379  0.2341 -0.1607 -0.0780
19056W        W34187   7.673   4.685   2.251 -0.0623 -0.1023  0.1436
19057W        W34188   8.153  17.690   3.297 -0.1475  0.2512 -0.0063
19058W        W34189  10.538   8.842   5.760 -0.1444 -0.2104 -0.0949
19059W        W34190  11.022  14.213  11.568  0.1062 -0.1065 -0.0884
19060W        W34191   3.598  13.346   2.669  0.0817 -0.3031 -0.3701
19061W        W34192   1.331  13.935   0.443 -0.0269 -0.1270  0.4692
19062W        W34193   4.150   5.170   4.948 -0.1464  0.1203 -0.0710
19063W        W34194  17.235   7.945   0.410  0.2864 -0.0614  0.0459
19064W        W34195   7.223   6.494   1.455  0.1959  0.0019 -0.0956
19065W        W34196   8.818  12.741   5.462  0.0880 -0.0010  0.0270
19066W        W34197  15.733  13.377   0.518  0.0606 -0.2359 -0.2019
19067W        W34198   4.935   3.126  15.769 -0.1535 -0.1688 -0.1529
19068W        W34199   4.014   4.818   5.761 -0.0950  0.1528 -0.0551
19069W        W34200   8.420   3.743   4.888  0.2167 -0.0537 -0.1869
19070W        W34201   9.716  14.188   4.387 -0.0278 -0.0441 -0.3658
19071W        W34202   3.109   2.118  11.301  0.2068 -0.2150  0.0527
19072W        W34203   6.984  17.489  15.193 -0.0342 -0.0649 -0.0878
19073W        W34204  10.655   2.134   0.021 -0.2778  0.1376 -0.4397
19074W        W34205   8.996   7.937  12.083  0.1341  0.0883  0.3428
19075W        W34206  11.423  12.013  12.822 -0.0635 -0.1207 -0.4062
19076W        W34207  13.819  10.327  15.812  0.3950  0.0713 -0.1432
19077W        W34208  14.986  15.196   2.748  0.1484  0.2750  0.0773
19078W        W34209   9.022   8.025  14.738 -0.0126  0.2355 -0.2035
19079W        W34210   2.143   6.928   3.921 -0.1621  0.2230 -0.1022
19080W        W34211  16.619   5.871  16.074 -0.0083  0.0896 -0.0590
19081W        W34212   5.436   2.505  13.428 -0.3295 -0.0010  0.1782
19082W        W34213  11.781   9.371  13.413  0.1166  0.0330  0.1333
19083W        W34214   8.562   1.718  13.734  0.3148 -0.1875  0.2524
19084W        W34215   6.441  15.674  16.096 -0.0433  0.0815 -0.0541
19085W        W34216  15.401  14.928  15.686  0.3857 -0.1351  0.2296
19086W        W34217  11.489  14.035  12.764 -0.1128  0.0236 -0.0200
19087W        W34218  16.033  12.726   2.033 -0.4148 -0.1280 -0.0227
19088W        W34219  14.167  16.187  13.647 -0.2338  0.2717  0.2383
19089W        W34220  15.044   3.424  15.019 -0.1807  0.1769 -0.4120
19090W        W34221   4.595   9.400  14.411 -0.0005 -0.4523  0.3006
19091W        W34222   3.918   5.034   1.901  0.1458 -0.1829  0.2824
19092W        W34223   2.426   9.467  15.246 -0.0521 -0.0580 -0.1614
19093W        W34224  16.069  10.997  14.386  0.0213 -0.1824  0.1969
19094W        W34225   7.882   1.557   5.676  0.1043  0.0709  0.0072
19095W        W34226   4.228  15.647  10.302 -0.0389 -0.2907 -0.1384
19096W        W34227   5.621   5.698  12.575  0.0223 -0.1274  0.0269
19097W        W34228  11.465  16.508  14.765  0.1598 -0.1390  0.0305
19098W        W34229   8.303   2.143   4.592  0.1062 -0.2560 -0.1509
19099W        W34230  12.149  17.264  14.728 -0.0533 -0.0314 -0.3809
19100W        W34231   8.718   6.727   0.867 -0.3049 -0.0511  0.0254
19101W        W34232   9.215  14.571   0.646 -0.0514  0.3904 -0.3434
19102W        W34233  13.420   9.776   4.258 -0.0320  0.1493 -0.2174
19103W        W34234  17.777  12.294   2.615 -0.3184  0.0302 -0.1292
19104W        W34235  17.879  15.619   0.159 -0.0315 -0.1453  0.2045
19105W        W34236   2.651  17.585  10.042  0.0339  0.0908  0.2073
19106W        W34237  12.730   8.676   2.478 -0.1722  0.5820  0.1272
19107W        W34238   6.264   3.811   1.555  0.2194 -0.0156 -0.0204
19108W        W34239  16.830   9.761   3.090  0.2797  0.0399  0.2914
19109W        W34240   3.894   3.641  13.864 -0.2304 -0.0200 -0.2197
19110W        W34241   4.039   1.373   2.879 -0.5433 -0.1814  0.0616
19111W        W34242   8.315  17.432  10.856 -0.0483 -0.3030 -0.0942
19112W        W34243  15.696   0.099   1.555  0.0436 -0.0208  0.0492
19113W        W34244   0.587   7.953   2.004  0.0859 -0.2980 -0.2162
19114W        W34245   5.706   3.657   3.070  0.0951 -0.1282  0.0447
19115W        W34246  13.079  10.626  14.811  0.0712  0.0660  0.3623
19116W        W34247   5.297  13.219  16.082  0.2140  0.2969 -0.0186
19117W        W34248  14.070   1.866   3.677 -0.3207 -0.1770  0.1383
19118W        W34249   0.194   2.009   2.355  0.1748  0.0158 -0.2352
19119W        W34250   9.673  15.134  11.469 -0.1048 -0.0900  0.1643
19120W        W34251  12.511   8.309   4.282 -0.1878 -0.2322 -0.0154
19121W        W34252  11.609   5.282  11.177 -0.2517 -0.1497 -0.2354
19122W        W34253  10.834  12.912   1.890 -0.2240  0.2405 -0.2191
19123W        W34254   6.142   9.073   5.501  0.3704  0.2300 -0.0700
19124W        W34255  10.286  17.049   1.237  0.1579 -0.0065 -0.0073
19125W        W34256   4.229  13.762   0.984  0.1738  0.2102 -0.1813
19126W        W34257   4.100   1.003  14.349  0.1645  0.0362  0.0501
19127W        W34258   2.780  16.276   5.177 -0.0877  0.0207  0.1340
19128W        W34259   1.524  12.322   4.536  0.0384  0.1764  0.0754
19129W        W34260  18.109  16.384  15.472  0.1967 -0.0404 -0.2283
19130W        W34261  11.161  10.137  15.567  0.3170 -0.1022 -0.0169
19131W        W34262   9.578  18.003   5.220 -0.0010  0.0512  0.0877
19132W        W34263  17.084  10.018   2.262  0.2173 -0.1700 -0.1552
19133W        W34264  10.192   4.851   0.304 -0.0629  0.1581 -0.0522
19134W        W34265   6.795   0.170   1.375  0.1528 -0.0559  0.0959
19135W        W34266  15.678  14.050   3.061 -0.1308 -0.1997 -0.3244
19136W        W34267   7.370   1.498   0.336  0.2065 -0.3140  0.0692
19137W        W34268   3.038   4.392   3.980 -0.3926 -0.1113  0.1342
19138W        W34269   1.375  16.093   2.922  0.2354  0.2047 -0.0006
19139W        W34270   9.679  12.754   5.195  0.1770  0.0292 -0.1486
19140W        W34271  17.720   9.231   2.916  0.4052  0.1885  0.3285
19141W        W34272  17.681   1.118   0.734 -0.2211  0.1778  0.1394
19142W        W34273  11.728  11.650   4.004  0.0075  0.1636  0.0562
19143W        W34274   3.559   3.230   3.153  0.1089  0.2673  0.3383
19144W        W34275   6.526  14.680   4.078 -0.1178 -0.0968 -0.1060
19145W        W34276  11.204  13.452   4.838 -0.0023 -0.1989  0.1444
19146W        W34277   5.914  12.343  14.610  0.0212 -0.1376  0.0930
19147W        W34278   3.980   2.588  11.161  0.1316  0.0547 -0.0970
19148W        W34279   2.116  12.095  12.674  0.1545  0.0452 -0.3823
19149W        W34280   3.567  15.965   3.121  0.0497 -0.1765  0.0179
19150W        W34281  17.577   3.421   1.034 -0.4454  0.0356  0.3495
19151W        W34282  12.283   6.169   2.115  0.0526  0.0801 -0.5405
19152W        W34283  18.333  14.967   5.302 -0.1619 -0.0920 -0.0048
19153W        W34284  16.047   6.401  11.326  0.2560 -0.1321 -0.1635
19154W        W34285  15.803  11.033  11.652 -0.0185 -0.0872 -0.0338
19155W        W34286  15.519  16.457   0.831  0.0076  0.3232 -0.3527
19156W        W34287   7.545   1.154   2.466  0.0021 -0.0396  0.0680
19157W        W34288  12.883   9.004  15.319 -0.0503 -0.4607 -0.0289
19158W        W34289   5.472  14.490  11.755 -0.0940 -0.2331  0.0552
19159W        W34290   0.851  17.893   3.196 -0.2032 -0.3970  0.2334
19160W        W34291   6.079   1.305  15.525 -0.3073  0.0206 -0.0192
19161W        W34292  11.762   4.373   5.783  0.0081  0.1004  0.3712
19162W        W34293   9.291   7.100   0.225 -0.3391 -0.0157  0.2683
19163W        W34294  10.839  14.632  12.870  0.0670  0.0537  0.2207
19164W        W34295   3.003   6.568   4.182  0.2715  0.1478 -0.0498
19165W        W34296   5.107   5.848  11.103 -0.0827  0.3807  0.1649
19166W        W34297   2.110  15.647  12.828 -0.2297  0.2180 -0.0819
19167W        W34298   5.664   1.816  12.588  0.2114  0.2091  0.2486
19168W        W34299   2.457   8.568  10.560 -0.0013 -0.0997  0.1518
19169W        W34300   8.471  16.918  11.188  0.2629  0.1884  0.0559
19170W        W34301   5.028  10.906  14.797 -0.0432  0.0332  0.1401
19171W        W34302  17.088   8.021   2.166 -0.4049  0.0213 -0.1115
19172W        W34303  15.003   9.018   4.753 -0.1567 -0.3705 -0.2173
19173W        W34304  10.207   4.940   5.898  0.0866 -0.0140 -0.3022
19174W        W34305  16.263   6.918  11.723 -0.0892  0.2362  0.2047
19175W        W34306   8.648  11.485  12.978  0.2311  0.1644  0.3673
19176W        W34307  16.544  10.326   1.039 -0.0864 -0.0153 -0.1540
19177W        W34308  13.666   2.483  11.611 -0.0284 -0.4063 -0.2484
19178W        W34309   8.521  15.343  15.426 -0.1146 -0.0380 -0.2033
19179W        W34310   7.898  10.309   5.115 -0.2594 -0.4474  0.0084
19180W        W34311   9.096  11.086   0.760 -0.1148  0.0407 -0.1582
19181W        W34312   2.026   9.462  15.558 -0.3372 -0.0920  0.0839
19182W        W34313  18.043   4.035   3.672  0.0192 -0.1036 -0.3648
19183W        W34314   3.634  11.408  15.555  0.2194  0.0997  0.1317
19184W        W34315   8.306  11.017   4.377  0.3598 -0.2355  0.1836
19185W        W34316   0.342  11.932  11.194  0.3249  0.1985  0.0232
19186W        W34317   5.458  13.371  15.199 -0.1428 -0.0487  0.0087
19187W        W34318  15.587  15.887   0.960 -0.0112 -0.1473  0.0058
19188W        W34319  13.536  14.577   4.432  0.2338  0.0146 -0.2390
19189W        W34320  12.382  10.432  12.001  0.1598 -0.2643  0.2401
19190W        W34321  15.862  15.848  13.254  0.2263  0.0238  0.0277
19191W        W34322  12.048  14.664  13.226  0.2407  0.0297 -0.1357
19192W        W34323  10.100  11.277   1.069 -0.0414  0.0115 -0.0199
19193W        W34324  16.665  13.504   0.447 -0.2780 -0.1260  0.0018
19194W        W34325  15.516   8.978   4.663 -0.2138 -0.1313  0.0499
19195W        W34326  10.719   6.371   4.871 -0.1365  0.1360  0.1993
19196W        W34327   1.057   8.484   1.448  0.1617  0.0607 -0.0949
19197W        W34328   0.655   3.371   2.246 -0.2199 -0.2057  0.1292
19198W        W34329  18.237  10.572  14.555  0.0196 -0.2393  0.0410
19199W        W34330   3.994   5.540   2.074 -0.1017 -0.0910 -0.0576
19200W        W34331  12.991  16.039   3.522 -0.0525  0.1205  0.1741
19201W        W34332   7.488   8.838  15.160 -0.1712  0.0366 -0.0607
19202W        W34333   1.089  13.233   3.210  0.2693  0.0062 -0.2370
19203W        W34334   9.879   6.999   1.436  0.0889 -0.2582 -0.3099
19204W        W34335  14.895   7.929   1.321  0.2679 -0.2154 -0.1529
19205W        W34336  15.671   3.070  15.887 -0.2726  0.0817 -0.0234
19206W        W34337   4.750  16.129   1.127  0.1692 -0.1444 -0.0066
19207W        W34338  18.071   5.347   3.071  0.2317 -0.2368 -0.0258
19208W        W34339  10.482  14.471   0.433  0.0056  0.0922 -0.0772
19209W        W34340  11.231   0.970   3.409  0.2535  0.1455 -0.1982
19210W        W34341  10.481  10.464   3.602  0.1331  0.0321 -0.0299
19211W        W34342  15.432  13.593   4.298  0.0475 -0.3656 -0.1342
19212W        W34343   5.627   6.843  14.305 -0.2813 -0.0150  0.0596
19213W        W34344  17.106   7.477  13.537 -0.0378 -0.1293  0.0270
19214W        W34345   0.249  15.348  15.801 -0.3249  0.1807 -0.5450
19215W        W34346  10.936  10.797  11.997  0.2674 -0.1128 -0.0829
19216W        W34347   0.511   6.465   0.626  0.0810  0.1259  0.0056
19217W        W34348   6.672   6.552  11.082  0.1424 -0.0250  0.1032
19218W        W34349  10.931  13.439  10.535 -0.1122 -0.5564 -0.3281
19219W        W34350  11.999  17.477  15.821  0.2159 -0.2278  0.1632
19220W        W34351  12.975  14.179   4.262  0.0799 -0.1228  0.0191
19221W        W34352   0.628  12.955   2.543 -0.1503 -0.0471  0.1945
19222W        W34353   8.487   2.868  13.749 -0.1548 -0.2333 -0.0081
19223W        W34354  18.127  12.620   1.270  0.3422 -0.0582  0.2161
19224W        W34355   7.919  16.309   2.036  0.1315 -0.2392 -0.2960
19225W        W34356   3.764   9.404   0.988 -0.3780 -0.1336 -0.0693
19226W        W34357   0.984   0.180   0.118  0.0553  0.0240  0.1936
19227W        W34358   7.280  12.491   2.638  0.0802 -0.0591 -0.1738
19228W        W34359   4.455   9.189  12.537  0.3959  0.0326 -0.1665
19229W        W34360   4.492   4.900   1.841 -0.4796 -0.0066  0.0435
19230W        W34361   5.068   3.594  13.674  0.0371 -0.0277 -0.0253
19231W        W34362   6.009  12.269   1.495 -0.3185  0.0324  0.0007
19232W        W34363  11.165   6.428   0.186 -0.1472 -0.0403 -0.0571
19233W        W34364  13.917   2.424  12.114  0.2298 -0.1141 -0.2975
19234W        W34365  11.280  15.793   5.080  0.0133  0.1709 -0.2120
19235W        W34366  16.896  16.749  15.825 -0.0538 -0.0176 -0.4901
19236W        W34367   6.450  12.075   0.700  0.0031 -0.1923  0.0058
19237W        W34368  10.876  11.181  11.406 -0.3276 -0.3181 -0.1187
19238W        W34369   0.586  14.090   2.765 -0.0114 -0.0242  0.0002
19239W        W34370  14.870  17.876   3.715 -0.1256 -0.1343 -0.0500
19240W        W34371   7.842   6.151  13.444  0.0165 -0.2032  0.0286
19241W        W34372   2.845  17.944  13.119  0.2626 -0.0929  0.1492
19242W        W34373   8.218   0.862   5.231  0.0664  0.1189  0.1423
19243W        W34374   7.004  17.043  13.143  0.0484 -0.1795 -0.2106
19244W        W34375   0.010  14.090   2.142 -0.1268 -0.0412 -0.2844
19245W        W34376   3.426   9.365  13.693  0.0828 -0.3861  0.2256
19246W        W34377   3.541   4.600  13.108 -0.0047  0.0217 -0.2050
19247W        W34378   6.782  14.871  14.092  0.0032  0.0542 -0.0387
19248W        W34379   3.426   4.822   5.685  0.1551 -0.4550 -0.2311
19249W        W34380   4.519   3.562   5.437  0.0054  0.2563 -0.0708
19250W        W34381   7.723  10.719  11.785 -0.1817  0.0211 -0.3086
19251W        W34382   3.162  17.761   4.113  0.3266 -0.0851  0.0361
19252W        W34383   5.255  11.112  15.365 -0.0521  0.0743 -0.1652
19253W        W34384  12.822   7.487  11.832 -0.0674 -0.0284  0.0389
19254W        W34385   0.939   5.287  14.254 -0.1362 -0.1013 -0.1278
19255W        W34386   1.384  12.043   4.118 -0.0365 -0.4084  0.2106
19256W        W34387  17.864  16.306  13.819 -0.0253  0.0194 -0.1002
19257W        W34388  10.802   6.797  15.922 -0.0070  0.2465  0.0406
19258W        W34389  12.961   3.627  15.591  0.0053 -0.1088 -0.2292
19259W        W34390  15.722   2.222   4.905  0.3330 -0.2897  0.0619
19260W        W34391   7.406   2.816  14.495 -0.1256 -0.1089 -0.2084
19261W        W34392   3.216   5.519  14.229 -0.1274 -0.2370  0.0607
19262W        W34393  15.861  12.490  15.517 -0.0544  0.1008  0.2256
19263W        W34394   5.001  10.668   3.929 -0.1573  0.2980  0.0013
19264W        W34395  15.072   6.487   0.145  0.2005  0.2705  0.0059
19265W        W34396   9.848   6.200  12.844  0.0282 -0.0408  0.0033
19266W        W34397   1.174   0.044  15.818 -0.1239 -0.1727 -0.0801
19267W        W34398   7.163   7.190  14.086 -0.0115 -0.2088 -0.1099
19268W        W34399  14.267  15.568  14.019 -0.2139 -0.0912  0.3280
19269W        W34400   9.421   6.849   2.755 -0.0060 -0.0587 -0.1863
19270W        W34401   1.355   0.806   3.010 -0.3143 -0.0650  0.1671
19271W        W34402   1.780  12.343   4.015  0.1219 -0.1902 -0.0596
19272W        W34403  12.582   9.139   3.152  0.0287 -0.1242 -0.1519
19273W        W34404   2.471  11.287   5.050  0.3366  0.1090  0.2369
19274W        W34405   7.952  10.202   3.033  0.1217  0.3924 -0.0930
19275W        W34406  10.553   5.821   2.002  0.1431  0.0677  0.0732
19276W        W34407  16.343   2.093   2.582  0.2528 -0.2201 -0.0541
19277W        W34408  17.739  10.095  12.375  0.0343 -0.0537 -0.0398
19278W        W34409   3.549   0.075   3.018  0.0831  0.0404 -0.2314
19279W        W34410  11.324   8.473  16.118  0.1508 -0.0933  0.1245
19280W        W34411   3.370   5.630   0.148  0.0506 -0.1152  0.4082
19281W        W34412  10.173  10.324   0.127  0.0171 -0.0727 -0.1844
19282W        W34413   9.327   8.128   4.217  0.3040  0.2021  0.5669
19283W        W34414   0.636   1.107   3.478  0.0457  0.1096  0.3036
19284W        W34415   2.783   4.077  15.403  0.1299 -0.3234 -0.1706
19285W        W34416   9.859  18.273  11.147 -0.1096 -0.2471 -0.1628
19286W        W34417   0.610  14.852  15.617 -0.1597 -0.2947  0.1400
19287W        W34418   2.071  16.469   2.455 -0.1181 -0.2793 -0.2516
19288W        W34419   9.362  17.829   0.335 -0.1602 -0.0111 -0.1432
19289W        W34420  12.851  17.256   1.106 -0.4480  0.0273  0.3976
19290W        W34421  18.045  10.956   4.645 -0.2130 -0.2857  0.2219
19291W        W34422  17.834   2.158  14.687 -0.0637 -0.1674  0.0461
19292W        W34423  13.734  17.378   3.014 -0.1122  0.3724 -0.1946
19293W        W34424   4.935  16.524  14.085  0.0828 -0.0254  0.0012
19294W        W34425   3.303   9.692  15.526 -0.2434 -0.0027 -0.1003
19295W        W34426  11.189   9.886  12.203  0.3297  0.1562  0.1053
19296W        W34427   4.929   9.794   4.263  0.2133 -0.1856 -0.0585
19297W        W34428   4.547   1.115   0.316  0.0421  0.3019  0.0135
19298W        W34429   3.950  14.319  15.574 -0.1525 -0.0160  0.1265
19299W        W34430   3.675  16.536  10.670 -0.3173  0.0769 -0.1443
19300W        W34431  18.018  16.018   2.485  0.1147  0.0509 -0.1664
19301W        W34432   8.751   6.757  13.607  0.1640  0.0662 -0.4559
19302W        W34433  15.280  17.048   0.886  0.2537  0.3566 -0.0553
19303W        W34434  10.590   7.657  12.838 -0.1573 -0.0231  0.1352
19304W        W34435  12.166   9.106   0.290 -0.3024 -0.0991  0.0861
19305W        W34436  12.991  15.650  12.110 -0.1853 -0.3587  0.0770
19306W        W34437   1.574   5.878  13.688 -0.1163  0.1635 -0.1420
19307W        W34438  11.390   4.385   4.991  0.3034  0.0461 -0.0546
19308W        W34439   8.069  12.287  13.621 -0.1439 -0.2030 -0.1764
19309W        W34440   2.344   2.777   0.710 -0.0171  0.2424 -0.0734
19310W        W34441  15.106   9.596   1.170  0.1259  0.0112 -0.0440
19311W        W34442  12.368   3.498   1.615  0.0407 -0.3345  0.3055
19312W        W34443   9.366  17.305   4.852  0.0296 -0.1047 -0.1270
19313W        W34444  14.550   3.066   4.360 -0.1646 -0.0658 -0.3030
19314W        W34445   1.374   0.155  12.664  0.2151  0.0633  0.0479
19315W        W34446   9.348  12.879  10.337 -0.2077 -0.1665  0.0356
19316W        W34447  10.193   0.749   0.838  0.0457 -0.1223 -0.0879
19317W        W34448  13.147   4.093   0.747  0.0133 -0.0835  0.0184
19318W        W34449   7.531  13.659   1.259  0.1017  0.0328  0.2542
19319W        W34450  15.515   0.570  14.965  0.1888 -0.0023 -0.2179
19320W        W34451   9.470   3.976   0.351 -0.0502 -0.0507  0.1421
19321W        W34452   3.859  14.423   5.410 -0.0915  0.4640  0.1524
19322W        W34453  13.839  16.991  12.036 -0.0760  0.1437  0.0021
19323W        W34454  16.225  13.162  14.886 -0.3628  0.0152  0.0249
19324W        W34455   4.504  13.473   1.263 -0.0836  0.0812  0.2978
19325W        W34456   0.786  14.054  12.923 -0.1725  0.1124  0.2566
19326W        W34457   6.329   7.031   4.806 -0.3234  0.1377  0.1967
19327W        W34458  15.888   5.258  12.702 -0.2869  0.0883 -0.1019
19328W        W34459   4.864   8.417  11.647  0.0182 -0.0947 -0.3557
19329W        W34460   2.280   8.076  14.264 -0.2487 -0.3846 -0.2013
19330W        W34461  10.774  14.316   0.070 -0.5031 -0.1819  0.1551
19331W        W34462   1.014   5.306   5.399  0.0265  0.0174  0.3971
19332W        W34463  12.010   4.463  16.145 -0.1263 -0.1466  0.2378
19333W        W34464  15.750  16.597  12.724 -0.1755 -0.2667 -0.0309
19334W        W34465   7.550   7.380   4.122  0.0780  0.1736 -0.2201
19335W        W34466   3.826  10.151  16.116  0.0277 -0.4168  0.0433
19336W        W34467   9.357   1.282   3.319 -0.1007  0.0798 -0.0983
19337W        W34468   9.501   0.944   5.614 -0.1250  0.1752  0.3414
19338W        W34469   4.733  10.419   3.516 -0.0575  0.0899  0.0289
19339W        W34470  10.196  16.612   5.377 -0.1922 -0.1480 -0.2131
19340W        W34471  10.361  17.466   3.706 -0.0089 -0.0960  0.0151
19341W        W34472   1.079   9.159  15.671 -0.2494 -0.3011 -0.0088
19342W        W34473  15.589   3.944   0.783  0.0677  0.1215  0.0091
19343W        W34474   0.510  17.167  11.768  0.2252  0.1002 -0.1804
19344W        W34475   1.432  11.374  13.196 -0.1198  0.0577 -0.2171
19345W        W34476   2.058  13.457   4.378 -0.2212 -0.0635  0.0254
19346W        W34477  13.300  16.310   3.030 -0.0247 -0.2382 -0.0808
19347W        W34478   8.421   4.394  12.937 -0.1621  0.1688 -0.0594
19348W        W34479   7.557  12.812  10.637  0.2299  0.1249 -0.3126
19349W        W34480  13.245   7.981   5.622 -0.0023  0.1143  0.0820
19350W        W34481   6.748  16.862   2.049  0.0210  0.0995  0.1888
19351W        W34482   7.279  18.042  12.420  0.1613  0.2127 -0.1383
19352W        W34483   7.295  10.972  13.469  0.1777 -0.4894  0.0963
19353W        W34484   9.394  11.013  10.167 -0.0128 -0.2189 -0.0243
19354W        W34485  17.925   7.127   4.393  0.2434  0.0424 -0.2138
19355W        W34486   9.148   3.175   0.982  0.0532  0.1878  0.1534
19356W        W34487   5.609   9.884  12.452 -0.0819  0.0666 -0.2336
19357W        W34488  15.556   0.712   2.160 -0.0015 -0.1067  0.0543
19358W        W34489   1.727  16.822   2.660  0.1160 -0.1540  0.2718
19359W        W34490  13.377   4.449  15.431  0.1611 -0.3300  0.3086
19360W        W34491  12.857   6.508  15.317 -0.0087 -0.1377 -0.0320
19361W        W34492  14.481  15.260   0.091  0.2570  0.1837  0.1503
19362W        W34493   3.949   0.813   1.786 -0.1678  0.0415 -0.4211
19363W        W34494   6.761  10.105   1.753  0.3272  0.0514  0.0920
19364W        W34495  12.097   9.176   3.988 -0.0866  0.0315  0.1582
19365W        W34496   9.705   6.347   4.798 -0.0376  0.1816  0.0696
19366W        W34497  17.975   5.060   0.490  0.0005  0.0341 -0.1355
19367W        W34498  10.700   2.339   4.777  0.2138 -0.0965  0.0169
19368W        W34499  17.152   5.863  15.840  0.2121 -0.0895  0.1069
19369W        W34500   0.147  16.070   5.388  0.1099 -0.3418 -0.0585
19370W        W34501   6.063   1.678   4.313  0.0704  0.2153 -0.0063
19371W        W34502   2.792   9.048   3.166 -0.0614 -0.3800  0.0390
19372W        W34503   6.038  14.914   0.491 -0.0172  0.3399 -0.0501
19373W        W34504   7.658   1.860   3.532  0.2408 -0.0197  0.1217
19374W        W34505  16.835  12.445   3.305  0.0075 -0.0808 -0.0073
19375W        W34506  16.470   4.318  10.706  0.0066 -0.2155  0.2652
19376W        W34507   8.223   8.455  15.729  0.2865 -0.4102  0.0076
19377W        W34508  12.956   2.700  16.043  0.2580 -0.0042  0.0236
19378W        W34509   2.498  13.926   1.758  0.0956 -0.0874 -0.1004
19379W        W34510   9.420   4.589   3.369 -0.0860 -0.0895  0.1548
19380W        W34511   4.407   4.043  13.177  0.1372 -0.0051 -0.1148
19381W        W34512   8.498   0.884  14.779  0.2756  0.2803 -0.0075
19382W        W34513   4.535  14.212  15.342 -0.2638  0.0186 -0.0103
19383W        W34514  15.995   2.290   2.297  0.1878  0.1606  0.3193
19384W        W34515   7.727  15.800   0.182  0.0367 -0.2633  0.1786
19385W        W34516   3.306   1.376   2.217 -0.1978 -0.0675 -0.4411
19386W        W34517  15.412  13.306  10.109 -0.1397  0.0237 -0.4868
19387W        W34518  14.780   4.141  15.494  0.0910 -0.1531  0.0739
19388W        W34519   9.788  12.555   1.721  0.2410 -0.2737 -0.1100
19389W        W34520  13.061  15.857  13.702 -0.2276  0.2539  0.1560
19390W        W34521  15.062   7.173   5.643 -0.4221 -0.0695 -0.1386
19391W        W34522   4.514   9.561   0.757 -0.0645  0.1603  0.0064
19392W        W34523   7.901  17.368   1.654  0.0879 -0.0703  0.0850
19393W        W34524   1.707   9.904  14.949  0.0389  0.0021  0.1776
19394W        W34525   1.698  13.393  11.485  0.0894  0.4361 -0.1906
19395W        W34526   1.497  12.435   1.505 -0.0037 -0.2146  0.0637
19396W        W34527  11.359   2.884  11.444  0.0214 -0.1083 -0.2276
19397W        W34528   7.162  12.313  14.245  0.0059 -0.1612 -0.0983
19398W        W34529   1.394   9.561  12.954  0.1861 -0.1865  0.1628
19399W        W34530   4.719   0.842   0.721 -0.2258 -0.0346  0.3254
19400W        W34531   1.156   3.305   4.116 -0.0626  0.2578  0.0376
19401W        W34532   4.613  17.666   2.418  0.1512  0.0298  0.1689
19402W        W34533   4.628  11.497  15.758  0.1170  0.1118 -0.1865
19403W        W34534  10.134  10.055  15.167  0.0607 -0.3184  0.0434
19404W        W34535   7.085   2.312  15.794  0.2679 -0.0674 -0.2470
19405W        W34536   2.431   8.194   3.995  0.3210  0.0028  0.0222
19406W        W34537   4.547  12.591   2.836  0.0756 -0.0922  0.3159
19407W        W34538   2.273  15.914   1.148  0.0507  0.4810 -0.0559
19408W        W34539   1.486  12.578  14.905 -0.0616 -0.2075 -0.0854
19409W        W34540  15.598   8.654   0.366  0.3497  0.2005 -0.1041
19410W        W34541   9.391   3.539   0.577 -0.2908  0.0360 -0.3405
19411W        W34542   2.174  14.551  10.586  0.0668 -0.0636 -0.3008
19412W        W34543   5.444   3.327   5.685 -0.2183 -0.1460 -0.1184
19413W        W34544   9.315   1.553  12.586 -0.2293 -0.0926 -0.2192
19414W        W34545  16.114   5.190  11.062 -0.0527 -0.0908 -0.3446
19415W        W34546  12.611   3.266  11.544  0.3643  0.2681  0.0483
19416W        W34547   4.759  16.460   4.357  0.1238  0.0225 -0.0186
19417W        W34548  14.631   3.586  10.635 -0.1047  0.1167  0.0448
19418W        W34549  12.466  16.434   4.179 -0.1762 -0.0458  0.0700
19419W        W34550  17.158   4.651   3.548 -0.1224  0.0433  0.1594
19420W        W34551   0.319  12.591  11.885  0.1203 -0.0419 -0.1832
19421W        W34552   6.925  15.737  15.984 -0.1270 -0.1265 -0.0215
19422W        W34553   5.839  11.034  10.599 -0.1590 -0.0472  0.5298
19423W        W34554   5.102   0.067  14.476  0.0725  0.0010 -0.1411
19424W        W34555  11.754  11.086  13.515 -0.1928  0.3441 -0.5022
19425W        W34556  11.767   0.948  14.129 -0.0348 -0.1585  0.1863
19426W        W34557   6.976  15.225  13.052 -0.1781  0.2772  0.0683
19427W        W34558  14.659  17.845  11.630  0.0771  0.0039 -0.0415
19428W        W34559   5.751   9.037   0.913 -0.0940  0.2776  0.0939
19429W        W34560   1.002  17.365   1.970 -0.2073 -0.0257  0.0437
19430W        W34561  14.351   6.167  14.161  0.0161 -0.1732 -0.1742
19431W        W34562   6.133  11.580  14.113 -0.3072  0.2291 -0.1925
19432W        W34563  11.612   8.900  15.147 -0.0285 -0.0823 -0.0515
19433W        W34564  11.340   9.762   3.469 -0.2229  0.4751  0.2346
19434W        W34565   2.594  16.494  10.844 -0.0715 -0.0345  0.0009
19435W        W34566   6.693   4.837  12.010  0.3366 -0.2553 -0.0255
19436W        W34567  11.416  11.008   0.383 -0.0779 -0.0729  0.1078
19437W        W34568  15.413   2.795   5.176  0.2579  0.0184  0.0293
19438W        W34569   2.458   4.400   2.703 -0.0403  0.0071  0.1215
19439W        W34570   4.362   3.645  14.034 -0.2309 -0.0371  0.0709
19440W        W34571   6.403   2.019  13.018 -0.0925  0.0849  0.2734
19441W        W34572  11.039  12.685  15.995 -0.2628 -0.2074 -0.0950
19442W        W34573  17.585  14.354  14.944 -0.2779 -0.1821 -0.0648
19443W        W34574  10.167  17.503   0.609  0.0570 -0.0763  0.0572
19444W        W34575   4.346  10.790   0.533 -0.0388  0.0120  0.0699
19445W        W34576  17.075  10.807  11.971 -0.1415  0.1355  0.0043
19446W        W34577   1.167   4.776   1.573  0.1073 -0.1362  0.0766
19447W        W34578  10.557   5.410  12.567 -0.2806  0.0089  0.0010
19448W        W34579   1.545  14.946   1.424 -0.3087 -0.1203  0.1791
19449W        W34580  15.675  11.080   5.902 -0.1806 -0.1459  0.1060
19450W        W34581  14.169   2.732  15.722  0.1261 -0.0672  0.2491
19451W        W34582  16.886   1.496  15.972  0.0668  0.2768 -0.0035
19452W        W34583   0.952  15.221  14.897 -0.0521  0.2093 -0.0187
19453W        W34584   9.013  11.729  12.619 -0.1774  0.1253 -0.0646
19454W        W34585   4.197  11.339   3.021  0.1668 -0.1507  0.2352
19455W        W34586  11.631   0.996  11.701 -0.2226  0.1739  0.1019
19456W        W34587  14.218  17.477   1.048 -0.1174 -0.0198  0.2145
19457W        W34588   1.896   1.023   5.552  0.0699  0.1479  0.3137
19458W        W34589   4.169   0.653  11.824  0.0226  0.1308  0.0242
19459W        W34590   3.075   1.357  14.441 -0.2954 -0.2664 -0.0389
19460W        W34591  17.623  15.097   0.600 -0.0108 -0.0828 -0.0478
19461W        W34592   5.722  13.629   3.909 -0.0744 -0.0848  0.0894
19462W        W34593   0.727  17.237  12.846 -0.2745  0.0385 -0.1401
19463W        W34594   9.821  12.556   5.832  0.2982 -0.0072 -0.5045
19464W        W34595   0.829  11.846   1.071 -0.0324 -0.2640 -0.0784
19465W        W34596   6.554   6.277   4.216  0.0129  0.1040  0.0202
19466W        W34597   1.840   0.919   2.941 -0.2047  0.1010  0.2799
19467W        W34598   6.334  14.051   3.252  0.0283  0.1473 -0.1860
19468W        W34599  16.755   5.892   1.957  0.0101 -0.1903  0.0400
19469W        W34600   0.108  17.296  11.925  0.2805  0.2807 -0.0249
19470W        W34601  12.475   1.822   1.923  0.0746  0.0841 -0.1199
19471W        W34602   8.648  16.256  13.811 -0.2458  0.0264 -0.2010
19472W        W34603   2.629   5.154   5.201  0.1395 -0.0737  0.0894
19473W        W34604   2.697  10.731   0.783 -0.2352 -0.0263 -0.2979
19474W        W34605  12.306   5.488  11.335  0.1093 -0.2432  0.2138
19475W        W34606  14.648  14.033   1.606  0.0589  0.1919  0.0623
19476W        W34607   9.006   7.576  11.695 -0.1977  0.0866 -0.2673
19477W        W34608   1.561  16.192   1.891  0.1510  0.1110  0.2652
19478W        W34609   8.477   1.950  11.588 -0.1630 -0.0263 -0.0124
19479W        W34610   8.089  11.996   9.610  0.0099  0.1544  0.3358
19480W        W34611  12.656   4.360   0.643  0.0018  0.2201 -0.0419
19481W        W34612   1.980  11.986  10.866  0.3756 -0.1292 -0.1531
19482W        W34613   5.729   6.507   1.637  0.0268  0.0616 -0.0920
19483W        W34614  14.536   6.302  13.693 -0.1039 -0.1072 -0.1235
19484W        W34615   4.365  15.091  15.492  0.0597  0.4793 -0.0207
19485W        W34616   1.003  17.782  12.144 -0.0210 -0.1511 -0.2313
19486W        W34617  18.037   6.451  13.004 -0.0336 -0.0046 -0.2413
19487W        W34618  10.412   2.793  15.471 -0.1526  0.2852  0.1176
19488W        W34619   7.369   9.392   1.768  0.1713 -0.3041 -0.3071
19489W        W34620  14.931  12.981   5.237  0.2713  0.0241  0.0849
19490W        W34621  11.073  10.393   4.130  0.1582 -0.0437 -0.0600
19491W        W34622   8.573   2.304   3.354  0.2127 -0.0210 -0.1196
19492W        W34623  11.629   4.196  11.985  0.2290  0.1133  0.1174
19493W        W34624  10.064   8.595   3.530  0.1614  0.2836  0.2872
19494W        W34625  16.056   0.761   0.264 -0.0523 -0.0103 -0.0344
19495W        W34626   3.915   9.311   0.012  0.3004 -0.0476  0.1596
19496W        W34627  11.902  17.387   1.843 -0.2848  0.1447 -0.1968
19497W        W34628   0.738   9.472   5.668 -0.0411 -0.0109  0.1329
19498W        W34629   2.896  16.409  14.363 -0.3296  0.3610 -0.0443
19499W        W34630  17.065  10.656  15.889 -0.0752  0.1678  0.1239
19500W        W34631   5.537   6.700   4.919 -0.2478 -0.0054  0.1013
19501W        W34632  13.539   6.422   5.668 -0.0738 -0.0793 -0.0524
19502W        W34633   6.986  12.141  10.552 -0.4363  0.1101  0.1297
19503W        W34634  16.215  14.823  13.722  0.2763 -0.0549  0.0594
19504W        W34635  10.906  14.537   1.353  0.0931 -0.0224  0.0485
19505W        W34636  10.440  10.741   3.160 -0.4766  0.2273 -0.2843
19506W        W34637   4.134  12.211   4.791 -0.0365 -0.2753 -0.1763
19507W        W34638  17.825  15.358   4.076 -0.0130 -0.1614 -0.0896
19508W        W34639  13.239   8.082  15.674 -0.0921 -0.1537 -0.2581
19509W        W34640  10.359   1.418   1.046 -0.2006  0.1196 -0.0196
19510W        W34641   5.076  13.694  10.666  0.0606  0.1688  0.3141
19511W        W34642   2.892  12.107  13.105 -0.3372  0.1302  0.1531
19512W        W34643  14.297   0.409   1.163 -0.1917  0.3700 -0.0934
19513W        W34644   5.092   9.637   0.623  0.0765  0.3135  0.0007
19514W        W34645  13.094  12.769  13.892 -0.0410  0.3982  0.2002
19515W        W34646   0.850   7.012  13.210  0.1168  0.1971 -0.2662
19516W        W34647   2.859  12.706   0.803 -0.1164 -0.0241  0.3517
19517W        W34648  14.452  18.230  13.932  0.1213  0.1694  0.3027
19518W        W34649  16.368  16.852   4.123 -0.0349 -0.0427 -0.0889
19519W        W34650  14.343   2.026   1.709  0.4666  0.2560  0.1277
19520W        W34651  17.392   7.083   5.439 -0.2714  0.1160 -0.0359
19521W        W34652   2.033   9.628  13.896 -0.1830  0.0083 -0.4087
19522W        W34653   8.437  12.706   5.134 -0.1484  0.0948  0.1787
19523W        W34654   4.132   8.060  10.950  0.0592 -0.1960  0.2047
19524W        W34655  15.726  12.495   1.039 -0.1709 -0.4186  0.0735
19525W        W34656  13.168  12.435   1.886 -0.1953  0.0922 -0.1271
19526W        W34657  15.661  11.866   0.276  0.0800 -0.0076  0.2009
19527W        W34658  16.729  17.919  12.850 -0.1145 -0.2006 -0.0286
19528W        W34659  14.931  12.219   1.341 -0.2419  0.2108  0.0123
19529W        W34660   6.648   8.753   5.617  0.0598  0.1813 -0.0783
19530W        W34661   1.141  10.319  12.818 -0.0946 -0.2337  0.2283
19531W        W34662  14.478  13.999  14.651  0.2708 -0.2699  0.1385
19532W        W34663   2.253  17.320   5.156  0.0015 -0.2957  0.0188
19533W        W34664  14.887   7.706   3.060  0.2210  0.3748  0.0022
19534W        W34665  12.419  17.251  13.086  0.2238  0.3424  0.0396
19535W        W34666   0.499   9.806  12.884  0.1223  0.0569 -0.3471
19536W        W34667  10.915  12.971  14.246  0.0304 -0.2049 -0.2187
19537W        W34668   7.839  16.980  15.110 -0.4068 -0.1089 -0.1784
19538W        W34669  12.371  14.595  14.553  0.0073 -0.1213  0.2040
19539W        W34670  15.078   1.475   2.759 -0.1005  0.1487 -0.3298
19540W        W34671   4.226  14.975   3.630  0.3030  0.2492  0.1483
19541W        W34672  13.505   9.418   3.262  0.1419 -0.2538 -0.2863
19542W        W34673   3.745   0.802  16.142  0.1406  0.5360 -0.0342
19543W        W34674  13.717   7.020  11.465  0.0834 -0.1531  0.1191
19544W        W34675  10.062   3.260  14.544 -0.1888  0.1063 -0.2496
19545W        W34676   6.995  14.018  12.041 -0.2299 -0.0006 -0.2340
19546W        W34677   4.020   5.482  13.752 -0.1729 -0.1076 -0.3172
19547W        W34678  11.307   4.997   2.720 -0.0551 -0.1532 -0.0387
19548W        W34679   3.055  14.853  15.519  0.2743  0.0122 -0.1510
19549W        W34680   2.800   8.560   2.547  0.1536 -0.1163  0.3253
19550W        W34681   7.990   9.051   4.706 -0.1647 -0.0562  0.0060
19551W        W34682   5.039   1.172  12.403  0.2254  0.0772  0.1211
19552W        W34683   3.090  10.790  14.351 -0.1832 -0.0840 -0.1936
19553W        W34684   9.863   1.029   2.667 -0.0544 -0.1189 -0.0884
19554W        W34685  12.768   3.936  10.891  0.0470 -0.1152 -0.1074
19555W        W34686   8.775  16.899  13.289  0.0093 -0.2171 -0.2970
19556W        W34687   2.448  18.053  11.021 -0.0435 -0.0618  0.0573
19557W        W34688   0.209  15.180   1.971  0.0911  0.2140  0.1255
19558W        W34689   4.899  12.788  15.718  0.2890  0.1932  0.0243
19559W        W34690   0.733   3.427  15.918 -0.0400 -0.2826 -0.0209
19560W        W34691   0.684  11.813   4.396  0.1872  0.1149 -0.1214
19561W        W34692   5.579  13.587   5.458  0.0299  0.1695 -0.0534
19562W        W34693   2.124   9.301   4.453 -0.0513 -0.0503 -0.0774
19563W        W34694   6.719   1.512   0.646  0.2509  0.0229  0.3084
19564W        W34695  13.018  15.131   3.877 -0.1276 -0.0154 -0.2468
19565W        W34696  13.970   5.567   0.937  0.1309 -0.0722 -0.1370
19566W        W34697   5.005   2.145  16.103 -0.1437  0.1111  0.0859
19567W        W34698  11.451  15.500  15.557  0.1943  0.0560 -0.0565
19568W        W34699   8.298   2.661   1.009  0.2231  0.1605  0.0184
19569W        W34700  13.210  14.372  15.391 -0.1080  0.1136  0.2433
19570W        W34701   0.146  13.383   1.493  0.3288  0.0456 -0.2438
19571W        W34702  13.069  13.484  14.458  0.0982 -0.0376  0.4144
19572W        W34703  15.568  13.839  11.412 -0.1560 -0.1111 -0.3183
19573W        W34704   4.996   4.090   0.981  0.0243  0.0925  0.2365
19574W        W34705  10.643   1.431   3.669  0.1069 -0.0350 -0.2268
19575W        W34706  15.562   2.499  11.363  0.2096 -0.0043 -0.1646
19576W        W34707   6.999   4.581   3.927 -0.2188  0.0735 -0.0595
19577W        W34708   4.895   7.924  13.596  0.1455  0.0306  0.1150
19578W        W34709   1.758   1.511   3.535 -0.0904 -0.1243  0.2480
19579W        W34710  18.131   6.150   3.464 -0.2369 -0.2816  0.1260
19580W        W34711   5.554   4.832  11.251  0.0375  0.1237 -0.0168
19581W        W34712  13.988  10.244   2.249 -0.0547 -0.1933  0.0646
19582W        W34713   9.148  14.671   4.522 -0.0183  0.0107 -0.3742
19583W        W34714   6.697  10.587  13.979 -0.1869  0.0985  0.2477
19584W        W34715  14.162   5.268  11.204  0.0381  0.1803  0.2168
19585W        W34716   6.007   1.539  11.253  0.1853  0.3923 -0.0004
19586W        W34717  15.613  13.271  14.966 -0.1277 -0.1427  0.1643
19587W        W34718   4.387  11.462  11.032 -0.2721  0.3792  0.0039
19588W        W34719   0.088  15.662   0.507  0.1997 -0.1785 -0.0145
19589W        W34720  18.194   1.592  11.523  0.0363 -0.1579 -0.0477
19590W        W34721   7.557   1.424  12.744 -0.1516 -0.0162  0.1630
19591W        W34722  13.096  15.601   5.860  0.1540  0.1564 -0.5486
19592W        W34723  16.398  17.919   4.258  0.0660  0.2824  0.1853
19593W        W34724   1.047   8.989  10.803  0.1106  0.0619  0.3483
19594W        W34725  10.369   3.470   2.813  0.2566  0.1515  0.0032
19595W        W34726   7.418  15.030   4.749  0.0536  0.0603  0.1799
19596W        W34727  14.715  13.168   1.897 -0.1888 -0.0245  0.1584
19597W        W34728   2.207  16.415  12.285  0.1148  0.3037  0.1410
19598W        W34729  12.560   4.208  13.394 -0.2087  0.0733  0.2748
19599W        W34730  11.378   4.001  13.011  0.1605  0.0635  0.1306
19600W        W34731  14.061   2.769  11.762  0.0839 -0.1282 -0.2295
19601W        W34732   1.182   9.695  11.948 -0.0496 -0.1186  0.1532
19602W        W34733  12.665  11.247   5.570 -0.1775 -0.3551 -0.0659
19603W        W34734  15.264  12.866   1.143  0.0658  0.2577 -0.2976
19604W        W34735  12.197  14.408  12.332  0.1420  0.4701 -0.2284
19605W        W34736  12.649   2.114  10.727  0.2436 -0.1333 -0.2507
19606W        W34737   7.725  11.135  11.416  0.0379 -0.0215  0.0194
19607W        W34738  16.453   5.509   5.258 -0.0463 -0.3275 -0.1328
19608W        W34739  14.997  17.994  11.185  0.3744  0.1247  0.1680
19609W        W34740  17.933  10.326   1.625  0.0294  0.2424  0.1506
19610W        W34741   5.468   3.534   1.145 -0.3563  0.1182  0.3140
19611W        W34742   3.565   7.851   2.355 -0.0250  0.0750 -0.2456
19612W        W34743  16.920   5.793  11.259 -0.0993 -0.2248 -0.1396
19613W        W34744  17.214   0.803   5.745  0.2481  0.0675  0.0267
19614W        W34745   4.139  14.739  10.595 -0.0128  0.2703 -0.0877
19615W        W34746   8.396   4.878   2.327  0.0665  0.3469  0.3605
19616W        W34747   4.407   6.301   2.385  0.2313 -0.1112  0.1670
19617W        W34748   6.259  10.419  12.807  0.1043 -0.3045 -0.0685
19618W        W34749   8.940  14.248   2.208  0.0481  0.2127 -0.1020
19619W        W34750  16.772   2.392  14.170 -0.1745 -0.3715  0.2536
19620W        W34751   7.046   7.500  12.136  0.2174 -0.1759  0.0027
19621W        W34752  11.644  18.338  14.574  0.0345  0.3144 -0.4066
19622W        W34753  13.949   6.930  14.694 -0.0622  0.0371 -0.1460
19623W        W34754  15.158  17.982   2.041 -0.0499  0.3783  0.1796
19624W        W34755   5.851  15.735   2.099  0.1330  0.0681  0.1167
19625W        W34756  11.724  13.831   1.767 -0.2686  0.1681  0.1777
19626W        W34757  17.610  11.349  15.923 -0.1515  0.1207 -0.2770
19627W        W34758   2.469   2.756   0.152  0.3435 -0.0790 -0.0013
19628W        W34759  16.224   7.536  13.558 -0.1668  0.1226  0.2462
19629W        W34760  15.284  16.105   0.550 -0.1029 -0.1109 -0.1131
19630W        W34761  11.540   1.344   5.707 -0.0324 -0.1846  0.2175
19631W        W34762  10.056   5.917  11.637  0.0386  0.0592 -0.1869
19632W        W34763   3.194   3.597  13.198  0.0376 -0.0943  0.0092
19633W        W34764  11.533   0.313   5.794  0.3425 -0.0614 -0.1316
19634W        W34765   7.374  14.764  11.270 -0.0278 -0.0846 -0.4595
19635W        W34766   4.194   2.002  12.951 -0.0313 -0.1209  0.0464
19636W        W34767   8.296   6.383   3.778  0.0136 -0.0614 -0.0457
19637W        W34768  14.915  14.399   0.656 -0.1732  0.0143 -0.0219
19638W        W34769   0.456  11.029  12.039 -0.0952 -0.0197 -0.0021
19639W        W34770  14.404   0.893   2.034 -0.0818 -0.1341  0.0512
19640W        W34771   3.040  17.209   2.885  0.1788  0.1881 -0.0547
19641W        W34772   8.510   1.348  13.280  0.0578 -0.2340  0.0912
19642W        W34773   3.796  11.131   3.271  0.1346 -0.0940  0.3110
19643W        W34774  14.744  11.884  12.049  0.0098 -0.0819 -0.4234
19644W        W34775   2.166  12.741   1.817  0.5116 -0.0321  0.0580
19645W        W34776   4.431  18.336   2.907 -0.0457  0.3020 -0.1815
19646W        W34777  12.164  15.587  16.102 -0.5149  0.0453 -0.0880
19647W        W34778   4.239  10.814   1.875 -0.2019  0.2707  0.2413
19648W        W34779   8.908  11.756  13.338  0.1820  0.1465 -0.0241
19649W        W34780   1.100   6.640   3.218  0.1501  0.1253 -0.2416
19650W        W34781  14.070  14.848  15.501  0.0197 -0.1744 -0.0866
19651W        W34782  10.408   8.950   1.770 -0.0619 -0.1312 -0.1883
19652W        W34783  12.982  10.616   3.339 -0.0317  0.0170 -0.1480
19653W        W34784  12.342  14.033  13.687 -0.1870  0.0278  0.0563
19654W        W34785  15.144   6.204  15.794 -0.0940 -0.2924  0.1619
19655W        W34786  10.655  11.104   5.113 -0.2882  0.0044  0.2958
19656W        W34787   2.176   5.483  13.875 -0.0373 -0.2815 -0.3763
19657W        W34788   1.613   9.373   2.195  0.0102 -0.1328 -0.1342
19658W        W34789  13.469   7.839   1.281  0.0215 -0.2186 -0.0280
19659W        W34790   8.013   1.283   4.829 -0.0727  0.0534  0.0295
19660W        W34791  12.048   6.814  14.437  0.0617  0.2719  0.1806
19661W        W34792  13.360   1.008  13.440  0.1629 -0.1453 -0.2124
19662W        W34793  17.053   5.416   3.935  0.1551  0.2642 -0.0592
19663W        W34794  14.043   4.594   3.085 -0.1773 -0.2108 -0.3537
19664W        W34795  11.290   2.254   9.740  0.2187 -0.0653 -0.1907
19665W        W34796  13.395   8.469   4.756 -0.1983 -0.0591  0.3480
19666W        W34797   4.508   8.259  13.724  0.0743 -0.2085  0.1526
19667W        W34798   8.868   3.194  12.832  0.3971  0.2194 -0.0003
19668W        W34799  11.556   8.713  11.475  0.3329  0.0222  0.3196
19669W        W34800  16.679  15.670   1.482 -0.0235 -0.0283 -0.0094
19670W        W34801   8.464   1.986  14.138 -0.5396 -0.1069 -0.1466
19671W        W34802  18.202  18.291   4.326 -0.0286  0.1888  0.2289
19672W        W34803  16.126   0.341  13.265  0.5589  0.1706  0.1728
19673W        W34804   7.230   4.031  12.016 -0.1935 -0.1149 -0.2735
19674W        W34805  11.575   1.970   4.934 -0.1077 -0.1552  0.1538
19675W        W34806   2.321   0.889   1.060  0.1469 -0.0500 -0.2739
19676W        W34807  14.239  14.351   1.298  0.1307 -0.1078  0.0678
19677W        W34808  10.278   6.063   4.684  0.1570  0.1287 -0.1459
19678W        W34809  13.465  11.729  15.916  0.0208 -0.1574  0.4202
19679W        W34810   0.390   5.056   4.892 -0.1228  0.3249 -0.1177
19680W        W34811  17.158   7.383  11.720  0.3420 -0.0203 -0.0129
19681W        W34812   1.707   1.726  15.713 -0.4871  0.0490  0.1861
19682W        W34813   7.708   4.885  10.297  0.1198 -0.4407 -0.2413
19683W        W34814   5.089  18.268   3.763 -0.0546  0.2825 -0.2778
19684W        W34815  17.494   3.555   2.867  0.0652  0.1349 -0.1400
19685W        W34816  13.831  18.128   0.518 -0.4934  0.1680  0.2480
19686W        W34817   4.460   6.571  14.442 -0.4317  0.0352 -0.2300
19687W        W34818   8.741  14.541  14.784  0.0736  0.1487 -0.0658
19688W        W34819   8.171   1.762  13.386  0.0779 -0.3000  0.1294
19689W        W34820  12.987  12.874   4.602 -0.2606  0.1268  0.0400
19690W        W34821   1.660   2.190   0.437  0.3988 -0.1325  0.0316
19691W        W34822  12.872  17.216  13.952 -0.0895 -0.1282  0.0563
19692W        W34823   8.125   3.812   3.447 -0.1405  0.1319 -0.0740
19693W        W34824   2.499  17.047  11.042  0.2394  0.0880 -0.2408
19694W        W34825  13.853   3.654  15.716  0.1217 -0.1866 -0.1268
19695W        W34826  12.702  16.563  12.013  0.2309  0.4850 -0.0961
19696W        W34827   8.512   5.877   1.365 -0.0066 -0.1533  0.2144
19697W        W34828  16.554   7.232  16.035 -0.1324  0.1713  0.1557
19698W        W34829  10.632  16.847   2.151 -0.1556  0.0612 -0.0487
19699W        W34830   1.773   4.624   3.121 -0.1777  0.2171 -0.0705
19700W        W34831  14.854  11.149  14.527  0.0782 -0.3891 -0.0756
19701W        W34832   8.272   9.272  10.091  0.1953 -0.2041  0.1982
19702W        W34833  16.159   8.941   4.891 -0.3108  0.0216  0.0982
19703W        W34834  16.169   9.419  15.391  0.1211  0.2898  0.1222
19704W        W34835   9.773  15.634   0.162 -0.3880 -0.2910 -0.4427
19705W        W34836   0.421   3.117  12.813  0.3865  0.3972  0.0922
19706W        W34837   7.290   1.481   2.165 -0.1478  0.2003 -0.0861
19707W        W34838   2.859   5.133  12.931 -0.1418 -0.1715 -0.1228
19708W        W34839  10.695  11.985   2.486 -0.0658 -0.0421 -0.1890
19709W        W34840   6.673  14.066  12.624  0.1355 -0.0245  0.1172
19710W        W34841  17.212  12.113  14.919 -0.3698 -0.0381  0.1099
19711W        W34842  10.490   3.209   1.703 -0.0501 -0.2492 -0.0103
19712W        W34843   0.117  14.437  12.059  0.2614 -0.0969  0.3408
19713W        W34844  15.280   3.497   3.813 -0.0214  0.1149 -0.3249
19714W        W34845   1.231   2.314   3.103 -0.1040  0.1107  0.0620
19715W        W34846  15.116  15.029  13.842  0.2391 -0.1356  0.2440
19716W        W34847   1.709   5.121  11.432  0.0304  0.0579 -0.0678
19717W        W34848   7.093   4.958  12.325 -0.1688  0.1193 -0.1100
19718W        W34849   1.608  12.816  11.707  0.0742  0.0230  0.1637
19719W        W34850  12.926  15.214   1.678 -0.1158  0.0284  0.1869
19720W        W34851   7.401   4.476   5.182 -0.0968 -0.1613 -0.2780
19721W        W34852   5.215   4.438   3.066  0.1955 -0.1836  0.2672
19722W        W34853   7.099  10.970   6.302 -0.0836  0.0452  0.2882
19723W        W34854  17.396  12.813  14.722 -0.0841  0.0173 -0.1231
19724W        W34855  15.357   7.331  13.972  0.0987  0.0397 -0.3445
19725W        W34856  14.376  10.656   4.341  0.2406  0.3426 -0.2166
19726W        W34857  16.346   6.104  14.636  0.3612  0.0349 -0.1078
19727W        W34858   9.254  15.984   1.325 -0.4551  0.2011 -0.0246
19728W        W34859   0.364  16.175   1.147  0.1543  0.1238  0.1865
19729W        W34860   7.301   6.943   3.255  0.1461  0.2208 -0.1643
19730W        W34861   7.861  14.050  15.785 -0.1129 -0.0138 -0.2061
19731W        W34862   8.085  10.417   3.484 -0.0740  0.0060  0.3017
19732W        W34863  13.057  16.817  13.440  0.0340 -0.0308 -0.2666
19733W        W34864   6.219  10.611   5.393  0.1331 -0.2225 -0.0850
19734W        W34865   0.637   8.154  13.424  0.2762 -0.1839 -0.3417
19735W        W34866   2.039   9.205  12.431 -0.0842  0.0441  0.2466
19736W        W34867   4.667  16.582   2.706 -0.1270  0.1731 -0.2098
19737W        W34868  13.765   3.362   2.013  0.2202 -0.2454  0.2364
19738W        W34869   2.886   9.075  11.439  0.1771  0.1062 -0.1634
19739W        W34870   6.933  16.473  11.504 -0.1679 -0.3623  0.1413
19740W        W34871   6.176   2.192   4.362  0.3924  0.2438  0.1271
19741W        W34872   4.011  12.829   0.364 -0.0977 -0.0092  0.0220
19742W        W34873  11.407  11.000  12.183 -0.1233  0.0803  0.2648
19743W        W34874   3.989   2.993  11.930 -0.2156 -0.0099  0.0670
19744W        W34875  14.067   2.462  13.221  0.0151 -0.0205  0.1696
19745W        W34876  10.507   8.954  12.833  0.2043  0.2851  0.3017
19746W        W34877   9.432   9.816   3.530  0.0481  0.3222 -0.2526
19747W        W34878  16.152  14.234  12.934 -0.0347  0.0451 -0.1949
19748W        W34879  18.193  13.886   5.846 -0.1930 -0.1566  0.3390
19749W        W34880   2.706  16.154   0.453  0.0300  0.0118  0.0085
19750W        W34881  11.724   7.183   2.122 -0.2087 -0.2281 -0.3722
19751W        W34882  16.420   1.564   2.494 -0.0272 -0.0288  0.1825
19752W        W34883  17.614   4.101  14.949 -0.0149 -0.0207 -0.0546
19753W        W34884   8.693  16.885   2.244  0.4443  0.3193  0.0173
19754W        W34885   1.066   1.758  14.616 -0.1403  0.0510  0.2292
19755W        W34886   7.146   2.397   3.505  0.4301 -0.0112  0.3602
19756W        W34887   0.253   6.253  13.623 -0.2743  0.0594  0.1118
19757W        W34888  11.233  16.720  12.112  0.2760 -0.0457  0.2291
19758W        W34889   5.486  10.650  14.755  0.1434  0.3245 -0.0098
19759W        W34890  12.347  18.277   5.428 -0.1260  0.0499  0.3554
19760W        W34891   0.759   5.561   1.597 -0.2228 -0.1382  0.0247
19761W        W34892   8.308  11.657  14.079  0.1070 -0.3698  0.0568
19762W        W34893  11.090   7.139  15.553 -0.2675  0.3081  0.0241
19763W        W34894   4.577   2.401  14.724  0.0687 -0.0830  0.3773
19764W        W34895   2.461   8.999   4.184 -0.0503 -0.3190 -0.0910
19765W        W34896   8.912   7.453   1.555  0.1492 -0.2541 -0.2004
19766W        W34897   6.173  13.212   2.665  0.1200  0.0392 -0.1618
19767W        W34898   8.139  12.688  15.427 -0.1574  0.2668 -0.0160
19768W        W34899   8.200  12.654   4.263  0.2174  0.0252 -0.3740
19769W        W34900   8.503  17.867   4.464  0.2519 -0.0631 -0.1166
19770W        W34901  16.530  18.244   4.949 -0.0017 -0.2657  0.2477
19771W        W34902  13.390   9.836  15.280  0.0012 -0.1435  0.0361
19772W        W34903  14.754  15.821  15.982  0.1959 -0.3170 -0.0708
19773W        W34904  16.084   6.816  10.923  0.0408 -0.2931 -0.1016
19774W        W34905  10.267  14.787  10.763 -0.2723 -0.1050  0.0313
19775W        W34906   4.583  10.557   1.512  0.0958  0.1638 -0.1642
19776W        W34907  17.927   2.925  12.382 -0.1518 -0.0402  0.0278
19777W        W34908  15.890  11.408   4.337  0.0671  0.1190 -0.2393
19778W        W34909   3.436  10.053  12.740  0.0605 -0.0384  0.0294
19779W        W34910  14.512   5.809  11.236  0.3718  0.1476 -0.0918
19780W        W34911   3.188   7.726   5.039 -0.1321 -0.1577  0.5379
19781W        W34912   7.353  14.066  16.118 -0.0322  0.0312 -0.0684
19782W        W34913   6.157  14.699   5.246  0.1376  0.1902 -0.0895
19783W        W34914   6.344   5.880  14.603 -0.0934  0.2982  0.0637
19784W        W34915  14.650  10.908   1.885  0.1566 -0.0914 -0.2169
19785W        W34916   9.346   0.878   1.073 -0.1794  0.4203 -0.2681
19786W        W34917  14.688  14.053   5.635 -0.1288 -0.0498  0.2910
19787W        W34918  16.173   2.927  15.159 -0.1926  0.2025  0.2029
19788W        W34919   9.028   8.893  14.318 -0.1991  0.2191  0.1170
19789W        W34920  13.293   5.378   4.188  0.4021 -0.0386  0.3963
19790W        W34921   7.810   4.539   4.010 -0.0403 -0.1553  0.0198
19791W        W34922   6.271   9.126  15.126  0.1489 -0.0604 -0.2980
19792W        W34923   7.998  12.902   0.374 -0.0643 -0.1333  0.2741
19793W        W34924  10.143   7.204  11.990 -0.2109 -0.2301 -0.1230
19794W        W34925   1.451   0.430   0.350 -0.2293 -0.3027  0.0679
19795W        W34926   4.389   7.085  10.945 -0.0323  0.3485  0.2193
19796W        W34927   1.590  17.608  12.791  0.0712  0.1264  0.2955
19797W        W34928  11.535   2.964   4.664  0.1364 -0.1024  0.1022
19798W        W34929  11.795   3.347  13.980  0.0330  0.1733  0.0805
19799W        W34930   9.925  17.411   5.920 -0.2230 -0.0578 -0.3166
19800W        W34931  14.548  12.646   1.979  0.0822 -0.2555  0.2736
19801W        W34932  15.063   9.745  12.108 -0.0386 -0.1496 -0.0725
19802W        W34933   1.318   5.265  15.350  0.1142 -0.1840  0.3229
19803W        W34934   1.260   1.402   4.177  0.0122 -0.3090  0.0192
19804W        W34935  11.781   2.624  13.631 -0.0014 -0.1674  0.1566
19805W        W34936   5.795   5.246  14.104  0.1264  0.0226 -0.1935
19806W        W34937  14.208   8.227   4.592  0.2426 -0.1301 -0.2129
19807W        W34938  11.573   7.296  14.487 -0.4359  0.1948 -0.0468
19808W        W34939  15.201   0.446  14.074  0.3442 -0.0354  0.2998
19809W        W34940   9.638  10.182   0.472  0.0396 -0.0136  0.0250
19810W        W34941   9.486   3.228   4.122  0.2169  0.0144  0.1333
19811W        W34942   8.883  13.539  15.654 -0.0998  0.3218  0.0687
19812W        W34943   1.525   1.895  11.614  0.3205  0.2715  0.0650
19813W        W34944  12.157  13.615  13.495 -0.1057  0.2748 -0.0080
19814W        W34945   9.734  11.516  13.136  0.0436  0.1769  0.0879
19815W        W34946   6.626   7.159  15.109  0.0940 -0.0319 -0.0857
19816W        W34947   9.929   1.424   1.367  0.1494  0.0480  0.0014
19817W        W34948   5.716   9.835   5.748  0.4339 -0.0002 -0.0712
19818W        W34949  16.784   1.838   0.220 -0.0616 -0.0037 -0.1025
19819W        W34950   5.238  15.743  13.201 -0.1354 -0.1545  0.0989
19820W        W34951  15.537   2.496   0.440  0.1375 -0.1332  0.0486
19821W        W34952   8.830  18.132   4.713 -0.0998 -0.1970  0.0273
19822W        W34953   4.491   5.018  15.247  0.2608  0.2890 -0.0474
19823W        W34954   2.155  16.276   9.947 -0.1729  0.0733  0.0779
19824W        W34955  17.020   7.177   4.583  0.0177 -0.0207  0.0217
19825W        W34956   2.647   4.636   5.492  0.0329  0.0205  0.0621
19826W        W34957   1.589   3.678  15.810  0.3795  0.2394  0.0113
19827W        W34958  11.978  14.594   1.045  0.3308 -0.3831  0.1586
19828W        W34959  11.289   8.099  15.185  0.1321  0.1826 -0.2099
19829W        W34960  13.667  11.405   0.115 -0.2765 -0.0144 -0.1261
19830W        W34961  14.795  17.704  15.317 -0.2219  0.0345  0.0437
19831W        W34962   2.940  16.145   1.421  0.0496 -0.2521 -0.1998
19832W        W34963   6.692  11.651   3.550 -0.2218  0.1566 -0.1907
19833W        W34964   5.388  13.867   1.500  0.0939  0.3714 -0.2322
19834W        W34965  15.347  15.340  12.745 -0.0532 -0.4210  0.1999
19835W        W34966  10.403  13.072  14.100  0.0296  0.0144  0.1934
19836W        W34967   8.188   0.784  10.211  0.2169 -0.1789  0.3453
19837W        W34968   6.285   3.742  12.707 -0.3086 -0.2618 -0.0556
19838W        W34969  10.758   4.375   3.834 -0.2458  0.3855 -0.5139
19839W        W34970   0.671  14.154   3.224 -0.0813  0.1980 -0.2014
19840W        W34971   0.201   2.716   1.725 -0.0695 -0.1147  0.2867
19841W        W34972   0.754  13.742   5.369 -0.0306 -0.1774 -0.0528
19842W        W34973  18.138  17.230   1.365  0.4622  0.2072 -0.1793
19843W        W34974   0.363  12.456   2.500 -0.2604 -0.0864 -0.0979
19844W        W34975  10.108  13.793  13.624  0.0747 -0.1574 -0.0905
19845W        W34976  12.668   3.629   3.614 -0.0320 -0.1538 -0.3746
19846W        W34977  10.528   8.171   4.040 -0.1692  0.1191 -0.2481
19847W        W34978  14.884  18.349   0.965 -0.1441 -0.0840  0.0480
19848W        W34979  14.828  10.845   0.390  0.0813 -0.0939  0.0157
19849W        W34980   1.620  17.289   0.460 -0.4138  0.0193 -0.3143
19850W        W34981  14.731   8.280  13.812 -0.0549 -0.1162  0.3038
19851W        W34982   2.461   2.593  13.685  0.1095  0.2250 -0.1628
19852W        W34983   2.515  11.393  13.020  0.1438 -0.0433  0.1895
19853W        W34984   2.594   6.212   2.114 -0.0152 -0.0384  0.0689
19854W        W34985   6.250   3.948  12.142  0.1441 -0.2821 -0.3751
19855W        W34986   6.338  15.347  12.257  0.1876 -0.1502  0.0984
19856W        W34987   5.891  11.503  15.895 -0.3757 -0.4843 -0.2243
19857W        W34988  14.791  15.951  11.196 -0.1211 -0.2976  0.1786
19858W        W34989  17.803   8.627  10.796 -0.4242 -0.1399 -0.1695
19859W        W34990   3.543   3.653  14.185  0.1865  0.2842  0.0119
19860W        W34991  11.277   1.099  12.723 -0.1345  0.0924  0.2153
19861W        W34992  13.562  15.359  16.063  0.2113 -0.1030 -0.2270
19862W        W34993   9.231   4.780  11.042 -0.1494  0.0005 -0.0884
19863W        W34994   8.416   4.329   1.854  0.1243 -0.2479  0.1809
19864W        W34995  11.117  17.415  10.619 -0.5113 -0.0786 -0.1459
19865W        W34996  12.051   1.169  15.009 -0.1321  0.0050 -0.2511
19866W        W34997  14.977  15.039  15.385  0.1238 -0.1792 -0.0870
19867W        W34998   2.587   1.933   3.787  0.1504  0.1379  0.0071
19868W        W34999  16.770   9.441  10.564  0.0138 -0.1603  0.1815
19869W        W35000  16.731  14.629  14.144 -0.3763 -0.1788  0.1649
19870W        W35001   6.089  13.953  14.617 -0.2814 -0.2075 -0.1307
19871W        W35002  10.791  12.862   2.984  0.1501  0.0207  0.3145
19872W        W35003  15.130   8.440   3.723 -0.0774  0.1629  0.1448
19873W        W35004  15.959  18.137  14.592 -0.0713 -0.0744  0.1216
19874W        W35005  12.123   1.168   3.033  0.0333 -0.0776 -0.0319
19875W        W35006  17.149   1.500  11.312 -0.1981 -0.3192  0.0784
19876W        W35007  10.992   8.408   0.780  0.1313 -0.2244 -0.3411
19877W        W35008   6.726   0.769  13.936  0.2298 -0.0276  0.2393
19878W        W35009   6.343   8.968  14.122  0.2889  0.1113  0.1070
19879W        W35010  11.397   1.775  13.708 -0.0562 -0.1806  0.0480
19880W        W35011  11.728   5.370   0.571 -0.0556  0.1814  0.3100
19881W        W35012  14.868  13.665   1.936 -0.1436  0.0884  0.1519
19882W        W35013   4.796  17.537   5.451 -0.2677 -0.0279 -0.4084
19883W        W35014   1.032   0.623   0.596  0.1132  0.4218 -0.2002
19884W        W35015  16.956   1.004   5.355  0.0303  0.1399  0.0589
19885W        W35016   4.038   2.862  12.421  0.1133  0.0195 -0.2634
19886W        W35017  16.516  16.916   2.879  0.1115  0.0352  0.0191
19887W        W35018   8.726  10.263   5.642  0.0850 -0.0643  0.2583
19888W        W35019   2.534   9.149  12.435 -0.1607 -0.0704 -0.1356
19889W        W35020  17.688   6.800   5.097 -0.4442 -0.1232 -0.2125
19890W        W35021  10.349  17.513  14.833 -0.1658  0.1276  0.1364
19891W        W35022  11.222  16.294   4.293 -0.3730 -0.0030 -0.1246
19892W        W35023  13.628  18.317   2.537 -0.2347 -0.0168  0.2592
19893W        W35024   0.526   4.763  15.362 -0.1223 -0.1750  0.0458
19894W        W35025  16.828   5.326  14.787  0.0867  0.1863 -0.2285
19895W        W35026  11.504  13.338   1.899  0.1199 -0.0183  0.2214
19896W        W35027  12.353  17.428  11.782 -0.1957  0.1875  0.2495
19897W        W35028  10.399   8.954  12.369 -0.0338  0.0518 -0.1312
19898W        W35029  12.557   3.702   4.875 -0.1920  0.2503  0.1509
19899W        W35030   7.757  12.093   0.096  0.0787 -0.1335  0.1059
19900W        W35031  15.986  10.237   5.111  0.1555  0.2246 -0.1732
19901W        W35032  17.142  15.878  10.774  0.1533 -0.1659 -0.1159
19902W        W35033   5.389   0.775   6.052 -0.4311  0.1252  0.1398
19903W        W35034  12.867  14.635   0.109 -0.0765  0.1190 -0.2523
19904W        W35035  17.280   1.088   0.001 -0.0915  0.1624  0.0119
19905W        W35036   0.189   5.247  13.092 -0.2516  0.1136  0.3005
19906W        W35037  12.487   7.879   3.727  0.0074 -0.0645  0.2124
19907W        W35038   9.603   7.305   1.066 -0.0819  0.2065 -0.1064
19908W        W35039  14.088  11.625  12.234  0.0027  0.1706 -0.0439
19909W        W35040   0.135   5.401  15.907 -0.0053 -0.1835 -0.0099
19910W        W35041   6.591   6.554  15.826  0.1072  0.1949  0.0317
19911W        W35042   0.064   9.108   0.682 -0.1208  0.2127  0.0538
19912W        W35043  14.639  11.548   4.030 -0.0880  0.0189  0.0591
19913W        W35044   5.350   9.086  15.936 -0.4947 -0.2663  0.1773
19914W        W35045   4.473   7.370   4.352 -0.2099 -0.0100 -0.0784
19915W        W35046  16.762   9.308  10.113 -0.0186 -0.2235  0.2082
19916W        W35047   7.356  13.838  15.626 -0.0397 -0.0601 -0.2458
19917W        W35048  13.881  11.192   5.041  0.0854 -0.1905 -0.2130
19918W        W35049  12.857  17.535  12.924 -0.1619 -0.4368 -0.1215
19919W        W35050  14.214   4.296   1.758  0.0093  0.0930  0.0935
19920W        W35051   7.300   9.638   3.600 -0.0435 -0.0522  0.0149
19921W        W35052  11.275   0.940   0.023 -0.0381  0.1463  0.0506
19922W        W35053   4.972  14.638   4.081  0.1288  0.0641 -0.1121
19923W        W35054   5.510  18.062  12.278  0.2057 -0.3854  0.3016
19924W        W35055   1.046  15.868  15.462  0.4434  0.2238  0.0647
19925W        W35056   6.214   6.543  13.001 -0.2252  0.0048  0.0391
19926W        W35057  11.300   3.794  12.542 -0.1242  0.0453 -0.2444
19927W        W35058   8.568  15.424   1.528 -0.1782  0.0779 -0.1863
19928W        W35059  12.017  16.199  13.611  0.1142 -0.4724  0.1953
19929W        W35060   6.277  11.451  12.255  0.5195  0.0946 -0.1867
19930W        W35061   3.976   5.684   4.921 -0.3669  0.2429  0.0369
19931W        W35062  11.294  14.014   1.661 -0.1371 -0.1652 -0.0005
19932W        W35063  11.007  12.279   0.163 -0.0304  0.1719 -0.0149
19933W        W35064   9.464  11.686   0.898  0.0293 -0.2708 -0.0779
19934W        W35065   9.048   7.211   3.904  0.3848 -0.0360 -0.1429
19935W        W35066  17.221  11.401  14.482 -0.0716  0.1157 -0.0193
19936W        W35067   8.289  12.958  11.274  0.0317 -0.2252 -0.1427
19937W        W35068   9.885   8.726   0.624 -0.1987  0.1193 -0.2652
19938W        W35069  17.071  14.746  11.046 -0.0519 -0.3305  0.0858
19939W        W35070   3.385   1.780  14.290  0.0904  0.1993 -0.1198
19940W        W35071   7.778  14.270  15.319  0.0309 -0.1023  0.1578
19941W        W35072   2.746  16.224   4.606 -0.0219 -0.1677 -0.1336
19942W        W35073   7.061   1.955   5.311  0.1921  0.1742  0.0719
19943W        W35074   5.780  16.052  14.766  0.0242  0.0552  0.0127
19944W        W35075   4.337  12.613  16.037  0.2657 -0.2599  0.1696
19945W        W35076   8.959   9.495  13.194 -0.0262  0.3856 -0.1664
19946W        W35077  12.105   8.027   0.243  0.4110  0.0330  0.1294
19947W        W35078  13.727  16.045  12.281  0.0415 -0.0109  0.1216
19948W        W35079   3.185  11.664   0.813  0.1210 -0.1503  0.1856
19949W        W35080   9.985  12.943   2.002  0.1849  0.2512 -0.1791
19950W        W35081   1.033  17.481  15.877  0.2581 -0.1475 -0.1012
19951W        W35082   1.183   3.874   1.692  0.0075  0.0101  0.3113
19952W        W35083  14.350  15.275  13.158 -0.1661  0.0399 -0.0304
19953W        W35084  15.078  14.171   1.859  0.3872 -0.1129  0.2164
19954W        W35085   6.744   0.953   3.830 -0.2149  0.0712  0.1929
19955W        W35086  14.032   9.531   3.319 -0.1705  0.4254  0.0647
19956W        W35087  14.316   2.505   2.503 -0.1135 -0.0629  0.3131
19957W        W35088  11.225   2.721  13.632 -0.0027  0.3755 -0.0632
19958W        W35089   0.301  17.120   5.361  0.0640 -0.2930  0.3574
19959W        W35090  17.659  11.208   1.259 -0.0657  0.0184  0.2734
19960W        W35091   6.163  16.835   5.144 -0.3453 -0.0702 -0.1342
19961W        W35092   6.182   2.694   4.427 -0.0245  0.2470 -0.0895
19962W        W35093   3.699  10.176   5.033  0.1318 -0.0939 -0.2787
19963W        W35094   0.484   0.052  14.613 -0.3778  0.3705  0.0989
19964W        W35095  14.976   9.041  14.243 -0.1458  0.3849  0.0550
19965W        W35096   6.362   2.629   2.439  0.1090 -0.0532  0.1225
19966W        W35097  10.858  12.574  12.449 -0.0971  0.0938  0.0509
19967W        W35098   1.079  16.880   1.944 -0.3817  0.0786 -0.1259
19968W        W35099   6.991   9.774  12.601 -0.0243 -0.0752  0.0392
19969W        W35100   9.701   0.221  13.390 -0.2340  0.0278  0.1558
19970W        W35101   8.438   4.534  11.553  0.1466 -0.1525  0.1366
19971W        W35102   0.036   7.241  14.760 -0.0380  0.1443  0.2128
19972W        W35103  12.991   2.106  15.520 -0.1571  0.2255  0.1175
19973W        W35104   7.789  10.008   4.353  0.1086  0.0870  0.3029
19974W        W35105  11.936   0.461  13.863 -0.2233 -0.0167 -0.1002
19975W        W35106   1.181  10.668  13.150 -0.0737  0.1293 -0.1223
19976W        W35107  10.567   4.888   3.068  0.5023 -0.2008  0.5739
19977W        W35108  18.282  16.529   1.966 -0.0069 -0.2508 -0.2054
19978W        W35109   5.028  10.809  15.707  0.1757 -0.0982  0.0966
19979W        W35110   4.309  14.336  13.413  0.0589  0.0381 -0.1039
19980W        W35111   7.630   0.652  11.189  0.1247 -0.1199 -0.1380
19981W        W35112  10.012  10.200  14.601 -0.2236  0.2121  0.2413
19982W        W35113  11.600   5.727  15.084  0.0777 -0.0738 -0.0961
19983W        W35114  13.683   2.900  13.247  0.0425 -0.0937 -0.1547
19984W        W35115   0.267  18.303  13.621 -0.0772 -0.4534 -0.0544
19985W        W35116   9.870   1.187   3.163  0.2663  0.2875 -0.0941
19986W        W35117  11.542   0.871  15.725  0.0087 -0.1555 -0.0901
19987W        W35118   4.919   4.505  14.224  0.0127  0.2726 -0.2966
19988W        W35119  14.541  15.315  13.696 -0.1200 -0.1292  0.2630
19989W        W35120   1.231   3.667  15.511  0.3906 -0.0968 -0.1150
19990W        W35121  15.047  17.168   2.108  0.1971 -0.2672 -0.0755
19991W        W35122  11.212  10.622  15.635  0.1078 -0.1560 -0.1128
19992W        W35123   4.925   6.256  12.819 -0.2465  0.4113  0.1487
19993W        W35124  17.964  13.020  15.434 -0.0761  0.0591 -0.0733
19994W        W35125   7.307   2.979   4.224  0.0521 -0.0347 -0.0915
19995W        W35126   1.498  17.955   5.291  0.3154 -0.1123 -0.1340
19996W        W35127  10.464   0.410   3.848 -0.0132 -0.1155 -0.1396
19997W        W35128   4.695   7.123   3.418  0.0785  0.0483 -0.2330
19998W        W35129  17.155   8.955   3.705 -0.1747 -0.0147 -0.1602
19999W        W35130   9.418  18.278   6.455 -0.1861  0.0682 -0.4798
20000W        W35131  15.082   4.141   0.748  0.3452  0.1959  0.0059
20001W        W35132   6.287  11.186  11.356 -0.0987 -0.0074  0.0254
20002W        W35133  13.525   2.709   4.005 -0.1360 -0.1497  0.0644
20003W        W35134   8.674  16.952   0.214 -0.0019 -0.3228  0.1765
20004W        W35135   1.794  14.949  15.177  0.2758 -0.0709 -0.1804
20005W        W35136  11.536   2.920   1.057 -0.1104 -0.1317  0.0626
20006W        W35137   6.269   5.060  12.151 -0.2777  0.3467  0.0358
20007W        W35138   7.028   6.851  10.866  0.2339 -0.0406 -0.1610
20008W        W35139  12.518   3.288   3.938 -0.1338  0.0949 -0.1359
20009W        W35140   6.231  12.666   0.568 -0.0689  0.1111 -0.1102
20010W        W35141   7.681   5.233  15.766  0.2431  0.3841 -0.2802
20011W        W35142   2.866   0.032  13.277  0.0778 -0.0917 -0.1203
20012W        W35143   3.969  13.314  13.168  0.0248 -0.0824 -0.0249
20013W        W35144  17.531   0.910   3.340 -0.2421 -0.0531 -0.0398
20014W        W35145   8.447   7.531   5.077  0.0457  0.0036 -0.0243
20015W        W35146  18.243  16.440   1.479  0.3427  0.3030 -0.1293
20016W        W35147   6.462   2.313   0.585 -0.1176  0.2611 -0.2152
20017W        W35148   8.951   4.130  12.227  0.2104 -0.0337  0.3637
20018W        W35149   6.345  12.670  15.120 -0.2844  0.3722 -0.0771
20019W        W35150  17.638  11.789   2.861 -0.3540 -0.1280  0.3553
20020W        W35151   1.536   9.602  12.487 -0.2337  0.2609 -0.0147
20021W        W35152  14.529  12.645   2.633  0.2227 -0.0969  0.3283
20022W        W35153   4.675   8.233   0.471  0.2349  0.2071 -0.0902
20023W        W35154  11.289  14.450   3.447  0.0914 -0.1983 -0.1172
20024W        W35155  11.454  15.809   5.895  0.0164 -0.3128  0.0582
20025W        W35156   9.856   1.558  13.334  0.1133  0.2918 -0.0873
20026W        W35157   9.253  13.012  11.611  0.1762  0.4471 -0.0352
20027W        W35158   0.920  12.533  12.919  0.0221  0.1501 -0.2142
20028W        W35159   5.603   5.546   0.053 -0.2008 -0.0631  0.1079
20029W        W35160  17.949   7.610   4.725  0.3891  0.0197 -0.1557
20030W        W35161  14.097  16.589   1.027  0.3066  0.2933 -0.5599
20031W        W35162  12.832  11.263   3.148 -0.1116 -0.1683  0.0607
20032W        W35163  12.809   5.611  11.107  0.4168 -0.2655  0.0471
20033W        W35164   9.349  16.835  16.141 -0.2715 -0.0039  0.1377
20034W        W35165  15.513   8.699  15.273 -0.1392  0.0022 -0.1690
20035W        W35166   2.216   3.649   0.452 -0.0729 -0.2199  0.0503
20036W        W35167  11.728   7.093   5.307  0.1153 -0.1154  0.2515
20037W        W35168  10.762  15.770   3.677  0.0116  0.1096  0.2252
20038W        W35169  17.390  14.657   0.765 -0.1601  0.0317 -0.1845
20039W        W35170  16.455   7.181   4.586 -0.0564  0.0406 -0.0244
20040W        W35171   3.126   1.079  11.859 -0.0469  0.7085  0.0425
20041W        W35172  17.363  12.918  13.543  0.4543  0.1561 -0.1634
20042W        W35173   7.410   3.349  14.363  0.2708 -0.3059 -0.0185
20043W        W35174   9.900  18.113  14.610  0.0444 -0.0491  0.0620
20044W        W35175   0.655  15.229  14.422 -0.1368  0.1787 -0.3232
20045W        W35176   4.096  12.659  15.267 -0.0274  0.0794  0.1972
20046W        W35177  15.391   7.472   2.844  0.1326  0.2214  0.0155
20047W        W35178  14.664  15.524   5.299  0.2768 -0.0269  0.1212
20048W        W35179   4.106   0.230  14.122  0.1156  0.0488 -0.1941
20049W        W35180   0.940   9.264  11.805 -0.2005 -0.0237  0.0867
20050W        W35181   3.613  15.889  13.230  0.0211  0.1752 -0.0413
20051W        W35182  17.393  15.124  15.097  0.1456 -0.2997 -0.0070
20052W        W35183   9.521   7.759   2.225 -0.4254 -0.0597  0.0470
20053W        W35184  16.392  14.381   2.035  0.2880 -0.2545  0.2230
20054W        W35185   2.662   0.433  14.154  0.1690 -0.1877  0.0353
20055W        W35186   9.045   8.659  12.434 -0.0921 -0.1858  0.0761
20056W        W35187   2.539  14.461   1.057 -0.1568  0.0816 -0.0520
20057W        W35188  12.931  13.423   3.852  0.0658 -0.1921 -0.0874
20058W        W35189  17.541   3.298   4.454  0.1775 -0.0202  0.1620
20059W        W35190  14.481  12.428   1.443  0.1506  0.0093  0.0131
20060W        W35191   4.565  13.524   0.680  0.0566 -0.1279 -0.0224
20061W        W35192  12.301  11.832  12.142  0.0098 -0.1393 -0.1580
20062W        W35193   1.392  16.069   0.867  0.0005  0.1710 -0.0515
20063W        W35194  17.324  11.533   2.080  0.0635 -0.0655 -0.2103
20064W        W35195  17.220  17.524   3.143 -0.2124  0.3550  0.0518
20065W        W35196  15.203  13.922   3.239 -0.0676  0.3407  0.1906
20066W        W35197   1.086   3.360   4.614 -0.3180  0.2814 -0.0379
20067W        W35198   4.846  11.212  14.353 -0.0053 -0.0936 -0.1066
20068W        W35199   2.284  10.752   1.068  0.3077 -0.3199 -0.0076
20069W        W35200  15.687  18.247   2.506 -0.3435  0.0965 -0.1592
20070W        W35201  12.158   7.273  12.679  0.0816  0.2751  0.1155
20071W        W35202   0.650   4.890   0.870 -0.1054 -0.0879 -0.2715
20072W        W35203  17.249   8.359   0.693  0.2636 -0.0107 -0.1757
20073W        W35204   9.326   8.285  12.372  0.0169  0.0257  0.0112
20074W        W35205  17.046  12.996  12.860  0.2345  0.0741 -0.2386
20075W        W35206   0.745   4.964  15.775  0.1591 -0.0005  0.0566
20076W        W35207   2.081   6.302   2.179  0.0104 -0.0379  0.0014
20077W        W35208   3.405   2.274   5.300  0.1620 -0.2479 -0.0045
20078W        W35209  13.741  10.507  13.643 -0.0010 -0.0187 -0.0331
20079W        W35210  15.716  17.873  13.585 -0.2088 -0.0658 -0.0228
20080W        W35211   8.212  15.895   3.378  0.1539  0.0566  0.0415
20081W        W35212   1.389  16.803  13.310 -0.2808 -0.0778 -0.0264
20082W        W35213   4.519   7.513  13.228  0.1704 -0.2075  0.1356
20083W        W35214   0.768  10.305  13.174 -0.0172  0.2418  0.1116
20084W        W35215   4.107  11.884   3.912  0.2850  0.0577 -0.1961
20085W        W35216   4.326   6.690   1.075  0.0944 -0.1087 -0.1588
20086W        W35217  15.237   0.210   3.346  0.1764  0.1487  0.3368
20087W        W35218   9.276   6.721   0.865  0.0222 -0.0883  0.1324
20088W        W35219   1.881   6.391  11.095  0.1212 -0.1182  0.0850
20089W        W35220   7.549   7.695   3.615 -0.1593 -0.0411 -0.0581
20090W        W35221   6.143  14.627  12.314 -0.6756 -0.0142 -0.0190
20091W        W35222  17.607   0.607   2.381 -0.0955  0.3537  0.3465
20092W        W35223  12.286  13.163  10.820  0.1549  0.2746  0.0963
20093W        W35224  15.513  17.573   1.472  0.3294  0.0329  0.0677
20094W        W35225   3.146   6.501  11.179  0.0135  0.0264  0.1058
20095W        W35226   4.002   3.315  14.901 -0.0173 -0.3814 -0.0846
20096W        W35227   2.787  13.623  12.571  0.2195  0.0536  0.2051
20097W        W35228   5.442   4.456  14.162 -0.4056  0.0769 -0.2063
20098W        W35229  13.673   5.128  12.595 -0.2522 -0.0835 -0.0301
20099W        W35230   4.240   4.354   2.649  0.1386 -0.3319  0.0782
20100W        W35231   1.085   8.876   1.783  0.2925  0.0783  0.0613
20101W        W35232  17.396   1.232  11.030 -0.1301  0.2037 -0.2880
20102W        W35233   9.204  16.920  14.881 -0.0715 -0.0368 -0.0554
20103W        W35234  17.082   7.739  12.205  0.1934  0.1813  0.0557
20104W        W35235  17.457   5.595  11.173 -0.0784 -0.1184  0.0802
20105W        W35236   3.247  13.601   1.425  0.0596  0.2095 -0.1430
20106W        W35237  15.710   5.163   0.288  0.2883 -0.1094  0.1827
20107W        W35238  12.033   4.260  13.155  0.2855  0.1994 -0.1698
20108W        W35239   7.559   3.327  13.143 -0.0500 -0.0853 -0.4218
20109W        W35240   7.895  17.411  10.438 -0.1430 -0.0385  0.0039
20110W        W35241  12.878   8.750   2.938  0.2232 -0.0356 -0.2598
20111W        W35242  17.637   6.372  13.309 -0.1022 -0.1366  0.2414
20112W        W35243   0.430   4.579   3.972  0.1211 -0.0495 -0.1380
20113W        W35244  13.869  17.297   1.277  0.1826 -0.0472  0.0233
20114W        W35245   2.668   8.568   3.129 -0.2653  0.2333  0.0258
20115W        W35246  14.331   2.878   3.495 -0.1054 -0.2233  0.3343
20116W        W35247   2.484  15.693   0.286 -0.0125  0.2778  0.1880
20117W        W35248  13.743   6.765  15.641 -0.0877  0.0045  0.1539
20118W        W35249   3.920   3.333  15.636  0.2249 -0.1172  0.1913
20119W        W35250  15.861   7.061   1.019 -0.4201  0.2438 -0.2343
20120W        W35251  17.317  17.704   0.424 -0.1516 -0.0277  0.1676
20121W        W35252   9.658   0.097   2.758 -0.0965  0.1541 -0.1919
20122W        W35253   5.880  16.689   4.311  0.3252 -0.0245 -0.2323
20123W        W35254  16.863  17.673  13.331  0.0841 -0.2436 -0.2126
20124W        W35255   8.343  12.034  11.615 -0.1048 -0.1682  0.3088
20125W        W35256   7.006   9.609  15.641  0.0376 -0.2335  0.1647
20126W        W35257   4.891   0.205   0.102 -0.0533  0.4954  0.0570
20127W        W35258   4.166  16.030  11.457  0.0555 -0.0298 -0.0307
20128W        W35259   9.050  10.796   3.271 -0.1776 -0.0808  0.3901
20129W        W35260   4.992  16.054  14.592 -0.0938 -0.0233  0.0128
20130W        W35261   1.717   6.711  11.600 -0.2003 -0.1688  0.2950
20131W        W35262  16.441  10.571  11.264 -0.3705  0.0470 -0.1136
20132W        W35263   0.571   2.467  15.962  0.0954  0.3525  0.0653
20133W        W35264   8.916  15.027   1.487  0.0954  0.0153  0.1560
20134W        W35265  11.770   6.125   4.669  0.2374 -0.0166 -0.1523
20135W        W35266  10.028   9.197  15.837  0.4236 -0.2401 -0.0556
20136W        W35267   1.431   8.771   2.136 -0.0870 -0.0423  0.0897
20137W        W35268   7.359   2.389  11.878  0.2356  0.0741  0.0209
20138W        W35269   3.990   3.083   4.227  0.1135  0.0000 -0.0155
20139W        W35270   6.955  11.562  13.854  0.3024 -0.0596 -0.1244
20140W        W35271   8.419   5.922   2.659 -0.0554 -0.1890 -0.0133
20141W        W35272  18.206  11.492   4.530 -0.3192 -0.1105  0.2289
20142W        W35273   4.644  14.942   3.846  0.0439  0.0989 -0.2953
20143W        W35274   7.158  17.287  11.893 -0.1157 -0.0120  0.1585
20144W        W35275   2.343  13.876   4.939 -0.0339 -0.0269  0.1992
20145W        W35276   3.609  13.455  12.731  0.2415  0.1201  0.0651
20146W        W35277  16.672  14.231  14.582  0.1071  0.1052 -0.2671
20147W        W35278   6.770   1.228   4.286  0.3989 -0.0967 -0.0261
20148W        W35279   3.541  11.084   1.994  0.0024  0.2162  0.3918
20149W        W35280   5.437  16.100  14.325  0.0265  0.2799 -0.4420
20150W        W35281   9.176  17.601   2.717 -0.1905  0.2720 -0.1500
20151W        W35282   8.716   1.287  15.586 -0.0624 -0.0282 -0.0320
20152W        W35283   4.255  17.698  14.148  0.2930 -0.2083  0.0934
20153W        W35284   0.780   1.652   3.908 -0.0238 -0.0833  0.0045
20154W        W35285  10.817   0.369  10.855  0.0446 -0.1526  0.3662
20155W        W35286   3.235   6.725  15.429  0.0393 -0.3076  0.0081
20156W        W35287  13.889  16.075   3.722  0.3880 -0.1763 -0.3480
20157W        W35288  18.057   0.640  11.420  0.1927  0.1186 -0.1259
20158W        W35289  11.277  13.140  15.165 -0.2279  0.3022  0.1700
20159W        W35290  13.014  17.586   2.232 -0.0128 -0.0204 -0.4696
20160W        W35291  11.009   1.875  10.546  0.3022 -0.0022  0.1291
20161W        W35292  17.589   3.565   4.884 -0.1438 -0.3854 -0.0657
20162W        W35293  16.076  13.981  11.116  0.4845 -0.2663  0.1790
20163W        W35294  14.340   0.174   3.891 -0.1546 -0.0390 -0.1009
20164W        W35295   8.205   5.495  10.883  0.0108  0.0695  0.4294
20165W        W35296  12.499   0.551  15.422  0.2265 -0.1069 -0.0637
20166W        W35297   0.121  10.629  12.200 -0.6322 -0.1737  0.1010
20167W        W35298  18.280   5.052   4.705  0.0259  0.1983  0.0744
20168W        W35299   5.793  12.828   3.364 -0.1416 -0.2273  0.0084
20169W        W35300   6.330   6.450  13.949  0.0966  0.0368 -0.0786
20170W        W35301  13.488  17.115  12.789  0.3092  0.1027  0.2383
20171W        W35302   7.911  10.893   2.160  0.0895 -0.0786  0.2028
20172W        W35303   4.866   1.730   4.664  0.0819 -0.0349 -0.0144
20173W        W35304   1.084   4.441  15.066  0.1576 -0.1520 -0.2062
20174W        W35305   1.027   2.824   0.567 -0.0775  0.4061 -0.3964
20175W        W35306  17.496  10.452   0.681  0.0984 -0.0965 -0.1053
20176W        W35307   9.878  12.832   0.233 -0.1559 -0.0584 -0.1198
20177W        W35308   2.063   3.718   1.537 -0.1650 -0.2202 -0.0632
20178W        W35309   7.339  16.662  15.929 -0.0900  0.1549 -0.3043
20179W        W35310  11.571   6.690   3.963 -0.3019 -0.4426 -0.1428
20180W        W35311  13.521  10.981   4.564 -0.0123 -0.3305  0.1034
20181W        W35312  17.957   5.059   2.644 -0.2059 -0.1550  0.1186
20182W        W35313  11.095   7.757  11.934  0.0521 -0.0024  0.0244
20183W        W35314   5.079  11.237  12.354 -0.1179  0.0072 -0.1108
20184W        W35315   2.910  15.702  13.438  0.1371  0.2911  0.5557
20185W        W35316   2.903   3.937  14.664  0.1103 -0.3124  0.1846
20186W        W35317  12.332   9.832   1.638 -0.3285  0.1875  0.1903
20187W        W35318   5.335  17.484   3.757 -0.1644 -0.0902  0.1040
20188W        W35319   9.823  11.919  11.026 -0.0440  0.0437 -0.0195
20189W        W35320   4.281   1.191  12.971 -0.0683 -0.0391 -0.0927
20190W        W35321   5.505  15.860  11.270 -0.0305 -0.0695  0.2688
20191W        W35322  15.510  17.250   3.324 -0.1207  0.0434 -0.1916
20192W        W35323   4.145  14.403  11.494 -0.0199 -0.1983  0.0667
20193W        W35324  11.214  15.354   3.959 -0.4689 -0.0471  0.2855
20194W        W35325   8.239   8.964   1.412 -0.0970  0.0513 -0.1181
20195W        W35326   3.812  13.663   3.064 -0.1401 -0.3615  0.3242
20196W        W35327   0.920   3.125  13.626  0.2718  0.0382 -0.1981
20197W        W35328   1.396  11.620   3.148 -0.3703  0.2043  0.1195
20198W        W35329   3.648   2.767   1.437  0.3312  0.0777  0.2126
20199W        W35330   1.309   0.938  15.846  0.1649 -0.0388 -0.2149
20200W        W35331  18.211   8.963   4.710 -0.2923 -0.0129  0.0762
20201W        W35332  14.938   7.562   4.535  0.2165 -0.1043 -0.0610
20202W        W35333   1.634  17.515   3.212 -0.1911 -0.0693 -0.3271
20203W        W35334  14.622   7.480   1.300  0.3632  0.0532  0.0996
20204W        W35335   7.209  12.991   1.573 -0.3834  0.2624  0.0907
20205W        W35336  14.747  11.806  13.936 -0.0405 -0.0393 -0.1184
20206W        W35337  16.106   2.431   3.569  0.0520 -0.0402 -0.2726
20207W        W35338  17.115   3.956   0.503  0.0569  0.0480 -0.0060
20208W        W35339  14.302  17.676   2.533  0.1344  0.2069 -0.2481
20209W        W35340  17.633  16.208   3.251 -0.0911  0.4133 -0.0417
20210W        W35341  16.403  17.540   2.887 -0.0563 -0.1222  0.0451
20211W        W35342   6.620   6.089  12.168 -0.1122 -0.2766 -0.1402
20212W        W35343   7.567   9.450   0.938 -0.0056 -0.1015 -0.0672
20213W        W35344  14.231   7.120   0.947  0.0320 -0.1672  0.0790
20214W        W35345   7.847   4.328   5.295  0.0620 -0.2033 -0.1230
20215W        W35346   7.240   2.594  12.569 -0.1069  0.0663  0.0139
20216W        W35347   9.769  17.173   5.109 -0.1602  0.0518 -0.1407
20217W        W35348   2.259  17.607   5.916 -0.0599  0.4071 -0.2627
20218W        W35349  15.056  10.550   1.110 -0.3490 -0.0200  0.2266
20219W        W35350  12.789   9.496  14.481  0.1359  0.0846  0.1208
20220W        W35351   9.257   3.146  12.482  0.3986 -0.1647 -0.2059
20221W        W35352   7.887  12.399   2.503 -0.0526  0.1888 -0.2029
20222W        W35353  15.334   7.037  12.464 -0.3905 -0.0502 -0.1034
20223W        W35354   8.941  15.876   5.190  0.0587 -0.0427 -0.0084
20224W        W35355   9.839   0.699   5.012 -0.3249 -0.0796 -0.0802
20225W        W35356   9.082  11.612   0.496  0.0865 -0.1787 -0.2475
20226W        W35357   3.568   5.636  12.349  0.0280  0.0450 -0.0248
20227W        W35358   9.355   5.422  11.129  0.1907 -0.1033 -0.4070
20228W        W35359   2.528  17.585  14.841  0.3502 -0.0561 -0.1131
20229W        W35360   7.178  17.802   5.008  0.4246 -0.0949 -0.0483
20230W        W35361  17.020   7.870   2.682  0.0237  0.4120 -0.0438
20231W        W35362  14.844  10.757   3.555 -0.1414 -0.1663  0.0456
20232W        W35363  15.160   9.630  15.083 -0.0993 -0.0625  0.4217
20233W        W35364  13.142   3.740   1.305  0.1549  0.0068  0.1919
20234W        W35365   0.805  12.380   2.773  0.2346  0.3498 -0.4766
20235W        W35366   9.647  13.271  10.520  0.4277  0.1353  0.1843
20236W        W35367  15.152   8.781  10.930  0.2723 -0.1577 -0.0645
20237W        W35368  11.156  15.941   1.468  0.1272 -0.1061  0.1795
20238W        W35369   8.388   6.935  12.148 -0.0575  0.3622  0.1177
20239W        W35370   0.640   2.172   1.865 -0.0774 -0.0989 -0.1958
20240W        W35371   0.831   6.695  14.094 -0.0481 -0.0024 -0.2526
20241W        W35372  13.426  18.229  13.894  0.0624 -0.1901  0.0457
20242W        W35373   0.849   1.127   4.401 -0.2197  0.1979 -0.0869
20243W        W35374  16.614   8.909  12.862  0.1212 -0.2073  0.1343
20244W        W35375  18.208   1.600   1.651 -0.1179  0.0311 -0.1966
20245W        W35376  14.169  13.231   3.870  0.1650 -0.1238  0.0264
20246W        W35377  11.261   5.891   1.387  0.1770 -0.0689 -0.1246
20247W        W35378   9.172   1.668   4.467  0.0684  0.2490 -0.2842
20248W        W35379   5.831   1.224   4.086  0.0279  0.1857  0.1786
20249W        W35380   3.943  18.179   3.020  0.3714 -0.0303 -0.2298
20250W        W35381  17.567  14.262   2.582  0.0723 -0.2158  0.1657
20251W        W35382   1.310  10.882   1.609 -0.0309  0.1186 -0.0679
20252W        W35383   2.971   6.442  11.700  0.0473 -0.0236 -0.1085
20253W        W35384  16.459   3.751   0.284 -0.1270 -0.0559  0.1283
20254W        W35385   2.970   5.937   0.287 -0.0100 -0.0332  0.3130
20255W        W35386   4.286  12.228  13.391 -0.1452 -0.0031  0.0354
20256W        W35387   1.274   2.960  14.772  0.0016  0.2320 -0.3135
20257W        W35388   9.697  15.838   1.623 -0.2491  0.2401  0.2157
20258W        W35389  17.606  12.223  14.090 -0.1263  0.1090  0.1742
20259W        W35390   3.641   7.754  11.736  0.0201  0.2757 -0.6793
20260W        W35391   6.329   8.076  14.450 -0.2743 -0.0477  0.3181
20261W        W35392  12.165   0.604  12.805  0.0710  0.2559  0.2995
20262W        W35393  15.870   2.445   2.789 -0.1813 -0.3169 -0.0644
20263W        W35394  14.564   2.984  15.989  0.1384 -0.1835  0.1032
20264W        W35395   9.051  14.797  14.231  0.0913  0.0632 -0.3086
20265W        W35396   0.505  17.539   2.374  0.1605 -0.0369 -0.0849
20266W        W35397  12.450   0.747  10.889  0.1796 -0.2440  0.0703
20267W        W35398   9.449  14.367  15.500  0.0608  0.0272 -0.1014
20268W        W35399   2.199   4.225  11.445 -0.0715 -0.2042  0.2999
20269W        W35400   8.475  17.725   0.071  0.0548  0.3427  0.0081
20270W        W35401   5.092   9.118   2.759 -0.1632  0.3046  0.4853
20271W        W35402  13.195  14.169  11.831  0.4587 -0.2396  0.0179
20272W        W35403   5.300   3.490  11.904  0.2442  0.2390 -0.3063
20273W        W35404  14.087  16.771   2.534 -0.0917 -0.2259  0.4393
20274W        W35405  13.583  13.210  12.742 -0.0291  0.0122 -0.2210
20275W        W35406  17.128  12.596  11.248  0.8276 -0.3134  0.0585
20276W        W35407  15.964   1.780   0.216  0.0729 -0.1695  0.0468
20277W        W35408  11.102   3.915   4.641  0.0987  0.0284  0.1149
20278W        W35409   2.184  12.747   3.291 -0.1311  0.1547  0.0024
20279W        W35410  16.359  10.944   2.910  0.0112 -0.3819  0.0426
20280W        W35411  12.518   1.891   0.434  0.1626 -0.1227  0.0368
20281W        W35412  11.397   1.917  11.280  0.0244  0.0249 -0.2728
20282W        W35413   1.250   6.240  13.663 -0.3799  0.1736  0.2221
20283W        W35414   8.528  14.005   1.272  0.0719  0.0948 -0.0939
20284W        W35415  13.204  17.178   3.454  0.2428 -0.0899 -0.0391
20285W        W35416  11.926   8.706   0.576 -0.0818 -0.1707 -0.1577
20286W        W35417  10.850  11.600  14.463  0.1298  0.0339 -0.0486
20287W        W35418   2.006   4.470  14.035  0.2301 -0.1387  0.2485
20288W        W35419  13.934   3.998  13.953 -0.3084  0.0782  0.1111
20289W        W35420  16.249  14.816   1.562 -0.4290 -0.1887  0.1536
20290W        W35421  12.777   2.387   3.043  0.1871 -0.1327 -0.2693
20291W        W35422  15.237   7.917   2.575  0.3674  0.2182  0.1512
20292W        W35423  12.024  18.040   4.520  0.1238 -0.4950 -0.1497
20293W        W35424   8.241   7.909   5.397  0.1380  0.1423  0.1316
20294W        W35425   2.735   3.318  14.103 -0.2453  0.3325 -0.1122
20295W        W35426  16.380   2.837  11.924 -0.4166 -0.2661 -0.0069
20296W        W35427  11.738   7.825  14.328  0.3818  0.4639  0.2523
20297W        W35428  15.164   3.714   4.798 -0.0497  0.2822  0.1855
20298W        W35429   3.091   4.940   2.307 -0.1072 -0.0720  0.1472
20299W        W35430  12.309   4.025  14.210  0.0391  0.0421  0.1948
20300W        W35431   7.777  15.903  13.930 -0.0280  0.0885 -0.2629
20301W        W35432   4.386  13.693  14.128 -0.2011  0.2176  0.1038
20302W        W35433   5.703   1.452  11.655 -0.0878 -0.0273  0.0157
20303W        W35434  16.342  16.285   0.256 -0.1691  0.0848  0.1244
20304W        W35435   7.967  15.616  14.386 -0.2103 -0.1891  0.0224
20305W        W35436  16.589   3.826   1.870  0.0988  0.1363 -0.1385
20306W        W35437   2.274  13.510  12.481 -0.4688 -0.0298  0.0281
20307W        W35438   0.747   2.514   4.071 -0.0040 -0.2813 -0.0675
20308W        W35439  14.399  13.063  11.073  0.0028  0.2055  0.1222
20309W        W35440   0.036  13.879  11.291  0.0175  0.2091 -0.2576
20310W        W35441   3.484   0.571   2.972  0.1773  0.2224 -0.2382
20311W        W35442  13.566   1.521   5.281  0.2767  0.1714  0.1804
20312W        W35443   2.624  18.362   3.756  0.2166 -0.1535  0.0451
20313W        W35444   6.446   7.385  12.892  0.3131 -0.2285 -0.1586
20314W        W35445   2.691   8.033  15.850  0.1219 -0.3680 -0.0278
20315W        W35446  13.035  17.380   5.323 -0.1251 -0.1480 -0.2060
20316W        W35447  13.331  17.331  13.772 -0.1891 -0.0030  0.1802
20317W        W35448  10.150  17.948   1.002 -0.3104 -0.1032 -0.0724
20318W        W35449   2.889   6.373   2.720  0.1323 -0.0145 -0.1008
20319W        W35450   0.458  10.052   0.929  0.1839  0.1724  0.0519
20320W        W35451  13.041  15.383  15.950 -0.0267  0.0691 -0.0306
20321W        W35452   1.828   3.335  14.982  0.1463  0.1952 -0.0101
20322W        W35453  10.105   2.656  11.227 -0.1139  0.1039 -0.2110
20323W        W35454  11.812  16.440   5.105  0.3539 -0.0720  0.0872
20324W        W35455  13.730   9.022  14.072 -0.0067  0.4921  0.1846
20325W        W35456   8.010   3.337   5.413  0.1659  0.0392 -0.1975
20326W        W35457   0.081   9.329   2.527 -0.2473  0.0887  0.0051
20327W        W35458   3.329  12.181  13.956  0.0770 -0.2427  0.1739
20328W        W35459   5.072  15.106   2.148 -0.1928 -0.0972 -0.0457
20329W        W35460   6.726   5.476   0.791 -0.0416 -0.0048  0.2183
20330W        W35461   9.770  10.698  12.012 -0.1532  0.1343 -0.0609
20331W        W35462   9.158   6.012  11.949  0.1383  0.3269  0.1060
20332W        W35463  16.911   6.878   5.409  0.0446 -0.1123 -0.3341
20333W        W35464  17.821  15.140  13.041  0.1184  0.2075  0.3450
20334W        W35465   4.022  12.718  11.863  0.0374 -0.1008  0.4725
20335W        W35466   4.861  18.180   4.259 -0.0121 -0.0830 -0.1060
20336W        W35467   6.909   4.057   0.220  0.2003  0.1897  0.1036
20337W        W35468  13.190   8.353  12.057  0.0307 -0.0029 -0.2173
20338W        W35469   1.654  16.995   3.263  0.0106  0.4171  0.1038
20339W        W35470   1.312  10.780  14.373  0.2674 -0.0978 -0.0453
20340W        W35471   1.531   1.095   3.749  0.3069 -0.3306  0.0713
20341W        W35472   7.533   4.447   4.385 -0.1038 -0.0628 -0.2547
20342W        W35473   1.512   8.505   5.061 -0.0511 -0.0503 -0.0408
20343W        W35474   4.114   3.964   1.215 -0.0271 -0.1098 -0.0122
20344W        W35475  17.036  13.501  11.463 -0.1163  0.1773 -0.2582
20345W        W35476  11.969  12.115   3.838  0.3537  0.0684  0.1243
20346W        W35477  11.144  11.653   3.885  0.3898 -0.3509  0.0561
20347W        W35478   1.365   0.594  13.967 -0.0595 -0.0922  0.0949
20348W        W35479   4.229   9.645  14.085 -0.2515  0.3002  0.1493
20349W        W35480  16.180   5.467   0.188 -0.1475  0.0373 -0.3018
20350W        W35481   3.212   3.845   4.850  0.0953  0.0281 -0.1369
20351W        W35482   6.063  15.069   2.429 -0.1878 -0.1394  0.2363
20352W        W35483   3.386  14.326   2.765 -0.0208  0.0083  0.1147
20353W        W35484   4.666   8.934  13.031 -0.0370 -0.2481  0.0515
20354W        W35485  17.389   8.551   2.350 -0.4664  0.3070 -0.1675
20355W        W35486   4.034  12.466  11.348  0.2576 -0.2193 -0.0296
20356W        W35487   3.575   2.396  14.818  0.1706 -0.3193  0.0790
20357W        W35488   6.978   2.245   4.938 -0.0618  0.2393 -0.0111
20358W        W35489  13.910   2.824   3.219 -0.0994 -0.3231  0.0415
20359W        W35490   5.741  17.950  15.062 -0.0330  0.0071 -0.3062
20360W        W35491   4.617  14.832   3.357  0.2151  0.0219 -0.0479
20361W        W35492  12.035   0.849   4.317 -0.1804  0.1061  0.0503
20362W        W35493   8.721  13.510   3.333 -0.1409 -0.4211 -0.3456
20363W        W35494  12.017  17.823   2.239 -0.3678  0.1616 -0.1302
20364W        W35495   7.598   6.312  15.968 -0.0728 -0.1053 -0.3198
20365W        W35496   7.225   7.385   0.527 -0.0671 -0.0812  0.1090
20366W        W35497   7.557   0.071   3.024 -0.4690 -0.3455 -0.1196
20367W        W35498   6.146  13.351   3.943 -0.1244 -0.0741 -0.1300
20368W        W35499   9.736   9.413   4.201  0.1119  0.1551  0.0605
20369W        W35500  12.072  16.864   0.899  0.2151  0.0789  0.1720
20370W        W35501  16.079   7.515  10.771 -0.0734  0.0582 -0.0261
20371W        W35502   8.720   5.582  15.623  0.3100 -0.0128 -0.1091
20372W        W35503  10.571   7.661  13.358 -0.3623 -0.0474  0.3076
20373W        W35504   9.894   9.334   5.218 -0.0251  0.1728 -0.0770
20374W        W35505   1.011  11.397   4.580 -0.1965 -0.0884  0.0052
20375W        W35506   6.157   9.109   3.179 -0.0557  0.0593  0.3034
20376W        W35507   6.975   2.149  14.934 -0.1841 -0.0449 -0.4492
20377W        W35508  10.572   7.036  15.400  0.0804  0.1409  0.1031
20378W        W35509   8.379   3.186  11.364 -0.0303  0.0607  0.1456
20379W        W35510   8.435  13.489   1.172 -0.1806  0.1590  0.0698
20380W        W35511  12.120  14.031   0.233 -0.1089 -0.3585  0.1442
20381W        W35512  15.026   4.740  13.638 -0.1264 -0.2446 -0.3101
20382W        W35513  10.844  15.663   4.840 -0.0357 -0.0232  0.2787
20383W        W35514  14.480   9.741  14.608 -0.0807 -0.1220 -0.1826
20384W        W35515  11.326   8.197  11.807  0.3279 -0.0521 -0.0017
20385W        W35516  10.813  18.051  11.315 -0.1936  0.0531 -0.0076
20386W        W35517  12.397   4.453   3.494 -0.1327  0.0848  0.2916
20387W        W35518  11.953   4.979  13.784  0.1813  0.0478  0.0770
20388W        W35519  12.071  18.179   1.021  0.2920 -0.2056 -0.1212
20389W        W35520   7.098   0.782  15.334 -0.0062  0.1389  0.0211
20390W        W35521   3.327   1.557  13.416 -0.4122 -0.0631  0.3710
20391W        W35522   4.093  13.002  14.937  0.2629  0.3326 -0.0254
20392W        W35523   6.019  11.818  14.721  0.0597 -0.0425 -0.1062
20393W        W35524  11.586  10.605   1.836 -0.1334 -0.0627 -0.1893
20394W        W35525  14.776   1.076   2.646  0.1968  0.2474  0.1560
20395W        W35526   5.653   0.154   2.134  0.1978 -0.3313 -0.1315
20396W        W35527   7.230  13.155   9.869  0.0570 -0.4105  0.0727
20397W        W35528   6.246  18.292  15.737  0.1199  0.3355  0.1129
20398W        W35529   4.389  16.403  10.013 -0.2500  0.0278  0.2722
20399W        W35530  16.211   5.739  14.252  0.1149 -0.1722  0.0653
20400W        W35531  15.429   5.151   2.296  0.2844  0.2626 -0.0222
20401W        W35532  17.475   0.495  12.263  0.0724  0.0076  0.3115
20402W        W35533  16.199   1.413  10.551  0.0213 -0.0700 -0.2525
20403W        W35534   7.370   6.346  13.687  0.1132 -0.0985 -0.1426
20404W        W35535  16.684   5.862   3.989 -0.0151  0.1046  0.1355
20405W        W35536   6.892   0.556  14.950  0.2128  0.1481  0.4390
20406W        W35537  11.038   5.113   0.525  0.0984  0.0347  0.0461
20407W        W35538  18.303  13.954   0.599 -0.0051  0.0057  0.3546
20408W        W35539  15.004  15.438  14.389  0.0716 -0.0910 -0.0765
20409W        W35540  14.925  17.388   4.046 -0.1934  0.0545  0.3622
20410W        W35541  16.893   5.615   1.500  0.1735  0.2642 -0.1501
20411W        W35542  17.985   0.404   4.221 -0.1350 -0.1207 -0.0275
20412W        W35543   1.915   7.677  16.081 -0.2329 -0.0306 -0.0383
20413W        W35544   3.175   3.577   4.474  0.0485 -0.2588  0.0940
20414W        W35545  15.750  16.746  10.910  0.1959 -0.1165 -0.1635
20415W        W35546  14.207  18.158   1.979 -0.2330 -0.1307 -0.3047
20416W        W35547   4.103   7.961  10.266 -0.2972  0.2684 -0.4409
20417W        W35548  11.475   3.936  15.977  0.1669 -0.2754  0.1657
20418W        W35549   8.330   3.204   1.112  0.1828  0.3358  0.0350
20419W        W35550  16.083   1.834  14.791  0.1095  0.4168  0.2789
20420W        W35551  11.671  13.237   9.906  0.0424 -0.0502 -0.1218
20421W        W35552   5.644  12.314  15.779 -0.2749 -0.0924 -0.4202
20422W        W35553  15.241   8.623   4.949 -0.0154 -0.1080 -0.1767
20423W        W35554  12.591   9.555  13.534  0.2680 -0.2233 -0.2693
20424W        W35555   7.395  12.750   5.450  0.0428  0.1557  0.1226
20425W        W35556   6.018   3.081   0.348  0.0810  0.0746  0.0761
20426W        W35557  11.151  16.908  11.684  0.1388 -0.2161 -0.1419
20427W        W35558  14.951   3.648   0.591 -0.0510  0.2735  0.2539
20428W        W35559   3.717   4.186  12.053 -0.2338  0.0400 -0.2574
20429W        W35560  13.092   6.630   2.902 -0.2925  0.0357 -0.5132
20430W        W35561   5.289   5.758  13.091 -0.3648 -0.0757  0.1355
20431W        W35562  11.904  17.360  10.007  0.1956 -0.0651  0.1963
20432W        W35563   0.198   7.517  10.494 -0.0608 -0.0623  0.0381
20433W        W35564  11.825  11.404  13.964  0.0137 -0.0274  0.2227
20434W        W35565   1.716   3.568  14.018  0.0868  0.0759 -0.0554
20435W        W35566   7.995   4.092  13.146  0.0536  0.2356 -0.3282
20436W        W35567   0.098  16.975   3.358 -0.1412  0.0210 -0.2768
20437W        W35568   1.577  16.067  13.967  0.1673  0.0303  0.1907
20438W        W35569   4.577   9.858   1.258  0.1912  0.2074  0.0445
20439W        W35570   1.588  16.291   2.429  0.2372 -0.2648 -0.4388
20440W        W35571  12.462   5.584  11.904  0.1918  0.0449 -0.1040
20441W        W35572  17.278  13.350   2.642  0.0641  0.0933 -0.0196
20442W        W35573   9.002  16.189   0.962  0.0607  0.0910  0.0056
20443W        W35574  12.844   0.975  15.685  0.1461  0.0776  0.2812
20444W        W35575   0.264   4.911  11.424 -0.2007  0.5411 -0.0136
20445W        W35576   1.465   1.876   3.841 -0.0820  0.1368 -0.0870
20446W        W35577   2.004  10.051   3.526  0.0627 -0.3586 -0.1736
20447W        W35578  14.854   1.354   4.094 -0.0296  0.2174 -0.0980
20448W        W35579  17.053   5.674   4.732  0.0684  0.3415  0.0739
20449W        W35580  17.253  15.526  12.014 -0.1026 -0.0921  0.2088
20450W        W35581   9.721   4.066   2.508  0.1280  0.1096  0.1016
20451W        W35582   3.603  11.401  12.297 -0.1016  0.2264 -0.1068
20452W        W35583   2.248   5.067  14.847  0.0929 -0.3511 -0.0257
20453W        W35584   5.230   5.953   4.333 -0.0630  0.0810 -0.1163
20454W        W35585  13.456  10.739   5.175  0.1378 -0.2233 -0.0519
20455W        W35586   4.941  11.419   2.439 -0.1195  0.1310  0.0159
20456W        W35587  15.465   3.577  15.397  0.3468 -0.2319  0.0184
20457W        W35588  11.412   7.270  12.864 -0.0756  0.0332  0.0253
20458W        W35589  13.297  16.449   3.576  0.1299 -0.2845  0.0705
20459W        W35590   9.513   6.082  12.442 -0.0422  0.0423 -0.0795
20460W        W35591   4.725  17.103  12.362 -0.0012  0.2347 -0.1229
20461W        W35592   5.447   1.260   4.348  0.2131 -0.0826  0.0704
20462W        W35593   5.174   3.339  14.608 -0.1148  0.0174 -0.1934
20463W        W35594  14.363  13.672   5.428 -0.1888 -0.0639  0.1114
20464W        W35595  15.072   1.158  12.406  0.1754  0.2011 -0.0180
20465W        W35596  13.078   8.590  14.975  0.1483  0.1218 -0.1975
20466W        W35597  12.671  13.350  12.384  0.1615  0.1928  0.1354
20467W        W35598   2.212   5.303   3.961  0.0129  0.1909  0.0429
20468W        W35599   8.771  11.522   4.927 -0.0126 -0.0577  0.0055
20469W        W35600  11.980  13.453   1.986  0.0251 -0.1918  0.2613
20470W        W35601   3.429  18.005  13.877  0.1848  0.2138 -0.0939
20471W        W35602  15.861   4.242   3.310  0.0213 -0.2153  0.2023
20472W        W35603   1.041   6.904  14.549 -0.1256  0.1459 -0.3085
20473W        W35604   6.112   3.660   4.282  0.1095  0.1563 -0.1687
20474W        W35605  16.062  15.320  14.618 -0.2607  0.0232  0.0743
20475W        W35606  18.366  10.210   3.480  0.5653 -0.0325 -0.0894
20476W        W35607  10.927   3.533  11.190 -0.1967 -0.0847  0.2442
20477W        W35608  14.878  12.024   0.835  0.2138 -0.0504 -0.3113
20478W        W35609   6.004  17.284  15.038  0.1600 -0.0552  0.0822
20479W        W35610  16.970   4.527   1.589 -0.1091  0.0470  0.0627
20480W        W35611   1.360   0.394   0.879  0.0978 -0.0296 -0.0561
20481W        W35612   2.170  10.427   3.228  0.1650  0.0301  0.0472
20482W        W35613   3.440   8.354   4.775  0.1204  0.0587 -0.0005
20483W        W35614  12.315   0.306   1.834 -0.0875  0.1408 -0.0243
20484W        W35615   4.165   1.642  15.004  0.1226  0.2454  0.3070
20485W        W35616   2.914  12.855  15.513 -0.1124  0.2361 -0.0527
20486W        W35617  10.135   0.841  13.965 -0.1039  0.0669  0.2474
20487W        W35618   2.687  10.456  15.479 -0.0074  0.1592 -0.0927
20488W        W35619   4.586   0.312  10.897 -0.0052 -0.2718 -0.0111
20489W        W35620  14.574  16.437   0.973 -0.3009 -0.0720 -0.1457
20490W        W35621   3.357  17.374   4.930 -0.0000  0.0844 -0.2342
20491W        W35622  10.101  13.400  14.504  0.2382 -0.0408 -0.5329
20492W        W35623  12.272   7.815   1.600  0.0084 -0.2083 -0.4193
20493W        W35624  12.780   0.542   1.793  0.1171  0.1527 -0.0261
20494W        W35625  16.909   4.074  13.164 -0.1573 -0.2163  0.1059
20495W        W35626   9.251  16.724  13.296 -0.0763  0.3282  0.0252
20496W        W35627  12.200   5.722   4.413 -0.0106 -0.2690  0.1892
20497W        W35628  14.582   6.665  12.999 -0.2454  0.0009 -0.0512
20498W        W35629   8.157   1.655   0.799 -0.1935 -0.1051 -0.0531
20499W        W35630   4.973  11.392   0.372 -0.0815  0.0402  0.1732
20500W        W35631   1.317   0.483  16.044 -0.1108 -0.2016  0.1630
20501W        W35632  10.243  16.400  13.942 -0.0598 -0.1665 -0.4690
20502W        W35633  17.132  10.840  15.369 -0.1471  0.0099  0.2675
20503W        W35634  15.300  15.530  13.538  0.1273 -0.1897 -0.1363
20504W        W35635  12.953  14.571  11.607 -0.0580 -0.0378  0.1583
20505W        W35636   2.075   6.822   0.999  0.3389 -0.0714  0.1478
20506W        W35637   3.479   1.494  14.854  0.0281 -0.0615 -0.2692
20507W        W35638   5.585   0.166   5.184 -0.0793 -0.0532  0.0575
20508W        W35639   2.112   9.677   9.870 -0.1960  0.0352 -0.0981
20509W        W35640  11.947   1.123  16.058 -0.3164  0.3096  0.1774
20510W        W35641   3.280   4.076  15.008 -0.1787  0.0162  0.1654
20511W        W35642  16.238   4.216   2.027 -0.2751  0.2326  0.0913
20512W        W35643  14.638  14.775   0.255 -0.2266  0.1008 -0.3298
20513W        W35644   8.798  12.651  16.061  0.1258  0.0942 -0.2335
20514W        W35645   6.289  13.597   0.595 -0.0730 -0.1688 -0.2975
20515W        W35646  18.045   8.787  12.021  0.0460  0.0181 -0.0360
20516W        W35647  10.268   7.687   4.278 -0.3390 -0.0519  0.2472
20517W        W35648   5.252  16.847  13.886  0.0813 -0.1802 -0.0750
20518W        W35649  15.606  10.685  14.267 -0.1795  0.1553  0.0216
20519W        W35650  10.078  15.435   4.655  0.4202  0.1197  0.0352
20520W        W35651  16.501  16.462   0.984 -0.1831 -0.1975  0.0053
20521W        W35652  13.667   5.488   0.065 -0.2146 -0.2955 -0.1236
20522W        W35653  13.398  12.774  10.708  0.1623 -0.0438  0.1051
20523W        W35654  15.795   8.610  13.584 -0.1503 -0.1630  0.5518
20524W        W35655  16.906   9.408  15.851 -0.0949 -0.1291 -0.2877
20525W        W35656  11.875   4.387   5.221 -0.0296 -0.0894 -0.2148
20526W        W35657  17.412  17.667  10.486  0.3894  0.1695 -0.3141
20527W        W35658  10.180  13.071   2.461 -0.3844 -0.0295  0.1649
20528W        W35659  17.757   5.669   4.300  0.3252 -0.0303  0.1012
20529W        W35660   6.577   2.723  11.805  0.0923 -0.2483  0.0953
20530W        W35661  11.961  10.613  11.021  0.3312 -0.0443 -0.1343
20531W        W35662  17.329   6.373   1.131  0.2680 -0.1208  0.5629
20532W        W35663  17.546  11.763  13.935 -0.0305  0.1519  0.0185
20533W        W35664   8.145   8.332   5.975  0.2954 -0.0139 -0.0288
20534W        W35665   4.644   0.549  11.813 -0.1212 -0.0982  0.0683
20535W        W35666   1.902  14.086   5.143 -0.1951 -0.0087 -0.1301
20536W        W35667   9.950   2.902  15.359  0.1273  0.1037 -0.0986
20537W        W35668  12.538  11.020   2.076  0.2113  0.2143  0.0493
20538W        W35669  11.228  11.578   1.308  0.2249  0.0652 -0.0207
20539W        W35670   4.372   3.112   3.786  0.1480  0.1874  0.1211
20540W        W35671   7.404  13.681   0.257 -0.3018 -0.1014  0.2456
20541W        W35672  11.902  12.222   0.335 -0.0471 -0.1511 -0.2952
20542W        W35673  10.315  15.405   5.541 -0.0145  0.1262 -0.0830
20543W        W35674   0.925  18.176   2.654  0.2349 -0.2051 -0.3350
20544W        W35675  11.802  17.015   1.462  0.3115 -0.2427  0.1211
20545W        W35676   0.432  18.343   1.007 -0.5396 -0.0444  0.0346
20546W        W35677   8.658   6.988   4.822  0.0224  0.0727 -0.1891
20547W        W35678  13.215  10.350   5.085  0.2684 -0.0265 -0.1705
20548W        W35679  17.289  11.399   2.933  0.2774  0.2135  0.1742
20549W        W35680   2.489   2.816  14.197 -0.2825 -0.0759 -0.1844
20550W        W35681   1.755   3.860   0.159  0.0501  0.1336 -0.1808
20551W        W35682  13.974   9.737  15.081  0.1676  0.3137  0.1781
20552W        W35683   8.242  16.701  14.277  0.0228 -0.1710  0.2459
20553W        W35684  14.226  10.695  13.441  0.0311  0.0916 -0.1992
20554W        W35685  10.521   9.677  15.748 -0.2485  0.2571  0.2307
20555W        W35686  11.769  16.154   2.245  0.1604  0.0675 -0.2124
20556W        W35687   8.701  11.822   2.469 -0.0941  0.1214  0.0895
20557W        W35688   0.243  16.178   2.091  0.1300 -0.0863 -0.0304
20558W        W35689   3.327   4.581   3.570  0.2125  0.0436 -0.3086
20559W        W35690  15.227  13.317   2.218  0.0099 -0.2447 -0.0996
20560W        W35691   0.015  17.614  14.634 -0.0772 -0.1902 -0.1278
20561W        W35692  16.128   5.008   2.870  0.0868 -0.1874 -0.1151
20562W        W35693   4.037  14.290   0.337 -0.0309 -0.0042 -0.1694
20563W        W35694  14.898  10.498   4.326 -0.2622 -0.0558  0.1013
20564W        W35695   5.355   4.209   4.914 -0.1168  0.0694  0.0220
20565W        W35696  13.767   4.050   0.758 -0.0279  0.1223  0.0531
20566W        W35697   3.189   0.725   1.750 -0.1988 -0.2111 -0.5251
20567W        W35698  17.259   6.535  13.580 -0.0494  0.0887  0.0090
20568W        W35699  11.467   7.985   5.204 -0.1601 -0.0496  0.2585
20569W        W35700   1.383   5.905  11.762  0.0340  0.1983 -0.0898
20570W        W35701  15.484   0.859  12.631 -0.1939 -0.2902 -0.2329
20571W        W35702   4.486   8.785  10.816  0.0844 -0.2506 -0.1296
20572W        W35703  16.745   0.152  14.140 -0.2530 -0.0244 -0.0405
20573W        W35704   7.638  15.781  12.681 -0.0369 -0.3346 -0.0700
20574W        W35705  10.896  16.891  13.366 -0.2189 -0.1407 -0.1399
20575W        W35706  13.174  14.831   4.843  0.1139  0.0432 -0.2089
20576W        W35707   9.900  14.937  15.902  0.2859  0.2510  0.0427
20577W        W35708   0.247   0.943   5.002  0.0376 -0.1416  0.1861
20578W        W35709  11.928  12.267  13.640  0.1663 -0.0092 -0.1254
20579W        W35710  14.648   9.467  14.180 -0.2362 -0.2800  0.0559
20580W        W35711  18.076  10.664   4.081  0.2046  0.4640  0.0867
20581W        W35712  16.135   4.482   1.240  0.1571  0.1372  0.1780
20582W        W35713  12.794  11.483   1.252  0.1058  0.2720 -0.0738
20583W        W35714  10.961   5.387  13.333  0.0142 -0.0159 -0.0273
20584W        W35715   5.376   8.086  13.480 -0.1124 -0.0680 -0.1272
20585W        W35716   3.340   2.903  13.563 -0.2583  0.1939  0.1128
20586W        W35717  17.361  11.408  15.436 -0.1355 -0.4220  0.1317
20587W        W35718   4.353   9.679   1.636 -0.1116 -0.2247 -0.0323
20588W        W35719   2.266   4.826  15.298  0.1612  0.0350  0.0957
20589W        W35720   7.977  10.601  12.827  0.0826  0.1146  0.0493
20590W        W35721  16.870   6.277  14.865 -0.1183  0.1532  0.3513
20591W        W35722   2.933  16.462   1.851 -0.1600  0.0494 -0.0574
20592W        W35723   8.885   7.244  11.285 -0.0668 -0.0711 -0.0879
20593W        W35724   4.651  13.836   2.011 -0.0225 -0.1092 -0.1040
20594W        W35725  11.808   5.433  10.158  0.1890  0.1026  0.0311
20595W        W35726   7.044   8.693   9.428  0.2004  0.0185 -0.0159
20596W        W35727   8.415  11.420  16.010 -0.0332  0.1811 -0.2138
20597W        W35728  16.938   2.087   1.448 -0.1620 -0.0383  0.2331
20598W        W35729  11.638  16.218  11.240 -0.0690  0.0307  0.2365
20599W        W35730   6.560  10.962   2.178  0.3254  0.0497 -0.1320
20600W        W35731  10.456   1.511   2.422 -0.1426 -0.2141 -0.5398
20601W        W35732   5.157   6.280   4.867 -0.1068 -0.1567  0.1385
20602W        W35733   4.378   5.507  14.117  0.3619  0.1051 -0.1475
20603W        W35734   7.252  17.283   1.074 -0.0993 -0.4350  0.1896
20604W        W35735   4.807  12.857   3.498  0.2838 -0.3032  0.2364
20605W        W35736  13.823  10.693   2.068  0.1068  0.1293  0.1205
20606W        W35737   5.004   6.708   0.448 -0.2716 -0.0681  0.1053
20607W        W35738   7.510  12.190   2.997 -0.0677 -0.2810 -0.2171
20608W        W35739   4.369   3.681  14.901 -0.0953  0.1835 -0.1073
20609W        W35740  16.756   8.132   1.643 -0.0319 -0.2147  0.3372
20610W        W35741  13.947  11.117  11.354 -0.0436  0.1843 -0.2210
20611W        W35742   2.035  17.150  10.027  0.2245 -0.1176  0.2872
20612W        W35743   2.361  14.855  12.959  0.2153  0.2155 -0.1057
20613W        W35744   3.728  14.373  15.106 -0.2051 -0.1979  0.0584
20614W        W35745   5.976   2.353  14.753 -0.1555 -0.3122 -0.1531
20615W        W35746  16.214   8.404   4.648 -0.1622 -0.1356  0.1726
20616W        W35747   1.532   7.676   4.262  0.1038  0.1545  0.2396
20617W        W35748   1.917  13.597  16.041 -0.0560 -0.0876  0.0986
20618W        W35749  16.431  17.605  14.209  0.0979 -0.0115  0.0515
20619W        W35750   0.847  12.096   3.982  0.0038 -0.0639 -0.0209
20620W        W35751  16.505   6.815  10.614 -0.1935  0.3160 -0.2282
20621W        W35752  10.011   4.486  13.349 -0.1013  0.0279  0.1600
20622W        W35753   4.606   2.195   4.811  0.2326 -0.0188 -0.2842
20623W        W35754   8.947   7.708   0.745 -0.2296  0.0652 -0.0622
20624W        W35755   8.939  17.270   1.783  0.1460 -0.4578 -0.1172
20625W        W35756  13.549  10.739  15.781 -0.1768 -0.1539 -0.2370
20626W        W35757  17.879  16.544  12.306  0.0998  0.0308  0.2551
20627W        W35758  12.217   2.865  15.455 -0.2558 -0.0715  0.0163
20628W        W35759  14.052   8.943   2.768  0.0682 -0.0389  0.1541
20629W        W35760   7.697   4.267   0.654  0.1854  0.1191  0.2775
20630W        W35761  11.516   7.722   2.419 -0.1450  0.1888 -0.1596
20631W        W35762  16.538  16.349  11.446 -0.1300 -0.0126  0.2147
20632W        W35763   0.447   9.139  11.900 -0.1303  0.0437 -0.0965
20633W        W35764  11.071   5.694   4.177 -0.0646 -0.1029  0.1285
20634W        W35765  10.361  12.863   0.457  0.2256 -0.0634  0.0388
20635W        W35766   2.019  14.066  10.838  0.2807 -0.1750  0.0132
20636W        W35767  16.598  12.270   0.786  0.2852  0.4332 -0.2502
20637W        W35768   7.340   8.342  14.024 -0.1602  0.2219 -0.1151
20638W        W35769   4.099  15.858  14.541 -0.0534  0.0210  0.1403
20639W        W35770  17.257  14.610   2.333 -0.1257  0.0799  0.0862
20640W        W35771  11.238   7.659  12.608  0.0718 -0.1917  0.1401
20641W        W35772  10.708  12.380   5.189 -0.3055 -0.0237  0.2902
20642W        W35773  15.384   3.237  13.902 -0.0976 -0.0610 -0.1759
20643W        W35774   7.305  16.042   2.989 -0.0485  0.1637 -0.1145
20644W        W35775   4.304   0.629   0.890  0.5616 -0.1163  0.1134
20645W        W35776   7.107   6.939   0.227  0.0651 -0.2947  0.1485
20646W        W35777  15.108  12.230   6.025  0.1274 -0.0884  0.2235
20647W        W35778   0.499  16.704   3.646  0.0931  0.3154 -0.4910
20648W        W35779   6.308  14.484  11.628 -0.1417  0.1337  0.0622
20649W        W35780   7.237   7.240   2.332 -0.1710 -0.0241  0.2543
20650W        W35781   0.940   9.099   2.905 -0.0095 -0.0005  0.2069
20651W        W35782  12.565   4.168  11.787  0.0029 -0.2372 -0.0277
20652W        W35783   1.650  15.395   1.469 -0.1134 -0.0306  0.0269
20653W        W35784  15.330  12.762  13.133  0.0338 -0.2165  0.0467
20654W        W35785   8.332  17.202   2.000  0.1719  0.0669  0.0594
20655W        W35786  11.102  14.861   2.039 -0.2891  0.0065  0.2839
20656W        W35787   1.771   0.849   0.153 -0.2969 -0.2041  0.0782
20657W        W35788   2.487   5.081   0.653  0.2796 -0.1353  0.2216
20658W        W35789  13.241  15.363   1.313 -0.1061 -0.0491 -0.1096
20659W        W35790   5.885   9.867  15.680 -0.4503 -0.1852  0.0532
20660W        W35791   0.420   2.347  14.621 -0.0649 -0.1358 -0.1905
20661W        W35792   5.927  10.938   4.652  0.4551  0.1331  0.2069
20662W        W35793   6.414   2.348  13.540 -0.0069  0.0393 -0.1473
20663W        W35794  12.392   8.173  15.980  0.0247  0.1597  0.2522
20664W        W35795   5.191  12.926   3.862  0.3931 -0.0815 -0.1278
20665W        W35796   6.561   8.589   0.664 -0.4692 -0.0560  0.0319
20666W        W35797   0.705   8.533   2.776  0.0955  0.2480  0.3001
20667W        W35798  11.968  10.351   5.122 -0.0870 -0.2074 -0.1711
20668W        W35799   1.335   5.671   2.971 -0.2497  0.0116 -0.1453
20669W        W35800  16.808  15.081  11.928 -0.0873 -0.3103 -0.2380
20670W        W35801  11.777   1.340   1.051  0.2006 -0.3902  0.2097
20671W        W35802   5.655   0.469  15.699 -0.5176  0.0793 -0.0377
20672W        W35803  11.151  13.268  11.996  0.2575 -0.4249  0.2072
20673W        W35804  16.448   2.698   0.332  0.0431 -0.2441 -0.0921
20674W        W35805  10.301   1.389   4.892 -0.2207  0.1280  0.2278
20675W        W35806  13.746   8.884   1.382 -0.0788  0.1958 -0.6362
20676W        W35807  12.759   8.888  12.890 -0.0612 -0.4368  0.0213
20677W        W35808  10.883  15.875  11.850 -0.1711  0.2334  0.0129
20678W        W35809   3.697  16.236   2.562  0.0005 -0.0958  0.2526
20679W        W35810   9.562   2.989   5.464  0.4796  0.0786 -0.2486
20680W        W35811   1.310  12.217  14.188  0.2339 -0.1264  0.1667
20681W        W35812  13.874  16.468  13.100 -0.2366  0.0803  0.0345
20682W        W35813  15.311   5.819   4.543  0.0221 -0.0724  0.4678
20683W        W35814   9.454  11.966   2.633  0.1363 -0.0184 -0.1917
20684W        W35815   7.466   9.359   4.010 -0.2802 -0.2529  0.1522
20685W        W35816   0.641   5.047   2.368  0.1950 -0.1911 -0.0034
20686W        W35817  12.351  15.480  12.914 -0.1850  0.2047 -0.3404
20687W        W35818   7.085  16.295  14.018 -0.1123 -0.0276  0.4199
20688W        W35819   2.826  12.319  13.985  0.1067  0.1673 -0.0182
20689W        W35820   6.745   5.876   3.962  0.1209 -0.0399  0.3540
20690W        W35821  16.391  13.894   2.817  0.2300 -0.0385  0.2039
20691W        W35822   0.784   9.356   4.687 -0.2013  0.3327 -0.0595
20692W        W35823   2.286   4.796   4.822  0.0538 -0.2710  0.0532
20693W        W35824   8.105   3.037  12.145 -0.2642 -0.0224  0.0787
20694W        W35825  11.103   2.279  16.093  0.1295 -0.2088 -0.2064
20695W        W35826   8.218   6.806   4.018  0.4218 -0.2494  0.1208
20696W        W35827  11.141  14.022  13.538  0.0713 -0.1676 -0.0124
20697W        W35828  10.561   2.639  11.486 -0.1420  0.0878  0.2438
20698W        W35829   9.808  12.320  13.746  0.0959 -0.0218  0.3195
20699W        W35830  16.425   1.902  15.844 -0.3297  0.1924 -0.0017
20700W        W35831   3.696  12.723  14.816  0.1420  0.1961 -0.3292
20701W        W35832  11.549   5.427   2.905 -0.0988 -0.4044  0.2082
20702W        W35833  12.939   8.200   2.291 -0.0461 -0.1302  0.3170
20703W        W35834   2.515  18.105   0.315  0.1872  0.2223 -0.3623
20704W        W35835   5.440   2.857  15.895  0.1774  0.0843 -0.1574
20705W        W35836   9.882   1.477   4.047 -0.0012 -0.1842  0.1327
20706W        W35837  14.442   9.556   5.632  0.0927 -0.1494 -0.1835
20707W        W35838  12.497  14.328   3.438 -0.2347  0.0056  0.2780
20708W        W35839  16.074   3.746   3.338  0.0471 -0.0031  0.1377
20709W        W35840   1.986  13.799  10.429 -0.0060 -0.0516 -0.3240
20710W        W35841   2.895   0.692  14.678 -0.1685  0.0313  0.0944
20711W        W35842  18.084  14.524  11.791  0.5175 -0.2318 -0.0927
20712W        W35843  15.279  12.374   0.931  0.4013 -0.2324 -0.1235
20713W        W35844  12.944   3.442  13.700 -0.1149  0.2110  0.4467
20714W        W35845   0.230   9.508   5.855  0.0457  0.3143  0.1040
20715W        W35846  10.404   3.939  13.501 -0.1438  0.0688  0.0486
20716W        W35847   2.100   1.303   0.128 -0.1347 -0.2163  0.3609
20717W        W35848  13.527  15.085  10.403 -0.2557 -0.3510 -0.1231
20718W        W35849  10.167  11.384  11.739  0.1776 -0.3629  0.1844
20719W        W35850   6.302   4.964  15.802  0.1986  0.2189  0.1027
20720W        W35851  11.030  12.453  10.969 -0.4505  0.2448 -0.0869
20721W        W35852  18.024  16.642  14.215 -0.0419  0.2585  0.0073
20722W        W35853   4.160   8.830  12.820 -0.0944 -0.2503 -0.1516
20723W        W35854   8.338  13.577   4.231  0.0458  0.0555  0.4986
20724W        W35855  16.450   1.502   0.267  0.2457  0.0397 -0.3295
20725W        W35856   7.088  14.311   2.683 -0.0642  0.2656  0.0778
20726W        W35857  17.639  10.126  13.223  0.0530 -0.1393 -0.1350
20727W        W35858   2.797  17.245  13.964  0.1378  0.4386  0.0642
20728W        W35859   1.600   6.519  12.908  0.2114  0.0838 -0.1569
20729W        W35860   0.540   6.049   0.167 -0.2249  0.1065  0.2784
20730W        W35861  13.674   4.320  11.134 -0.1074  0.2881  0.0482
20731W        W35862  14.977   4.272   0.297 -0.0012 -0.0865 -0.0869
20732W        W35863  10.135   7.512  13.216  0.0576  0.0635 -0.0523
20733W        W35864  13.622   3.079  11.498 -0.4351 -0.1989 -0.0392
20734W        W35865   5.278   6.629  14.597 -0.1146 -0.1411  0.1073
20735W        W35866  13.011   6.113   2.744  0.3255 -0.2344 -0.0517
20736W        W35867  11.270  13.510   0.334  0.0068  0.1953 -0.2904
20737W        W35868  12.242  14.054   3.908  0.0587 -0.1023  0.1813
20738W        W35869   5.367   0.470   2.612 -0.2408 -0.1675  0.2468
20739W        W35870  16.156   4.136  11.913 -0.0225 -0.0299 -0.1761
20740W        W35871   9.563  18.103  15.517 -0.3363  0.2188 -0.0760
20741W        W35872   4.145  17.535  13.195  0.1663  0.1406  0.3366
20742W        W35873  15.921  10.997   1.841  0.2311 -0.0048 -0.0708
20743W        W35874   3.387   3.670  11.323  0.2698  0.1379 -0.1326
20744W        W35875  16.868   8.823   0.286  0.1636  0.1646  0.0122
20745W        W35876   8.359   2.089   1.201  0.3737  0.1036  0.1470
20746W        W35877  10.102  12.313  15.132 -0.1260 -0.3127  0.1771
20747W        W35878   2.953  11.711   1.764 -0.0584 -0.0659  0.2013
20748W        W35879  15.260   0.455   6.237 -0.0108 -0.1212  0.4034
20749W        W35880   1.652  14.795  10.799 -0.4353  0.0406 -0.3117
20750W        W35881   9.972   4.318   1.172 -0.0079 -0.2719  0.1691
20751W        W35882   1.828   0.985  15.377 -0.2764 -0.3111 -0.1548
20752W        W35883   1.644   7.075  12.219  0.2284 -0.0630  0.1906
20753W        W35884   9.282   0.798   3.630 -0.0973 -0.0388  0.3578
20754W        W35885  16.389   2.505  13.318 -0.3959  0.0810  0.1667
20755W        W35886   5.939   3.922   1.983  0.2758 -0.0637  0.1153
20756W        W35887  15.294  12.927  12.681 -0.0575  0.0164  0.1458
20757W        W35888  16.591  17.531   5.436 -0.1044  0.1151  0.0781
20758W        W35889   4.150   1.270   3.763 -0.0752 -0.1230 -0.0883
20759W        W35890   4.378  10.582  10.095  0.0946 -0.2632  0.1796
20760W        W35891   5.063   6.997  14.951  0.1067  0.1132  0.1246
20761W        W35892   6.403  14.522  14.064  0.1407  0.3850 -0.3524
20762W        W35893   3.696   0.734   4.746  0.3087  0.0978 -0.0513
20763W        W35894   5.961  11.826  15.539  0.4852  0.4852  0.0472
20764W        W35895  14.098   4.012  16.045 -0.0095  0.1135  0.0374
20765W        W35896  11.711   9.797   4.244 -0.1253  0.2327  0.0860
20766W        W35897  14.212   3.925  14.804 -0.2957  0.0395  0.0120
20767W        W35898   7.212  15.715   1.949 -0.1420  0.0173  0.1815
20768W        W35899   5.711   0.560   0.942 -0.0279 -0.3790  0.0247
20769W        W35900   5.471   8.494  15.636  0.3774  0.0232  0.1358
20770W        W35901  12.569  13.972  13.081  0.2352 -0.1020 -0.3382
20771W        W35902   1.242   7.618   4.725 -0.2077  0.0953 -0.0821
20772W        W35903   2.942   3.616  15.957 -0.0800 -0.3061  0.2665
20773W        W35904   7.056   2.565   4.013 -0.2059 -0.0939  0.1027
20774W        W35905  12.393   5.724   0.351  0.1977 -0.1272  0.2375
20775W        W35906   7.933  16.162   1.532  0.0723  0.1883  0.0334
20776W        W35907   4.467   9.449   4.069 -0.1057  0.0790  0.0798
20777W        W35908  11.884   1.768   4.441 -0.1485  0.4464  0.2505
20778W        W35909   8.520  14.724  10.714  0.1058 -0.0939  0.4322
20779W        W35910  12.654   6.258  10.986 -0.0704  0.1104  0.3603
20780W        W35911   2.463  17.275   4.292 -0.3181  0.0544 -0.1193
20781W        W35912  11.461   8.835   5.664 -0.2971 -0.1111  0.0980
20782W        W35913   0.049  10.224   2.160  0.1011  0.1034  0.2316
20783W        W35914  11.291  15.881   4.537 -0.2910 -0.2111  0.2554
20784W        W35915   3.750  16.227  11.643  0.3451 -0.0822  0.1338
20785W        W35916   5.625  16.290   1.650 -0.1463 -0.1361 -0.0070
20786W        W35917   4.259  17.278  15.657 -0.1872 -0.0435  0.2936
20787W        W35918  14.942  13.818   0.678  0.1531  0.2982  0.0736
20788W        W35919  14.569  13.593   4.646  0.1451  0.1327  0.1061
20789W        W35920   0.700   5.630   0.461  0.3067  0.1321  0.1808
20790W        W35921   1.824  13.962  12.556  0.0992  0.1115 -0.3057
20791W        W35922   9.504   1.808   0.822 -0.1173  0.2014  0.1662
20792W        W35923   2.173   1.262   4.279  0.2394 -0.1726 -0.1065
20793W        W35924   2.279  15.755   4.193 -0.0502  0.0719  0.1912
20794W        W35925   8.805   9.019  15.744  0.1180  0.0096  0.1232
20795W        W35926  10.106  14.373   0.734  0.0896 -0.0702  0.1949
20796W        W35927  17.346   9.922  12.730 -0.1991  0.0918  0.3043
20797W        W35928  17.143  14.189  15.095  0.0211 -0.0206  0.0516
20798W        W35929  10.426  11.871   9.829  0.0429  0.1192  0.0612
20799W        W35930   1.781   0.962   4.235  0.0198 -0.1586 -0.2458
20800W        W35931  12.966  13.228   2.827  0.0999  0.5160 -0.0435
20801W        W35932  17.344  12.497   0.013  0.1983 -0.0078  0.1886
20802W        W35933   9.975  12.478   2.192  0.3492 -0.1319 -0.2275
20803W        W35934   4.444  11.690   2.168  0.2159 -0.0376  0.0144
20804W        W35935  11.702   8.926  16.134 -0.2262  0.5273 -0.0279
20805W        W35936  14.911  10.919   5.096 -0.1179  0.0643 -0.3549
20806W        W35937  16.963   5.049   2.619  0.0099 -0.0154  0.1022
20807W        W35938  10.707   9.759   0.437 -0.0370  0.1259  0.2899
20808W        W35939   0.085   6.373  10.688  0.2097 -0.2655  0.1904
20809W        W35940   6.033   5.021  13.269  0.0466  0.1499  0.3435
20810W        W35941   8.147   5.949  15.260 -0.4000 -0.1503  0.1148
20811W        W35942  11.883  18.020   1.498 -0.0726 -0.3446  0.2682
20812W        W35943  11.980  12.534   4.755  0.1441  0.2766  0.2432
20813W        W35944   2.914  12.108  12.631  0.1672  0.0086  0.2633
20814W        W35945  17.662   9.610   3.340 -0.0286 -0.0009 -0.0436
20815W        W35946   0.304   0.481   1.102  0.2054 -0.2488  0.2142
20816W        W35947  16.970   0.466   1.259  0.0135 -0.1537 -0.1240
20817W        W35948   8.608  15.794  10.515 -0.0911  0.0992 -0.1690
20818W        W35949  16.678   0.240   5.660 -0.1678  0.0987 -0.2938
20819W        W35950   6.964  11.765   3.100 -0.0847 -0.0304 -0.1761
20820W        W35951   0.838   2.340   0.630  0.1001 -0.0979  0.1222
20821W        W35952  16.911   2.631   5.353  0.1388 -0.3420 -0.0312
20822W        W35953   0.218   8.620  11.757 -0.1170 -0.0360 -0.3175
20823W        W35954   8.931   1.067  14.351  0.3235 -0.2345  0.1629
20824W        W35955   7.121  16.351  14.537 -0.1278  0.0657 -0.1030
20825W        W35956   7.214   1.867  14.047 -0.2333  0.1874  0.1259
20826W        W35957   9.951   2.230   0.916 -0.1707  0.1221  0.2138
20827W        W35958  18.307  11.529   1.975 -0.3940 -0.1794  0.2149
20828W        W35959   9.905  18.311   0.309  0.1393  0.1719 -0.3515
20829W        W35960  13.418   0.339  15.507  0.0281  0.3135  0.0191
20830W        W35961  10.754  12.989   2.454  0.0420  0.1006 -0.0441
20831W        W35962   9.200  12.173  14.461 -0.0756 -0.2541  0.3209
20832W        W35963  17.349   8.106   3.023  0.0649  0.1027 -0.0271
20833W        W35964  13.015   9.891   2.145 -0.1691  0.1437  0.0737
20834W        W35965   3.376   1.644   0.683  0.1030  0.1202 -0.0818
20835W        W35966   7.326   8.817  13.546  0.1817  0.3357  0.0104
20836W        W35967   2.315  18.000  14.608  0.3415  0.0327  0.0877
20837W        W35968  10.067  15.241  15.368 -0.0495  0.1868 -0.0697
20838W        W35969   3.032  17.782   4.693 -0.0902  0.0523 -0.0218
20839W        W35970  17.812  11.658  12.871 -0.0261 -0.2220 -0.0235
20840W        W35971   7.688  17.906  13.080 -0.2077 -0.0881  0.1751
20841W        W35972  13.937  18.072   5.066 -0.0276 -0.2938  0.0591
20842W        W35973  15.330   5.023   3.517 -0.2440  0.2107  0.0753
20843W        W35974   1.640  16.516   4.245 -0.2834  0.0266  0.0369
20844W        W35975   4.639  17.254   0.348  0.2848  0.0442  0.1120
20845W        W35976  14.472   7.820   4.248 -0.1169 -0.0192 -0.0650
20846W        W35977  12.137  11.744   2.288 -0.2091 -0.3776 -0.2088
20847W        W35978  10.560  17.206   4.023  0.0351  0.0934 -0.0921
20848W        W35979  14.776   4.914   1.241  0.0141 -0.1047  0.1495
20849W        W35980  12.809  16.246   0.874  0.0168  0.1748  0.0363
20850W        W35981  16.710   7.075  11.896 -0.1749 -0.0906  0.2586
20851W        W35982   4.564  13.616   6.270  0.0332  0.0552  0.2835
20852W        W35983  16.545   7.050   3.629 -0.2471  0.2505 -0.1081
20853W        W35984  10.195   4.416   0.049 -0.2648 -0.3685  0.0384
20854W        W35985   5.756  15.013   5.174  0.1073  0.2451  0.2120
20855W        W35986  13.902   6.169   2.693  0.1852 -0.1092 -0.3510
20856W        W35987  10.060   4.786   4.216  0.1980 -0.1256  0.3133
20857W        W35988   2.198  14.586  12.562  0.3646  0.3271  0.0463
20858W        W35989  14.257   3.183   3.143  0.2090 -0.0971  0.3255
20859W        W35990  16.759   6.301   1.175  0.4853 -0.0427 -0.0035
20860W        W35991  11.880   6.232  12.178  0.0406 -0.0766  0.1830
20861W        W35992   6.004   9.127  11.649  0.5061  0.0823  0.3884
20862W        W35993   6.542   9.311   5.725 -0.0747  0.0431 -0.1765
20863W        W35994   8.428  16.208   1.013 -0.1972  0.0409  0.1177
20864W        W35995  18.333   0.976  14.665  0.0267  0.1636 -0.3139
20865W        W35996   3.719   4.841  14.561 -0.0797  0.1448 -0.0041
20866W        W35997  10.874  13.096  12.413  0.2152 -0.0332 -0.2064
20867W        W35998   1.626  13.145   2.422  0.0529  0.4807 -0.1308
20868W        W35999  16.386   8.588   0.220  0.1387  0.2083  0.1903
20869W        W36000  10.441   2.159   3.477 -0.1603 -0.0097 -0.2443
20870W        W36001   7.593   6.912  14.252 -0.3618  0.1234 -0.2786
20871W        W36002  15.941  11.286  14.875  0.0839 -0.2496  0.0806
20872W        W36003  12.311  11.609   3.990  0.0379 -0.1618 -0.2017
20873W        W36004  11.698  15.525   3.765  0.4168  0.0170 -0.0230
20874W        W36005   1.000   6.255  11.685  0.2488  0.0207  0.0415
20875W        W36006   3.953   1.837  10.496  0.1621 -0.3326  0.1698
20876W        W36007  14.796   6.448   4.784  0.1509  0.1095 -0.2016
20877W        W36008   0.239   7.173   1.899 -0.0129 -0.4337 -0.1634
20878W        W36009  12.429   8.506  15.554  0.0365  0.3313 -0.0893
20879W        W36010  15.144   5.046  11.326  0.0333  0.2819 -0.0386
20880W        W36011   8.458   1.113  11.646  0.1954 -0.0025 -0.0626
20881W        W36012   0.687  13.411   2.190  0.1646 -0.2333  0.1102
20882W        W36013  16.495   8.146   1.238  0.1013 -0.2421  0.3471
20883W        W36014   3.662  13.798   3.936  0.1415 -0.0688  0.0880
20884W        W36015  16.279  12.184   3.349 -0.2281 -0.1321  0.1259
20885W        W36016   3.879  17.305   5.073 -0.1385 -0.0466 -0.3398
20886W        W36017   4.615   2.008   2.170 -0.2071  0.0775  0.0711
20887W        W36018   9.408   7.749   1.706  0.2035  0.2688  0.1286
20888W        W36019  12.733  10.869   5.238 -0.2973 -0.1340  0.1900
20889W        W36020  14.194  12.691  10.831 -0.0846 -0.2311  0.1626
20890W        W36021   0.753  12.997   0.269 -0.0794 -0.0179  0.1680
20891W        W36022   7.592  16.961  15.548  0.0832  0.0506  0.2022
20892W        W36023   7.742  10.906  13.640  0.0986 -0.0727 -0.1018
20893W        W36024  15.824  15.592  12.775  0.0030  0.2615  0.1737
20894W        W36025   7.934  14.019  13.087  0.2554 -0.0415 -0.0092
20895W        W36026   0.052   5.430  14.371  0.1972  0.1033 -0.1362
20896W        W36027   5.970  18.367  11.663  0.3378 -0.0386  0.1981
20897W        W36028  17.867   8.813   5.197 -0.1175  0.2619  0.1685
20898W        W36029  12.763  12.077   5.234 -0.0500 -0.0773 -0.0176
20899W        W36030  14.614  16.527  12.425 -0.2672  0.2873  0.0464
20900W        W36031   4.673  14.543   0.240 -0.0491 -0.1587  0.1621
20901W        W36032   6.054  11.253  12.713 -0.2773 -0.0590 -0.0673
20902W        W36033   4.890   0.635  14.280  0.0122 -0.0342  0.1584
20903W        W36034   0.259   2.650  14.963  0.1972  0.2514  0.1732
20904W        W36035  12.479   3.028  15.101  0.0848  0.1221  0.3423
20905W        W36036   9.795  17.728  11.063  0.2508  0.3158 -0.0563
20906W        W36037   1.523   7.578   1.816 -0.1972  0.1015  0.0020
20907W        W36038   1.242  13.518   4.110 -0.2178  0.2494  0.0891
20908W        W36039   9.928   1.558   2.384  0.0383 -0.2042 -0.1457
20909W        W36040   8.840  14.218   2.773 -0.0168 -0.3493 -0.2728
20910W        W36041  12.267  12.288   9.745 -0.1302  0.0078 -0.2037
20911W        W36042   7.573  10.163   3.405  0.0889  0.1512 -0.2998
20912W        W36043   8.667  14.550  16.019 -0.0030  0.3486 -0.0881
20913W        W36044   7.543   4.308  15.225  0.3986  0.2818 -0.1067
20914W        W36045   7.581   8.987   4.964  0.0361 -0.1672  0.0126
20915W        W36046  15.635   1.174   3.393  0.0149 -0.1001 -0.1858
20916W        W36047   0.198   2.008  13.581 -0.0642  0.1859  0.2558
20917W        W36048   7.508  17.516  12.229  0.1165  0.1453  0.1097
20918W        W36049   0.806   8.248   5.348  0.0703  0.2855 -0.0446
20919W        W36050   8.330   8.719  10.861  0.1643  0.1521 -0.0124
20920W        W36051  14.846  10.808  11.240  0.0918 -0.2758 -0.0789
20921W        W36052  12.471   4.330  13.879  0.0953 -0.0951  0.1650
20922W        W36053   4.341  17.102   4.817  0.2201 -0.2396 -0.3057
20923W        W36054   4.637   1.949   1.486 -0.1520  0.0202 -0.0698
20924W        W36055   0.913   6.748   0.257 -0.0734  0.1563 -0.1615
20925W        W36056   0.966   3.853  12.467  0.1938 -0.1739 -0.3706
20926W        W36057  18.097   4.171  14.835 -0.3771  0.2231  0.3181
20927W        W36058  17.672   3.697   1.949  0.0679  0.2800  0.0911
20928W        W36059   3.545  11.456   1.427  0.2255  0.1143  0.1438
20929W        W36060  13.100  11.379  10.389  0.1887 -0.0787 -0.0067
20930W        W36061   0.091  18.163  11.185 -0.2509  0.3177  0.0832
20931W        W36062  12.210   3.895   2.838  0.1023  0.0715  0.2258
20932W        W36063   4.978  11.888   2.318 -0.2788 -0.3729  0.1420
20933W        W36064  15.247  10.703  12.735  0.0383  0.2122 -0.1455
20934W        W36065   3.146  18.237   2.563  0.2524  0.3199  0.0938
20935W        W36066   1.644   8.347  13.523 -0.2795 -0.1317 -0.1695
20936W        W36067   2.041   0.358  11.694  0.1408  0.2325  0.1203
20937W        W36068   8.270   3.675   6.598  0.0211 -0.0395 -0.0101
20938W        W36069  11.788   0.275   0.983 -0.2228  0.0974 -0.1083
20939W        W36070   6.787   9.325  14.848 -0.1116 -0.0379  0.1276
20940W        W36071  13.392   7.571   0.353  0.1600  0.1304 -0.1388
20941W        W36072   7.787  12.678  14.986  0.0438 -0.0953  0.0770
20942W        W36073   4.967  10.149   3.879 -0.1379  0.0139 -0.2381
20943W        W36074  18.286  12.305  11.247 -0.1179  0.2912  0.3274
20944W        W36075  17.658   5.556   0.378  0.0612 -0.2147 -0.0550
20945W        W36076   7.133   3.212  12.408  0.1444 -0.3745 -0.3022
20946W        W36077   8.701   8.520  13.407  0.2951 -0.2047  0.3110
20947W        W36078  18.341   1.078  13.366  0.3842  0.2512  0.0533
20948W        W36079   1.162  17.820   1.080 -0.2931 -0.0874 -0.2422
20949W        W36080   6.549   4.659   2.695  0.1921  0.2132  0.0060
20950W        W36081  12.796  12.914  12.107  0.0612  0.1563  0.0752
20951W        W36082   0.421   7.044   5.640  0.3007  0.1288  0.1898
20952W        W36083   2.323   9.904  10.292 -0.3582 -0.1323 -0.1582
20953W        W36084  13.443  17.274  12.285  0.0817  0.3062  0.1461
20954W        W36085   9.398  15.682  13.873  0.0626 -0.0241  0.1046
20955W        W36086   6.889  14.810  14.602  0.2378 -0.1289  0.0168
20956W        W36087   8.542  17.936  10.020  0.3757 -0.0307  0.0284
20957W        W36088  12.055   0.990  11.421 -0.2297 -0.4333  0.0592
20958W        W36089   1.587   9.216   0.963  0.2515  0.3562 -0.3046
20959W        W36090   8.731  18.133  12.504 -0.2607 -0.0303 -0.0109
20960W        W36091   0.537   4.334   2.191  0.2216  0.4226 -0.0493
20961W        W36092   6.111  13.745  12.053  0.1320 -0.1291 -0.1300
20962W        W36093   1.116  10.058  15.002  0.1955 -0.0118  0.1361
20963W        W36094   4.493   8.412   4.907 -0.0258 -0.1691  0.2536
20964W        W36095   0.279   1.846   1.663 -0.1717  0.0035 -0.1616
20965W        W36096   0.643  12.475  15.013 -0.2835 -0.0108  0.3084
20966W        W36097  16.326   2.026   3.872 -0.1053  0.3451  0.0364
20967W        W36098  15.873  14.267  11.525  0.0211  0.0166 -0.1546
20968W        W36099  14.516   3.225  11.458  0.0307 -0.2435 -0.0509
20969W        W36100   5.566  11.212   0.646 -0.3826  0.1001  0.1589
20970W        W36101   1.558   5.961   1.931 -0.0219 -0.1336  0.1042
20971W        W36102   4.215  11.303  15.490  0.1578 -0.0927 -0.0275
20972W        W36103  10.283  17.935  13.680  0.1791 -0.2877  0.3110
20973W        W36104   6.630  17.519  14.399  0.0315  0.0751 -0.0411
20974W        W36105  12.263   2.662   2.062  0.2222  0.0037 -0.2464
20975W        W36106   9.526  15.848  15.917  0.4413  0.5493  0.3016
20976W        W36107  18.249  10.026  10.607 -0.1930 -0.1242  0.0957
20977W        W36108  17.455  14.145  15.557 -0.1723  0.1918  0.1099
20978W        W36109   3.193   0.939   1.255 -0.2166  0.0261 -0.2516
20979W        W36110  10.052  16.338  14.851  0.0374  0.0079 -0.1656
20980W        W36111   5.112   1.189   5.931 -0.0505 -0.0857  0.1514
20981W        W36112   7.403   1.769   2.991 -0.1458 -0.2521 -0.1604
20982W        W36113  10.685   2.246   5.280  0.0497  0.1823 -0.1453
20983W        W36114  14.205   0.216   4.424 -0.0913  0.0502  0.0795
20984W        W36115   6.861   2.706   2.064 -0.0913  0.0746 -0.2439
20985W        W36116   1.894   3.614   2.737 -0.1617 -0.1073  0.0486
20986W        W36117   3.840   3.416   3.904  0.3888  0.0224  0.5289
20987W        W36118   1.798   2.744   1.485 -0.3633 -0.0232 -0.2572
20988W        W36119   3.190   4.373  14.517  0.1685  0.1268  0.2936
20989W        W36120   1.874   7.857   1.989  0.2672 -0.2451 -0.2097
20990W        W36121   0.237  14.720  16.024 -0.2008 -0.1820  0.1434
20991W        W36122   6.927  17.478   2.771  0.0198  0.0591 -0.3367
20992W        W36123  18.248   3.008  12.760 -0.1375 -0.1928  0.0366
20993W        W36124  13.496   9.464   4.618 -0.0019 -0.0311 -0.1793
20994W        W36125   3.315  18.130   5.557 -0.0637 -0.0672  0.1350
20995W        W36126  15.081  16.866  11.210  0.0615 -0.0139 -0.1368
20996W        W36127   8.935   3.768   4.589  0.2041  0.0992  0.2145
20997W        W36128  15.300   9.724   2.579 -0.0709  0.0045 -0.2154
20998W        W36129   2.483  12.575  15.522  0.0825  0.0190 -0.1680
20999W        W36130   5.285   4.999   5.420  0.1515  0.1255 -0.0194
21000W        W36131   3.206  15.720   4.324 -0.2187 -0.0661  0.0481
21001W        W36132   3.418  17.828  11.546 -0.1366 -0.2046  0.0272
21002W        W36133  16.814  11.455  12.114  0.0243  0.2637  0.1434
21003W        W36134   7.843  16.623   4.293  0.1863 -0.2467 -0.3194
21004W        W36135   3.020   8.208   5.101  0.1011 -0.0974  0.1068
21005W        W36136   6.628  10.943   3.125 -0.1366  0.0340  0.2119
21006W        W36137  17.471  15.818  16.054  0.1379  0.1061 -0.0144
21007W        W36138  17.382   4.725  11.308 -0.1017 -0.0512 -0.0040
21008W        W36139   0.027  15.300   0.145 -0.0502  0.0850 -0.2924
21009W        W36140   3.201   8.559  13.172 -0.0631 -0.1331  0.2603
21010W        W36141   4.506   6.500  13.755  0.0872  0.0832 -0.1770
21011W        W36142   4.229  10.449   4.452  0.3449 -0.1401 -0.0357
21012W        W36143   8.314   1.896  10.596 -0.3610  0.0183  0.2931
21013W        W36144  14.195   6.636  15.391 -0.0834  0.0142 -0.0270
21014W        W36145  18.295  17.371  10.353 -0.0581  0.1223 -0.2381
21015W        W36146  17.409  11.342   5.023  0.0860 -0.0290  0.1241
21016W        W36147  10.785   3.367  14.798 -0.1777 -0.0640 -0.3050
21017W        W36148  16.272   7.259   0.273 -0.0428 -0.0597  0.0116
21018W        W36149   8.749  12.528   4.126 -0.1280  0.2651  0.0402
21019W        W36150  10.428   0.464   2.704 -0.2115 -0.4456 -0.1077
21020W        W36151  16.197   8.334  13.614 -0.0950 -0.1954 -0.1950
21021W        W36152   8.856  14.071  15.511  0.0363  0.4256 -0.0213
21022W        W36153  17.561   7.523  12.163 -0.5292 -0.4457 -0.2513
21023W        W36154  10.718   1.107   4.700  0.3207  0.0475  0.3673
21024W        W36155  16.766   6.167  12.138 -0.2349  0.3686 -0.0366
21025W        W36156   4.957   9.920  11.385  0.1036  0.1294  0.1303
21026W        W36157  10.481  17.195  15.595 -0.4384 -0.2630 -0.1305
21027W        W36158   2.393   7.296  14.993 -0.1584 -0.0552 -0.0571
21028W        W36159   2.154  16.176  11.490  0.0272 -0.4133  0.0281
21029W        W36160   3.849   8.311  10.046  0.0154 -0.0039 -0.2089
21030W        W36161  13.049   7.828   1.524  0.0941  0.1458  0.1854
21031W        W36162  14.973   3.897   2.131 -0.0479  0.3831 -0.2157
21032W        W36163   7.504   1.976   2.118 -0.0689  0.2179 -0.0889
21033W        W36164   9.128   9.012   3.600 -0.1683  0.2547  0.0076
21034W        W36165  18.257   8.566   3.302 -0.1896  0.0012  0.4477
21035W        W36166  17.933   3.555  11.894  0.1466 -0.0801  0.1548
21036W        W36167   2.576  10.276   0.351  0.2195 -0.0722 -0.0307
21037W        W36168   6.640  12.799   2.798  0.1228 -0.2655 -0.1089
21038W        W36169   4.120  16.291  15.471 -0.0226  0.0706 -0.1799
21039W        W36170  14.431   4.855  12.936  0.2331  0.1671 -0.3035
21040W        W36171   1.540  14.164  10.972 -0.1000  0.1003  0.0114
21041W        W36172   9.569  13.071  13.243 -0.1106 -0.3642 -0.2340
21042W        W36173  11.527  11.346  11.502 -0.1358  0.0520  0.2444
21043W        W36174   4.551  11.260   3.464 -0.0170  0.3484  0.1198
21044W        W36175   7.790   6.819   3.766 -0.5586 -0.0715  0.0998
21045W        W36176  10.047   2.517   0.484 -0.1496  0.1056 -0.1522
21046W        W36177  13.181   2.439   3.655  0.0485  0.0117 -0.0694
21047W        W36178   6.215  15.335  11.764 -0.2486 -0.1987 -0.0301
21048W        W36179   5.725  16.280   3.480 -0.0253  0.0807  0.0221
21049W        W36180   5.727   5.829  12.080  0.1146 -0.0040 -0.1771
21050W        W36181  16.916   4.712  15.238 -0.3091 -0.2723 -0.2281
21051W        W36182   0.973  16.216  15.127  0.0553  0.0606 -0.3247
21052W        W36183   5.641  11.709  12.391  0.1391  0.0479 -0.3780
21053W        W36184   9.849  12.101   1.359  0.0348  0.2015 -0.1469
21054W        W36185  10.712  11.104  14.456 -0.1909 -0.0948  0.0672
21055W        W36186  18.053  15.165   2.040  0.0027  0.0074 -0.3192
21056W        W36187  12.379  17.996  14.977  0.3303  0.2756 -0.1909
21057W        W36188   8.026   6.306   4.297  0.0863  0.3564  0.0549
21058W        W36189   3.385  15.964  11.419  0.0379 -0.0046 -0.1979
21059W        W36190   8.396  10.301  12.057 -0.0091 -0.1638  0.1422
21060W        W36191  14.909  16.433   4.324  0.2790  0.1003 -0.1062
21061W        W36192  16.474   5.868  13.244  0.0948 -0.2303 -0.0599
21062W        W36193  10.149  11.914  13.770  0.0907 -0.0848  0.2713
21063W        W36194  10.975   3.240  12.067  0.3162 -0.2680 -0.0346
21064W        W36195   2.020  14.800  13.436 -0.0274 -0.1904 -0.0960
21065W        W36196  16.650   6.399  13.175  0.2095  0.1630  0.0172
21066W        W36197   5.924   5.541   4.991 -0.2356  0.1880  0.0248
21067W        W36198   3.089  11.360   2.103  0.0572 -0.0164 -0.1121
21068W        W36199  10.899  13.567  14.895 -0.1130 -0.1511 -0.0152
21069W        W36200   1.701   5.349   2.136  0.2612 -0.4461 -0.2610
21070W        W36201  14.286   0.553  15.926 -0.1288  0.1252 -0.1415
21071W        W36202   1.974   0.247   1.626  0.1030  0.3406  0.0477
21072W        W36203  12.878  17.805   5.633  0.4386  0.2743 -0.2454
21073W        W36204   0.266  16.232   3.499 -0.3951 -0.1916  0.1334
21074W        W36205   6.873  16.035   1.785  0.1571 -0.0888 -0.2901
21075W        W36206  11.696  14.569   9.793  0.0182  0.1500  0.1294
21076W        W36207  13.513  12.745   2.198 -0.1377 -0.3454 -0.0800
21077W        W36208   0.447  17.451   5.767 -0.0314  0.1529  0.0685
21078W        W36209   8.058   0.528  15.796  0.1374  0.1270 -0.0814
21079W        W36210   8.896  14.005  12.746 -0.0248  0.0181 -0.0827
21080W        W36211  10.496   7.250  10.994  0.0381 -0.0104  0.0217
21081W        W36212   1.557   6.888   0.790  0.1315 -0.4567  0.1286
21082W        W36213  13.417   2.099   5.328  0.1858 -0.1977 -0.0236
21083W        W36214   0.675   9.230  15.329 -0.0902 -0.1659 -0.1193
21084W        W36215  17.986   4.564   1.947 -0.1844 -0.1295 -0.0054
21085W        W36216   9.931   0.292  12.099 -0.0584 -0.0679 -0.0542
21086W        W36217   0.366  17.626  15.150 -0.0877 -0.3512 -0.1469
21087W        W36218   7.822  15.188  14.665 -0.0750  0.1403 -0.0054
21088W        W36219   2.138   9.804   4.229  0.1270  0.0567 -0.1702
21089W        W36220   7.445  10.729  16.007 -0.2354  0.1383  0.3278
21090W        W36221  11.305   0.696   4.053  0.0736  0.0309 -0.1789
21091W        W36222   7.714  10.899   2.652  0.0762  0.1397 -0.0753
21092W        W36223   8.060   2.565   1.451 -0.1307 -0.1056 -0.2715
21093W        W36224  12.091   6.067   2.606  0.2050  0.2254 -0.1743
21094W        W36225   1.898  12.833  10.750 -0.0333  0.0561  0.0712
21095W        W36226  14.791   3.458  13.183 -0.2813  0.3814 -0.0434
21096W        W36227  14.846   1.091  16.023 -0.2577  0.3185  0.2614
21097W        W36228   6.449   0.456   1.897  0.0331 -0.0266 -0.0064
21098W        W36229   4.423   0.970   3.248 -0.1865 -0.1751 -0.0796
21099W        W36230   7.600  12.024   3.520  0.3952  0.0728 -0.2009
21100W        W36231  15.445  12.452  10.437 -0.2662 -0.0687 -0.3559
21101W        W36232  10.577  14.152   3.634 -0.1928  0.2594 -0.1876
21102W        W36233  10.003  12.367   0.471 -0.2010 -0.3935 -0.0650
21103W        W36234   4.715   7.219  11.853 -0.1485  0.2036  0.1028
21104W        W36235  14.181   6.431   2.321 -0.1129  0.0735  0.0183
21105W        W36236   7.848  17.996   4.194 -0.2703  0.2924  0.0372
21106W        W36237  10.512  10.599   4.797  0.1563 -0.2806  0.0587
21107W        W36238  13.272   7.708   3.867  0.2103 -0.0777  0.2536
21108W        W36239  11.174  17.567  14.963  0.3004  0.0923 -0.4705
21109W        W36240   7.268  14.069   0.462 -0.1714 -0.0978 -0.1455
21110W        W36241   0.143   1.148   2.498  0.0668 -0.1249 -0.1182
21111W        W36242   4.532   6.130  15.916 -0.4660  0.1925  0.0115
21112W        W36243  10.715   4.560  15.627 -0.1134  0.0906 -0.0922
21113W        W36244   3.038   7.965  14.234  0.1340 -0.1326  0.3343
21114W        W36245   4.877  14.930   0.646  0.3396  0.0499  0.0021
21115W        W36246   9.804  12.503  15.829  0.1434  0.0358 -0.1409
21116W        W36247  15.661  17.719   0.246 -0.0842 -0.2986  0.0657
21117W        W36248   1.201  13.529   2.195  0.0727  0.1135 -0.0885
21118W        W36249  11.620   0.224   0.107 -0.0002  0.0047 -0.2122
21119W        W36250   8.112  15.568  10.564  0.1160 -0.3043 -0.2102
21120W        W36251   4.910   2.240  11.446  0.2838 -0.0719  0.0700
21121W        W36252  16.470  13.698   0.853 -0.1242  0.1364  0.2618
21122W        W36253   6.464  18.344   0.907  0.4277 -0.0493 -0.3615
21123W        W36254  12.506   6.343   1.215 -0.0718 -0.1503 -0.0708
21124W        W36255   0.499   1.871   4.779 -0.0382  0.2162  0.0949
21125W        W36256   0.265  18.129  16.026 -0.7906 -0.4463 -0.3591
21126W        W36257  18.124  13.463  11.553  0.3291 -0.1733  0.0199
21127W        W36258  12.952   1.280  12.075  0.3804  0.2178  0.2748
21128W        W36259  16.946  13.766   2.433 -0.3571 -0.2182  0.1930
21129W        W36260   2.537  13.264  11.518 -0.0760 -0.0877 -0.0389
21130W        W36261  10.839  10.538  14.172  0.0512 -0.1303 -0.1897
21131W        W36262  12.753  12.549   1.133 -0.0376  0.0595  0.3868
21132W        W36263  13.235   6.545   5.281  0.0660 -0.0973  0.1508
21133W        W36264   5.389  15.645  11.871  0.2000  0.0299 -0.0319
21134W        W36265  17.330  15.153   1.603  0.2972  0.1601  0.0357
21135W        W36266  14.105  13.491  13.379  0.1164  0.0218 -0.0302
21136W        W36267  13.838   9.575   5.591  0.2245  0.0595 -0.0838
21137W        W36268  16.026   8.974   3.676  0.1268  0.1563 -0.3677
21138W        W36269  17.316  17.723   1.300  0.1043  0.4245  0.0057
21139W        W36270   1.962  10.569  12.232 -0.3617 -0.0473  0.0423
21140W        W36271   4.248  15.115  14.974  0.0950 -0.2382  0.0333
21141W        W36272  10.611  12.594  14.376 -0.1984  0.2057 -0.2575
21142W        W36273  16.599   9.386  11.755  0.0742  0.2942 -0.0668
21143W        W36274  14.561  13.178  13.509 -0.1385 -0.0931 -0.0541
21144W        W36275   2.181   9.122   3.641  0.1805  0.2843 -0.2686
21145W        W36276  13.755   9.754  11.197  0.0149 -0.0516  0.0507
21146W        W36277   0.806   4.853  13.955 -0.0088 -0.2084  0.1729
21147W        W36278   3.656  11.160   0.077  0.1216  0.1460  0.0114
21148W        W36279   4.109  10.462  15.740 -0.1113 -0.1865 -0.1028
21149W        W36280   7.198   2.322  11.369  0.0945  0.1425  0.1249
21150W        W36281  11.715   2.173   2.271 -0.0324  0.0134  0.1503
21151W        W36282   4.985   5.420   3.491  0.0580  0.1792  0.1372
21152W        W36283   3.052  12.584  14.392  0.0059 -0.0526 -0.1174
21153W        W36284   2.293   5.884   1.090 -0.0683  0.1681  0.2939
21154W        W36285  17.832  16.146  11.886  0.3962 -0.1157  0.1476
21155W        W36286   3.656   0.005   1.282 -0.0883  0.0501  0.1028
21156W        W36287  16.363   6.324  10.907 -0.0278 -0.1774 -0.0336
21157W        W36288   6.789  11.163   3.592 -0.3284 -0.1416  0.0409
21158W        W36289  15.142  17.735  14.726  0.0578  0.2552  0.2060
21159W        W36290   0.104  13.284  16.116 -0.0025 -0.3818  0.1109
21160W        W36291  11.446   9.375  14.402 -0.0927 -0.1963  0.1885
21161W        W36292  17.222   3.821  14.176  0.2930  0.0284 -0.5036
21162W        W36293  12.483  15.910   0.588  0.0425  0.1437 -0.1921
21163W        W36294  17.355   5.774   3.210  0.0370  0.1492 -0.2835
21164W        W36295   9.477  15.350   2.424 -0.3037 -0.0678  0.2355
21165W        W36296   6.211   6.327   1.547  0.1207 -0.1398  0.1592
21166W        W36297   8.607  15.125   4.607  0.3136 -0.3500 -0.0146
21167W        W36298  15.396  17.515   0.835  0.0660 -0.3650 -0.5553
21168W        W36299  15.203  16.560  15.267 -0.0743  0.3823  0.0338
21169W        W36300  16.045   1.364   3.213 -0.1177 -0.2396  0.1569
21170W        W36301   4.367  15.557  14.787  0.0778  0.1011 -0.1192
21171W        W36302  13.960  10.443   4.241  0.2463  0.1876  0.0407
21172W        W36303  17.017  14.510   3.686 -0.1582 -0.2207 -0.4024
21173W        W36304  15.340   7.005   2.596 -0.0548 -0.2107 -0.2636
21174W        W36305  15.651   1.634  11.006 -0.0160 -0.0487  0.0976
21175W        W36306  14.324   1.665   3.340  0.1710 -0.1322 -0.0576
21176W        W36307  11.599   8.596  13.525 -0.1902 -0.3094  0.1212
21177W        W36308  10.433   0.430   4.503  0.1602  0.0470 -0.3486
21178W        W36309   9.929   3.804   3.762 -0.2428 -0.3469  0.4025
21179W        W36310   6.675   1.343  14.076  0.1293  0.0685  0.2411
21180W        W36311   6.300  12.187  15.087 -0.2625  0.0817 -0.0041
21181W        W36312   9.824   4.379  14.397 -0.0981 -0.0203 -0.2849
21182W        W36313   7.522  12.280  15.839  0.2301 -0.0097  0.1943
21183W        W36314   0.116   5.130   0.668  0.1709 -0.0676  0.1427
21184W        W36315   5.201   7.280   2.067 -0.4174 -0.0700 -0.2380
21185W        W36316  16.897  10.842  14.981  0.1386  0.1972  0.2087
21186W        W36317  11.024  17.986  15.172  0.1475  0.1088 -0.1736
21187W        W36318  15.383  13.638   1.920  0.1728 -0.1868 -0.1345
21188W        W36319   3.249  14.528   1.980 -0.0483 -0.2403 -0.1570
21189W        W36320  12.503  12.005  14.418 -0.0192  0.0977 -0.0728
21190W        W36321  12.528   1.904  15.452  0.1162 -0.2001  0.0458
21191W        W36322   2.240   2.945  13.334 -0.0147  0.1185  0.0084
21192W        W36323   8.191  13.257  16.141 -0.0813 -0.1256 -0.1818
21193W        W36324  12.967   3.799   2.364  0.4326  0.2046  0.2360
21194W        W36325  17.098  17.351   5.311 -0.3165  0.0669  0.0287
21195W        W36326  12.209   4.520   0.917 -0.1656 -0.0281  0.1342
21196W        W36327   4.838  11.077  12.807 -0.0028 -0.1563  0.0151
21197W        W36328  17.595   4.693   5.389 -0.2612  0.5887  0.1172
21198W        W36329   6.355  12.276   0.258 -0.1266 -0.0490 -0.2029
21199W        W36330   9.249  16.079   1.815 -0.0371  0.0765  0.0613
21200W        W36331  14.803   6.459  10.778 -0.0057  0.1461 -0.2314
21201W        W36332  16.653   1.979   6.654 -0.2375  0.0452  0.0280
21202W        W36333  17.610  15.995  15.604 -0.0621 -0.2031  0.3827
21203W        W36334   8.788  14.624   2.443  0.2216 -0.3988 -0.1719
21204W        W36335   5.972   1.959  14.417 -0.1000  0.0539 -0.1543
21205W        W36336   8.715   8.410  12.031  0.0804  0.0395  0.1010
21206W        W36337   9.618   5.354  15.889 -0.2047  0.2488  0.1123
21207W        W36338  16.785   9.555   1.352  0.0359  0.3322 -0.1774
21208W        W36339   0.497  10.680   4.073  0.1007  0.2284  0.4071
21209W        W36340   3.029   8.738   3.482  0.0323  0.1112 -0.1566
21210W        W36341  10.247   8.427  12.552  0.1409  0.0371 -0.0208
21211W        W36342   1.209  18.314  13.201 -0.1063  0.1340  0.0268
21212W        W36343  16.481   1.034   0.029 -0.0226 -0.2860 -0.1699
21213W        W36344   8.070   2.131  12.431  0.0298 -0.0363  0.0513
21214W        W36345   6.604   0.611   1.462  0.0855 -0.1019 -0.1928
21215W        W36346  16.250  10.553  13.212  0.1195 -0.3670  0.0240
21216W        W36347   0.098  12.390   0.960 -0.1311  0.0005  0.1525
21217W        W36348  15.435   0.375  13.171 -0.2651  0.1963  0.0737
21218W        W36349  14.367   0.910   0.100 -0.1225 -0.0807 -0.2434
21219W        W36350  15.901  15.789  14.282  0.1034 -0.1157  0.2110
21220W        W36351   8.988   3.403   3.730  0.2160  0.1219 -0.0475
21221W        W36352   0.489   9.210   3.597  0.0292 -0.3497 -0.0800
21222W        W36353   7.842  14.489  14.871 -0.1662 -0.0037 -0.1280
21223W        W36354   6.975  12.364   0.529 -0.1537 -0.1741 -0.0009
21224W        W36355  13.600  10.484   4.589  0.2179 -0.1813  0.0124
21225W        W36356  12.390   4.310  12.346  0.1365 -0.1230 -0.0745
21226W        W36357   8.856  16.434   2.028 -0.2502  0.1114 -0.2059
21227W        W36358   6.667   0.763   4.288  0.0721  0.0375  0.4276
21228W        W36359   0.963   3.403   0.353  0.0103 -0.1907 -0.0728
21229W        W36360   8.896   0.371   3.508 -0.3343 -0.0984 -0.1123
21230W        W36361  16.862  16.870   1.706  0.0909 -0.1043 -0.0775
21231W        W36362  18.279  13.821   1.131 -0.0115  0.0196 -0.4029
21232W        W36363  17.291  11.622  12.524  0.2689 -0.2537  0.4418
21233W        W36364  14.083  17.160   0.263 -0.3109 -0.1632 -0.0580
21234W        W36365   1.519   9.948   3.445  0.5042  0.1861 -0.0222
21235W        W36366  14.597  16.916  12.114 -0.1376 -0.1487  0.0228
21236W        W36367   2.357  17.112  14.215  0.1160 -0.2736 -0.0640
21237W        W36368   2.687  13.205   3.255  0.0793 -0.2298  0.2050
21238W        W36369  14.781  13.314  10.797 -0.1033  0.2149  0.1824
21239W        W36370  12.880   8.393   1.511  0.2041  0.0549  0.0519
21240W        W36371   5.951  17.329  12.410 -0.2265 -0.1214  0.1937
21241W        W36372  12.220   4.859   5.878  0.0343  0.3568  0.1016
21242W        W36373  16.811  10.326   4.577 -0.3214 -0.0241  0.0684
21243W        W36374  12.873  12.881   0.221  0.1036  0.0344  0.2729
21244W        W36375  15.564   1.461  13.197 -0.1802  0.1550 -0.2424
21245W        W36376   1.045   2.813  14.290 -0.1944  0.0478  0.3344
21246W        W36377   0.099   6.845   2.283  0.1247  0.3478 -0.0662
21247W        W36378   0.422   8.710   5.738  0.6127  0.2250  0.1637
21248W        W36379  15.548  18.004  15.832 -0.0738 -0.0893  0.3027
21249W        W36380  13.450  13.667  11.944  0.0537  0.2820  0.0195
21250W        W36381  15.702   1.186   5.762  0.1378  0.2131  0.1194
21251W        W36382   8.523  12.312  11.204  0.1748  0.0773  0.0181
21252W        W36383   9.616   1.983   5.256  0.1812  0.0609 -0.0528
21253W        W36384   2.253  11.277   1.148  0.3305 -0.2153 -0.2243
21254W        W36385  12.320  13.712   6.038 -0.2771 -0.0440  0.2956
21255W        W36386  15.623   7.492   1.003 -0.0527  0.1053 -0.0466
21256W        W36387   9.688  14.062  12.219 -0.0534  0.2303 -0.3275
21257W        W36388   4.292  18.135  14.396 -0.0657  0.1357  0.3234
21258W        W36389   4.597  11.247   4.396  0.0815  0.0202 -0.1158
21259W        W36390   6.246   8.153   0.660  0.0543 -0.3340 -0.0110
21260W        W36391   4.351   2.873  14.861  0.0900  0.2144 -0.2165
21261W        W36392  10.486  18.280   1.595 -0.3129  0.2296  0.3228
21262W        W36393   6.781   5.707  13.705 -0.2080 -0.1883 -0.1619
21263W        W36394   4.359  14.286  14.196 -0.2220  0.0143 -0.2682
21264W        W36395   1.917   2.293   4.395 -0.0468  0.1514 -0.1553
21265W        W36396   1.316   5.762   2.481 -0.2037  0.1608 -0.0007
21266W        W36397   1.328   7.936   5.452 -0.3150 -0.0236 -0.1590
21267W        W36398  13.445   0.834  10.959  0.2081 -0.1126 -0.2117
21268W        W36399  10.515  18.272  13.954 -0.2651  0.0369 -0.0566
21269W        W36400  16.464   8.813   1.986  0.1217 -0.2116 -0.0560
21270W        W36401   0.435   8.754  15.752 -0.2457  0.0323  0.4548
21271W        W36402  12.212   1.756   3.461 -0.0717  0.1212 -0.0057
21272W        W36403  17.081  12.302   0.476  0.1995 -0.1946 -0.0478
21273W        W36404  11.404   5.206   0.131  0.0366  0.1087  0.0314
21274W        W36405   1.716  13.388  14.724  0.3164  0.0279 -0.1517
21275W        W36406  16.685  15.602   2.861  0.1071 -0.1047  0.1547
21276W        W36407  12.559  12.971  12.728 -0.1375 -0.1132 -0.2917
21277W        W36408  15.878   9.281  13.759  0.1222  0.1895  0.2114
21278W        W36409   6.095   5.550   2.506  0.1123  0.1622 -0.0039
21279W        W36410  13.850   8.456   4.339  0.1954  0.0497  0.1107
21280W        W36411   4.713   4.918  13.415  0.1763 -0.1509  0.2133
21281W        W36412  12.772   1.546   0.210 -0.0468 -0.1637  0.0478
21282W        W36413   7.827  12.976   1.208 -0.0155  0.0710 -0.0132
21283W        W36414   7.158   8.403  15.037  0.2083  0.2198  0.3779
21284W        W36415  17.648   5.008  14.348  0.2710 -0.1206  0.1098
21285W        W36416  13.828   1.940  11.330  0.3122  0.0817  0.0935
21286W        W36417   7.457  11.335  10.630  0.3088 -0.1512  0.0937
21287W        W36418   3.598   7.296   2.090  0.1292 -0.3854  0.0152
21288W        W36419   8.629  13.468  11.388  0.2003 -0.4559 -0.2364
21289W        W36420   6.570  11.242  12.718  0.2641 -0.0537 -0.0590
21290W        W36421   9.341  15.743  15.462  0.0439  0.1318 -0.0302
21291W        W36422   8.746  11.842  15.734 -0.2431  0.1383 -0.0902
21292W        W36423   7.146   4.461  16.142 -0.0838  0.1280  0.3284
21293W        W36424  15.231  10.376   3.549  0.1765 -0.2638 -0.0782
21294W        W36425   9.930  12.407   2.659  0.1109  0.0867 -0.3325
21295W        W36426   1.284  16.073  15.818 -0.3489  0.1234  0.2397
21296W        W36427  15.352  16.213  11.919 -0.1555  0.0407 -0.0722
21297W        W36428   3.421  15.059   3.548 -0.0459  0.0177 -0.0639
21298W        W36429  15.263  15.970  11.042 -0.0210  0.1024 -0.0566
21299W        W36430   6.778  13.715  11.663 -0.0739 -0.2250  0.1782
21300W        W36431   3.332   0.339   2.534 -0.0964  0.1767  0.2496
21301W        W36432   6.816   0.195   3.497  0.0050  0.3507  0.1369
21302W        W36433   7.317   1.688  10.137 -0.1501  0.2450 -0.1512
21303W        W36434   6.726   1.168   2.839 -0.0480 -0.0773 -0.0764
21304W        W36435   5.461   5.272   3.522 -0.1045  0.3232  0.1144
21305W        W36436   9.177  17.183  13.072 -0.0297 -0.0091 -0.0314
21306W        W36437   9.840  17.869   0.605 -0.1326  0.1135 -0.1290
21307W        W36438   6.263   8.499  13.317 -0.0789  0.0635 -0.2527
21308W        W36439   1.447  16.581   4.701 -0.0685 -0.1276  0.2460
21309W        W36440  11.667   1.911  14.107 -0.1055  0.1716 -0.2827
21310W        W36441   5.734   5.759  10.868 -0.0136 -0.0185  0.0649
21311W        W36442  11.006  13.852  10.934  0.0275 -0.1144 -0.0408
21312W        W36443  11.859   4.566  12.266 -0.0666  0.0603 -0.0925
21313W        W36444   7.788   5.069  13.136 -0.1571 -0.0833 -0.0804
21314W        W36445   5.075   5.849  12.565 -0.2207  0.1578 -0.0526
21315W        W36446   3.815  13.171   6.165  0.0939 -0.1443 -0.0015
21316W        W36447  14.491   8.889  12.044  0.2018  0.1595  0.3072
21317W        W36448   8.880   9.281   3.233  0.0152  0.0503  0.0128
21318W        W36449  10.918  14.940  11.530  0.1922 -0.0987  0.1508
21319W        W36450  16.109   3.962   0.028 -0.0320  0.0047 -0.1893
21320W        W36451  15.273   6.226  11.955 -0.2192 -0.2025  0.3410
21321W        W36452   8.383   6.208   0.069 -0.2187  0.1770 -0.0578
21322W        W36453  17.603   8.486   2.855 -0.0569  0.0146 -0.1181
21323W        W36454   0.015   7.283   1.450 -0.2250  0.1030 -0.3438
21324W        W36455  14.229   6.504  15.889 -0.1066 -0.1567 -0.0075
21325W        W36456   9.810  12.603  13.228 -0.1653  0.2534 -0.0656
21326W        W36457  11.341   8.774   3.905  0.1281 -0.4855 -0.0758
21327W        W36458  11.493   5.835   4.923 -0.1989 -0.6141  0.1071
21328W        W36459   6.789  17.094  12.709 -0.2983 -0.1455 -0.2895
21329W        W36460   9.726   5.121   4.410  0.1251  0.1745 -0.0202
21330W        W36461   8.514  15.599   2.030 -0.1043  0.0932 -0.0758
21331W        W36462  13.264  15.165  14.855  0.0868  0.0893 -0.0316
21332W        W36463   1.576  16.879  11.848  0.4347  0.2680 -0.1100
21333W        W36464  14.238   3.864  13.488 -0.0205  0.0511  0.1714
21334W        W36465   0.993   4.871  15.299 -0.3218 -0.2813 -0.1989
21335W        W36466   7.940   0.332   2.527 -0.0050  0.1483  0.3528
21336W        W36467   9.089  16.669  10.057  0.0975 -0.1052 -0.2176
21337W        W36468   6.327  13.655   1.063 -0.1903 -0.0956 -0.0585
21338W        W36469   0.146   3.477   0.459 -0.0274  0.0156  0.0756
21339W        W36470   3.862   0.803  12.788 -0.0836 -0.2050  0.0217
21340W        W36471  10.782  15.079  15.762 -0.0381 -0.0952 -0.1108
21341W        W36472   7.336   0.575   0.073 -0.0202 -0.0882  0.2357
21342W        W36473  13.501  13.193   5.085  0.0813 -0.0225 -0.0153
21343W        W36474  10.149   4.915  14.329 -0.4336 -0.1089  0.1280
21344W        W36475  16.061   3.152  12.274 -0.1290  0.0998  0.0752
21345W        W36476  15.068   0.699  15.178 -0.0580 -0.1293  0.3734
21346W        W36477  16.668  14.627   2.344  0.0303  0.0959  0.1138
21347W        W36478   1.641  18.138  12.881 -0.0107  0.3134  0.0255
21348W        W36479   6.698   4.347   4.730 -0.0773 -0.2666 -0.2857
21349W        W36480   0.456   1.213   3.973 -0.2758 -0.2195 -0.1974
21350W        W36481  14.894   6.414  11.693 -0.0143  0.0409  0.0232
21351W        W36482  12.127   8.843   1.148 -0.0659 -0.1649  0.0356
21352W        W36483   6.381   1.221  13.607 -0.2261 -0.2681  0.2058
21353W        W36484  12.744  14.355  15.500  0.3268  0.0557  0.2522
21354W        W36485  10.070  16.189  14.380  0.0645 -0.0553  0.1780
21355W        W36486   6.596  17.718   1.723 -0.0865 -0.1744 -0.0341
21356W        W36487  17.442   0.684  15.213 -0.0453 -0.2338  0.0350
21357W        W36488   9.809  12.238  12.770  0.1596 -0.0650  0.0345
21358W        W36489   2.560   0.693   6.158  0.0643 -0.2794 -0.0102
21359W        W36490  17.958   1.414  14.891 -0.2599  0.1015 -0.2211
21360W        W36491  10.077   5.727  15.854 -0.2218  0.2355 -0.0937
21361W        W36492  18.147  15.535  13.549 -0.1845  0.0546  0.5160
21362W        W36493   2.454  16.657  15.073  0.2198  0.1111  0.0982
21363W        W36494   5.084   7.037  10.203 -0.1313  0.0210 -0.3500
21364W        W36495   0.207   1.422   1.204  0.0740 -0.2567  0.2164
21365W        W36496   5.671   8.730  14.696  0.0436 -0.2341  0.0273
21366W        W36497   3.606  16.369   4.856  0.0604 -0.0965 -0.1933
21367W        W36498  12.057  11.546   2.768  0.0274 -0.2410  0.2304
21368W        W36499  14.323   8.479  10.817  0.0941 -0.1292  0.2653
21369W        W36500  12.121   1.727  14.043  0.1499 -0.1485  0.2386
21370W        W36501   8.525   9.160   2.534  0.1968  0.2309  0.1387
21371W        W36502   6.828   5.800  14.783  0.2961 -0.0569 -0.0628
21372W        W36503  13.527  16.762  12.343  0.1464  0.1669  0.0603
21373W        W36504   8.074   5.511  12.233  0.1632 -0.0667 -0.1129
21374W        W36505   9.436  11.558  10.961  0.0875 -0.1613 -0.2419
21375W        W36506  11.846   6.355  11.293 -0.1742  0.1739 -0.1574
21376W        W36507   5.666   9.021   1.996  0.1771 -0.2116 -0.3166
21377W        W36508  10.461  10.842  12.725 -0.0127  0.0965  0.3366
21378W        W36509  18.022   0.219  15.738 -0.0680 -0.0436  0.1600
21379W        W36510   0.943  15.297   0.156 -0.2473  0.0777 -0.0055
21380W        W36511   1.321  10.086   4.186 -0.2722  0.2497  0.0183
21381W        W36512  14.275  16.595  12.850 -0.1442 -0.0227 -0.1930
21382W        W36513  17.478   0.262   0.662  0.0112  0.0006  0.1496
21383W        W36514   7.023   1.810  15.543 -0.1113  0.0389  0.0630
21384W        W36515   1.938   2.198  14.547 -0.0403 -0.0239  0.4476
21385W        W36516   1.099  16.101   5.677 -0.2362 -0.3074 -0.2343
21386W        W36517  11.716   0.762   0.113  0.0271 -0.0600  0.0990
21387W        W36518  15.413   9.409   4.995 -0.3831  0.1214 -0.0867
21388W        W36519   6.697   7.031  15.985 -0.2627  0.1678 -0.0327
21389W        W36520   5.895   7.923  15.162  0.1227  0.2532 -0.0671
21390W        W36521  18.192   3.268   3.780 -0.0214 -0.1160 -0.0386
21391W        W36522  10.418  17.295   2.179 -0.2052  0.1783  0.1594
21392W        W36523   7.767  12.573  11.979  0.0475 -0.1008 -0.2030
21393W        W36524  18.008   1.519   0.571  0.1244 -0.0570  0.2095
21394W        W36525   4.496  15.106   0.351  0.2460 -0.0803  0.0118
21395W        W36526  14.360  10.231  14.370 -0.1457 -0.1726  0.1736
21396W        W36527   9.920  14.455   3.059  0.2164  0.0368 -0.1277
21397W        W36528   6.038  13.609   2.434  0.2606 -0.0333 -0.1973
21398W        W36529  10.063   7.392   1.020 -0.3962  0.0355 -0.0818
21399W        W36530  16.798   4.370   3.817 -0.1140  0.1453  0.4368
21400W        W36531   7.153  11.581  13.296 -0.0692  0.1321 -0.0359
21401W        W36532   4.071   0.935   0.572 -0.0444  0.0875  0.1602
21402W        W36533  11.640  12.489   2.935 -0.0018  0.2350  0.1364
21403W        W36534   7.615  10.014   1.176  0.1778 -0.1811  0.1812
21404W        W36535   8.322  14.852   0.156  0.0113  0.1026 -0.2004
21405W        W36536   0.551   7.255   3.059  0.1092 -0.0676  0.1518
21406W        W36537  10.725   6.192  11.498 -0.3610  0.2153 -0.3526
21407W        W36538   6.070   3.423   3.316  0.0967 -0.1901 -0.3598
21408W        W36539   1.948  14.093   3.990 -0.0609 -0.0611  0.2467
21409W        W36540   5.084   1.085  13.097  0.0378 -0.0430 -0.2012
21410W        W36541  12.832   5.375   3.364  0.4645  0.0541 -0.1475
21411W        W36542  15.081   1.668  12.609  0.0907 -0.2513 -0.0868
21412W        W36543  10.325   3.673   1.345 -0.2192 -0.2534  0.0395
21413W        W36544   9.773  11.055  13.992 -0.2510  0.0535  0.0691
21414W        W36545   4.772  13.908   0.971  0.0495  0.0187 -0.2010
21415W        W36546  14.280   5.804  13.785  0.2094  0.1366  0.0051
21416W        W36547   1.552   8.523  10.988 -0.0949  0.0303 -0.2555
21417W        W36548  16.243   6.296  12.358 -0.4000 -0.0454  0.3439
21418W        W36549  13.615   3.364  12.002  0.0793 -0.2241 -0.1403
21419W        W36550   9.456   2.153  15.709 -0.1653  0.1594  0.0523
21420W        W36551   9.160  16.195   4.822  0.0775  0.0544  0.0314
21421W        W36552  10.530   1.241  12.775 -0.0328 -0.2003  0.1013
21422W        W36553  10.624  13.401  15.911 -0.4312 -0.0656 -0.0998
21423W        W36554  11.922   9.883   2.790 -0.1907 -0.3249  0.0353
21424W        W36555   2.990   9.043   1.347  0.2584 -0.1067  0.3561
21425W        W36556   9.568  12.946   1.541  0.1243 -0.3269  0.4788
21426W        W36557  12.263  15.582  14.253  0.2046 -0.1814 -0.0379
21427W        W36558   5.451  16.337   5.176  0.0029  0.3127 -0.6584
21428W        W36559  12.989   2.731   4.744  0.1341  0.1164 -0.0396
21429W        W36560   3.091   5.700   2.083  0.1288 -0.0238  0.0078
21430W        W36561  16.947  17.234   5.745 -0.1019 -0.0698  0.0972
21431W        W36562   5.568  11.637  11.831 -0.2230 -0.4921 -0.2289
21432W        W36563  11.270   7.804   2.855 -0.2036 -0.2334  0.0387
21433W        W36564   4.587   1.855  13.565  0.0803 -0.1168  0.1528
21434W        W36565   2.799   4.372  12.116  0.2055  0.0628  0.0391
21435W        W36566   1.489   4.695  15.368  0.0384 -0.0277  0.4866
21436W        W36567  15.444   0.359  12.632 -0.1839 -0.0794  0.2046
21437W        W36568  10.786  15.419  11.623  0.2491 -0.0359 -0.2032
21438W        W36569  10.144  16.839  14.307 -0.3633  0.1339 -0.2344
21439W        W36570  14.769   9.966   4.304  0.1134 -0.1532 -0.1115
21440W        W36571  14.213  10.592   6.233 -0.1570 -0.2403  0.2654
21441W        W36572  15.618  12.389  14.693 -0.1428  0.0334 -0.0139
21442W        W36573   0.389  15.179   0.660 -0.3045 -0.0082  0.3473
21443W        W36574   9.233  18.110   3.415 -0.2297  0.1755 -0.1508
21444W        W36575  15.146  12.580  12.344  0.0454 -0.1535  0.1953
21445W        W36576  11.263   9.327   1.676 -0.0471 -0.1529  0.0114
21446W        W36577   5.430   0.133   0.945  0.0812 -0.0759  0.2598
21447W        W36578   6.746  17.859   0.615 -0.1778  0.2283 -0.3156
21448W        W36579   6.773  17.475   0.064 -0.1533  0.0805  0.1111
21449W        W36580   2.184  16.526   5.978  0.0696  0.2799  0.3426
21450W        W36581  11.911  10.529  14.023 -0.1600 -0.2729  0.0574
21451W        W36582  15.993   5.839  13.000 -0.1188  0.0534 -0.0547
21452W        W36583  16.545   4.570   2.879  0.1862  0.2116 -0.0674
21453W        W36584  11.891  15.885  14.514  0.1661  0.0467 -0.3675
21454W        W36585  17.670  17.845  12.060 -0.0263 -0.0656 -0.1253
21455W        W36586   3.429   5.307   2.093 -0.0249  0.0422 -0.4276
21456W        W36587   5.808   5.517   0.521  0.0024  0.0423  0.0350
21457W        W36588   9.203   4.567   6.370  0.1679  0.1298  0.1300
21458W        W36589  17.972   5.053  13.300 -0.1474 -0.3453  0.2391
21459W        W36590   0.207   1.815   5.185 -0.1302  0.1651  0.4005
21460W        W36591   0.126  17.627  12.367 -0.0658  0.0105 -0.2109
21461W        W36592  14.001  13.468   0.507  0.0545  0.0909  0.0562
21462W        W36593  16.220   4.978   0.218  0.0851  0.0950  0.2323
21463W        W36594  15.893  12.671   4.353  0.1090  0.0887  0.0786
21464W        W36595   8.407   4.656   2.748  0.0909  0.2228  0.1892
21465W        W36596  10.144  11.298  13.785 -0.3276  0.1912 -0.1185
21466W        W36597   7.779   7.217   2.279  0.1222  0.3070  0.2038
21467W        W36598  11.117  12.350   3.593  0.2682 -0.0675  0.0318
21468W        W36599   3.820   7.589   1.107 -0.2414  0.0266 -0.1942
21469W        W36600  13.248   2.504   2.307 -0.0637  0.0604 -0.0492
21470W        W36601   9.441   3.312  11.357 -0.1503 -0.1253  0.0538
21471W        W36602   7.331  13.078  13.750  0.3098  0.0293  0.0149
21472W        W36603  12.211  15.699  11.724  0.1384 -0.0334 -0.3736
21473W        W36604   0.186  10.198   3.024  0.0363 -0.1964  0.1593
21474W        W36605  16.050  13.490  15.681 -0.1579 -0.1106  0.1475
21475W        W36606  10.419   0.665   1.847  0.0409 -0.5798  0.3397
21476W        W36607   0.077   3.231   2.015  0.1742 -0.3274  0.2250
21477W        W36608   2.082   4.135  12.333  0.1329 -0.0353  0.0808
21478W        W36609   3.308   2.185  12.796 -0.0152  0.2796 -0.0137
21479W        W36610   5.472  17.516  15.060 -0.1425  0.4231  0.2610
21480W        W36611   7.894  17.474  13.967 -0.2640  0.1354  0.1550
21481W        W36612   3.134  18.240  14.870  0.2168 -0.0019  0.0273
21482W        W36613   7.142   5.531  11.473  0.2898 -0.0476  0.1006
21483W        W36614  17.456  13.509  13.491 -0.0329 -0.0569 -0.0939
21484W        W36615  10.684   6.832  11.337 -0.1007 -0.0530 -0.2604
21485W        W36616   0.026  17.734   5.755  0.1511  0.0195  0.0489
21486W        W36617  14.106   2.014  13.495  0.3220 -0.0026  0.3426
21487W        W36618   5.484   9.291  13.650 -0.1528 -0.0204 -0.1767
21488W        W36619   8.922  16.523  12.371  0.2335 -0.1297 -0.2220
21489W        W36620  14.181   4.857  14.955  0.1294 -0.0468 -0.2913
21490W        W36621   6.599   5.734   2.245  0.2562  0.2105 -0.3740
21491W        W36622  13.364  16.188   1.679 -0.0562 -0.1599  0.3294
21492W        W36623  13.279   5.772   0.199 -0.1443 -0.0516 -0.1146
21493W        W36624   9.970  15.225  14.532  0.0250 -0.1060  0.2550
21494W        W36625  14.377   6.650  10.531  0.1471  0.0320 -0.0456
21495W        W36626  10.922  16.727  11.180 -0.2685 -0.0483  0.1821
21496W        W36627  13.176   2.844  13.311  0.0184  0.0138 -0.0052
21497W        W36628   7.291  12.384  12.612 -0.1784  0.2669 -0.2842
21498W        W36629  15.220  14.109   0.366  0.0367 -0.0278  0.0402
21499W        W36630   0.219   1.658   3.895 -0.2938  0.1541 -0.1161
21500W        W36631   0.858  14.650   3.825  0.1016  0.3388  0.0287
21501W        W36632  17.586  16.206  12.565 -0.1090 -0.3199 -0.0080
21502W        W36633  17.416  14.877  13.159 -0.0306  0.1743 -0.2393
21503W        W36634   0.607   5.455  16.078  0.3883  0.1851 -0.0106
21504W        W36635  17.498   4.509   5.982 -0.1650  0.1279  0.1504
21505W        W36636   2.443   8.563   3.626 -0.0161  0.1506 -0.0866
21506W        W36637  17.156  16.333  15.692  0.0406 -0.1109  0.0596
21507W        W36638   8.165   1.529  12.882  0.1263  0.0711 -0.1802
21508W        W36639  17.052  15.677   0.752  0.1324 -0.0051 -0.1999
21509W        W36640  10.910   4.108  11.269  0.1774 -0.1116 -0.3323
21510W        W36641   9.452   0.054   1.161  0.0309  0.1092  0.0972
21511W        W36642   3.040  15.302  12.136 -0.0515 -0.0994  0.0006
21512W        W36643   4.890  14.439   0.747 -0.0476  0.1695  0.2897
21513W        W36644   0.637   8.321  15.442 -0.0042  0.0829 -0.0803
21514W        W36645  10.408  11.484   5.291 -0.2207 -0.1122 -0.0366
21515W        W36646  10.213   5.778   0.662 -0.3850  0.0708 -0.0866
21516W        W36647   7.958   8.214   1.119  0.1400 -0.1241 -0.1331
21517W        W36648   8.122   2.049   1.645  0.1003 -0.0204  0.0422
21518W        W36649  18.067   1.558   4.562 -0.1086  0.0287 -0.1585
21519W        W36650   3.128  14.447  15.125  0.1553 -0.1243  0.3793
21520W        W36651   1.762  16.931   4.507  0.2022 -0.3339 -0.1061
21521W        W36652   6.566   3.826   4.026 -0.1027 -0.1398 -0.1200
21522W        W36653   9.773  16.280   4.611  0.0882  0.3079 -0.1623
21523W        W36654  17.072   7.055   0.118 -0.0322  0.0368  0.0223
21524W        W36655   2.084  10.291  14.949 -0.2011 -0.3299 -0.0507
21525W        W36656   8.032   9.207   1.033  0.2810 -0.0131  0.1241
21526W        W36657   9.622   0.436   0.885  0.1197  0.3079  0.1329
21527W        W36658  14.023  15.652   1.706 -0.1129  0.0361  0.1922
21528W        W36659   0.878   5.791  12.883 -0.1052  0.2150 -0.0232
21529W        W36660   8.830  18.349   0.699 -0.0281  0.1073  0.3258
21530W        W36661   4.283   7.410  14.687 -0.0247 -0.0555 -0.0570
21531W        W36662  15.708  14.505   2.838 -0.1463  0.1332 -0.1174
21532W        W36663  11.726  11.606   1.495  0.0033  0.0485  0.0656
21533W        W36664   6.780   7.674   3.029 -0.1144  0.1855  0.0117
21534W        W36665   3.423   0.872   3.343 -0.1922 -0.1860  0.2344
21535W        W36666  10.471   9.801   5.816 -0.1096  0.0558 -0.1034
21536W        W36667   2.207   8.906   0.916  0.0559  0.2338 -0.1740
21537W        W36668  11.099   5.211  14.401 -0.1549 -0.0740  0.1206
21538W        W36669  15.862   1.294  11.858 -0.1983  0.0305 -0.1279
21539W        W36670  12.271  14.766   3.275  0.2335  0.5172 -0.2407
21540W        W36671  17.828   8.154  11.162  0.0966 -0.1376  0.0530
21541W        W36672   7.024  10.166   5.766 -0.1525  0.2232  0.0081
21542W        W36673   0.967   7.097   3.998  0.3929  0.0713  0.3149
21543W        W36674  11.054  10.357  12.284 -0.0688 -0.1425  0.1872
21544W        W36675  12.376   0.461   5.660  0.0384 -0.0974 -0.1203
21545W        W36676   9.928  13.688   4.894 -0.2020 -0.0359 -0.0841
21546W        W36677   4.977   4.859  12.981 -0.0265 -0.0353 -0.1230
21547W        W36678   4.334   0.102   0.927 -0.2603  0.2801  0.2628
21548W        W36679  11.337  10.922   0.932 -0.1491  0.0993 -0.0439
21549W        W36680   8.115  15.749   1.098 -0.0445  0.2264 -0.2117
21550W        W36681   4.330   3.885   5.878 -0.0554  0.0984 -0.4374
21551W        W36682   3.919   1.600  13.024  0.1708 -0.0973  0.2121
21552W        W36683   1.839  12.892  14.589  0.0510 -0.2740 -0.0323
21553W        W36684   0.681  12.781   3.095  0.1012  0.1732  0.2031
21554W        W36685  14.827   7.609  13.171 -0.0963 -0.1059  0.2531
21555W        W36686   9.729   8.955   1.089 -0.0479  0.1619  0.0123
21556W        W36687  16.550  11.363  14.353  0.2034 -0.0360 -0.3398
21557W        W36688  15.889  16.151  14.639 -0.0230  0.0667 -0.0950
21558W        W36689  15.492   7.432   5.371  0.0099  0.3350 -0.2626
21559W        W36690   9.636   4.636   1.005 -0.3953 -0.0243  0.2977
21560W        W36691  14.391   6.102   4.929  0.3549  0.1154  0.1852
21561W        W36692   2.585   9.377   1.296  0.0940  0.1798  0.0205
21562W        W36693  13.401  12.057  14.256 -0.0709  0.3252  0.1068
21563W        W36694   0.434  17.389  14.696 -0.2224  0.0688  0.1078
21564W        W36695   2.146  10.592  14.069 -0.0726  0.2852 -0.3412
21565W        W36696  12.001   4.459   0.472 -0.1856 -0.2646  0.0744
21566W        W36697   8.888  13.938  15.977 -0.4467  0.0420 -0.0989
21567W        W36698  16.224   2.194  12.354  0.3688  0.0309  0.1281
21568W        W36699   2.471  16.612   1.723 -0.1024 -0.1484  0.3391
21569W        W36700  17.159   9.335   0.909 -0.0339 -0.1426 -0.2423
21570W        W36701  13.707   6.855  15.117 -0.0214 -0.2885 -0.2592
21571W        W36702   7.133  15.908  12.662 -0.1285  0.1943 -0.0315
21572W        W36703   0.805   7.612  12.654 -0.0946 -0.0370  0.0906
21573W        W36704  15.965   2.792   2.257  0.2117 -0.1601 -0.0136
21574W        W36705  15.979   2.879  14.646 -0.0983  0.2405 -0.4232
21575W        W36706   9.631  17.470   0.743  0.2659  0.0262 -0.0336
21576W        W36707  14.309  15.933   5.372  0.2211  0.0396  0.1058
21577W        W36708   7.760  10.927   4.401  0.1422  0.1248  0.0537
21578W        W36709  17.250  13.565  15.715  0.0814 -0.2411  0.0370
21579W        W36710  11.976   5.941   5.109  0.0319 -0.0565 -0.2457
21580W        W36711   0.153   6.326   0.992 -0.0486  0.2630  0.3111
21581W        W36712   0.077  12.422   1.623 -0.0297 -0.2518  0.1319
21582W        W36713  11.642   2.342   3.161 -0.0780  0.0100 -0.1766
21583W        W36714  17.286  11.239  12.057  0.2713  0.1016 -0.2231
21584W        W36715   2.699   7.249   4.516  0.0167  0.0288 -0.1572
21585W        W36716  11.393  13.175  14.203 -0.2980  0.0237 -0.0774
21586W        W36717   0.764  12.279  11.939 -0.2024 -0.3291 -0.0272
21587W        W36718  15.185  17.263  13.781  0.1648  0.1769 -0.3223
21588W        W36719  16.524   9.195   3.666  0.2601  0.1391 -0.0003
21589W        W36720   6.043  12.007   2.392  0.1312  0.1312  0.1355
21590W        W36721   2.436  10.935  12.932  0.0408  0.1442 -0.2618
21591W        W36722  11.401  15.346   3.023 -0.1292  0.1180 -0.1032
21592W        W36723   9.898   8.090   1.679 -0.0102  0.0535 -0.0380
21593W        W36724  11.775   2.768   5.604  0.0784 -0.0557 -0.1981
21594W        W36725   1.213  12.537  11.898  0.1662  0.2536 -0.1851
21595W        W36726  12.890   1.573   1.837  0.0989 -0.0938 -0.1794
21596W        W36727  14.741  15.987  11.686  0.0387  0.6820  0.0293
21597W        W36728   2.083   3.606  15.871 -0.2970 -0.0119 -0.2854
21598W        W36729   7.456   4.948   4.261 -0.1435 -0.0007  0.0943
21599W        W36730  17.203   0.274  13.201  0.2707 -0.0216 -0.1850
21600W        W36731  18.334   8.262  13.255 -0.1365 -0.0701  0.0886
21601W        W36732  10.652   8.351   2.262 -0.1616 -0.1368 -0.0049
21602W        W36733   5.521   0.230  11.907 -0.3620  0.1740  0.1445
21603W        W36734   7.921   9.387   5.051 -0.1026 -0.2300  0.0695
21604W        W36735  14.207   8.691   3.431 -0.0937 -0.2370  0.2581
21605W        W36736  15.019   2.709   4.273 -0.4613  0.0545  0.2072
21606W        W36737   3.495  10.672   5.770 -0.0053  0.2314 -0.0682
21607W        W36738   6.449  14.390  14.752  0.0607  0.0585  0.2373
21608W        W36739   9.581   9.052  14.227  0.3479  0.3186  0.0085
21609W        W36740   4.257   5.268   5.681  0.0875 -0.1070  0.2907
21610W        W36741  10.566  12.722  11.762 -0.3286  0.5867 -0.1485
21611W        W36742   1.433   0.299   1.746 -0.0397 -0.0069  0.0555
21612W        W36743  10.236  16.274  12.966  0.0009  0.0479  0.0723
21613W        W36744   4.770   7.447   5.448 -0.2034  0.0950  0.1280
21614W        W36745  16.616  16.900   3.382  0.0182 -0.2061 -0.0882
21615W        W36746   4.690   6.156   1.166  0.0164 -0.0054  0.0943
21616W        W36747  17.662   6.625  14.599 -0.3978  0.1507 -0.0827
21617W        W36748  12.276  17.034  16.133 -0.0319  0.0304  0.1455
21618W        W36749   9.887  15.032   3.479 -0.2948  0.2945 -0.0293
21619W        W36750   7.513   8.808   1.836 -0.0344 -0.2177  0.2605
21620W        W36751  15.001   9.112   6.287 -0.0021 -0.2414 -0.0577
21621W        W36752   9.156   1.568  15.429  0.4771 -0.0224 -0.0755
21622W        W36753  11.957  15.596  15.556 -0.3666 -0.4113 -0.2792
21623W        W36754  16.194   6.618  13.843  0.2482  0.1788 -0.0595
21624W        W36755   7.256  15.517   0.789 -0.0328  0.2957  0.0103
21625W        W36756  13.883  11.445   5.827 -0.0483  0.0862  0.2505
21626W        W36757  14.302   8.680   3.911 -0.0254 -0.2039  0.0313
21627W        W36758   2.465   9.926   3.789 -0.1947 -0.1860  0.0507
21628W        W36759   6.307   1.301   4.077  0.3111 -0.1365  0.1297
21629W        W36760  13.858   0.330  10.112  0.1220 -0.1226 -0.2277
21630W        W36761  10.055  16.647   2.757 -0.2959 -0.0021  0.1527
21631W        W36762   1.041   0.705  12.735 -0.3150 -0.0585  0.0209
21632W        W36763   2.523  10.462  13.128 -0.2192 -0.1415 -0.0542
21633W        W36764  14.348  15.847   4.112 -0.0961 -0.2861 -0.0519
21634W        W36765  14.389   6.274   1.867 -0.1973  0.1033  0.2084
21635W        W36766   2.574  10.569   2.419  0.0022 -0.0867 -0.0623
21636W        W36767  16.822  11.066   3.842  0.1788 -0.0940 -0.3103
21637W        W36768   5.613   3.229   3.366  0.0310  0.0062 -0.4504
21638W        W36769  11.547  17.106  10.300  0.0757 -0.1599  0.0017
21639W        W36770   6.846   4.902  13.254 -0.1329 -0.2036  0.1354
21640W        W36771  16.519  15.916  11.940  0.2315  0.1106  0.2085
21641W        W36772   4.963   6.597  13.580 -0.0754 -0.0591  0.1145
21642W        W36773  18.321   4.427  10.844 -0.1930 -0.0331  0.1189
21643W        W36774  13.983   7.410   1.222  0.2799  0.1588 -0.0369
21644W        W36775   4.801   0.349  13.077  0.1669  0.0609 -0.0009
21645W        W36776  13.797   0.142  11.596 -0.4770  0.0333  0.0589
21646W        W36777   2.089   2.240  13.529  0.1404 -0.1457 -0.1039
21647W        W36778  14.160  12.663  13.179  0.1820 -0.0147  0.0914
21648W        W36779   6.993  13.319  12.197 -0.4080  0.0398 -0.2453
21649W        W36780  14.866   0.079  14.182 -0.2466  0.0404 -0.0441
21650W        W36781  15.620   6.869   1.945 -0.1123  0.2505 -0.1598
21651W        W36782  13.656  11.961  12.018  0.0892  0.0772 -0.0027
21652W        W36783   0.235   6.609  11.099 -0.0985  0.1360  0.1895
21653W        W36784   7.418   4.785   4.785  0.1033 -0.0383  0.2253
21654W        W36785   7.716   1.709  13.672  0.3603  0.1282 -0.0628
21655W        W36786   8.611   5.931   3.527 -0.1542  0.1032  0.0350
21656W        W36787   1.385  13.041  14.779 -0.1278  0.2837 -0.0948
21657W        W36788  11.783  13.876   2.319 -0.5619 -0.2474 -0.3315
21658W        W36789   3.485  13.412  13.226 -0.0787  0.0823 -0.2212
21659W        W36790   7.170   3.050   0.474 -0.2460  0.1271  0.0103
21660W        W36791   9.797   1.379   1.850  0.0039 -0.0921 -0.0679
21661W        W36792   1.609  18.369  11.634  0.0430 -0.1037 -0.1471
21662W        W36793   9.288  12.410   2.940  0.1111  0.0211 -0.0088
21663W        W36794  15.154   1.434  14.080 -0.1026  0.1315  0.2196
21664W        W36795   1.675  12.091  14.972 -0.1315  0.0843  0.0023
21665W        W36796   6.912   6.157  15.602 -0.0756  0.1553  0.4075
21666W        W36797  18.342  17.139   4.981 -0.2696 -0.3634  0.0517
21667W        W36798   0.070   1.158   1.630 -0.0514 -0.3757 -0.3000
21668W        W36799   3.566  15.750   4.736  0.1592 -0.1667  0.1885
21669W        W36800  14.225   1.096   5.152  0.3210 -0.0101  0.1434
21670W        W36801  16.592   4.402   1.081 -0.0932 -0.0315  0.0628
21671W        W36802   8.312  16.739   2.991 -0.1009 -0.1626 -0.0912
21672W        W36803  16.784   1.922  15.026  0.1180 -0.0681  0.0095
21673W        W36804  14.233   1.372  14.839  0.0746 -0.0063  0.0786
21674W        W36805   3.570  12.281  11.343  0.1867  0.0773  0.3669
21675W        W36806   3.220  14.136  15.980  0.3531 -0.0569 -0.1591
21676W        W36807   6.960   7.027  12.367 -0.1130 -0.1155 -0.0014
21677W        W36808   0.408   9.568  14.190  0.0945 -0.1296 -0.2601
21678W        W36809  15.247   0.630   2.582 -0.0414  0.1713 -0.0747
21679W        W36810   5.661  14.315  15.118 -0.0916 -0.1811  0.0113
21680W        W36811   6.794   9.792  13.798  0.1617  0.0456 -0.2906
21681W        W36812   6.659  13.232  15.998 -0.0435 -0.2316 -0.1920
21682W        W36813   9.195   7.329  12.155  0.0845 -0.0719 -0.0858
21683W        W36814  14.230   3.901   0.941 -0.2766 -0.2001 -0.1930
21684W        W36815  15.587   4.993  14.675  0.5279 -0.2226  0.2047
21685W        W36816   0.224   4.482   3.484  0.2751 -0.1855  0.4181
21686W        W36817  15.486   8.203  15.189 -0.0175 -0.2660  0.1197
21687W        W36818  17.978  13.373   3.877 -0.1402  0.0428  0.1650
21688W        W36819  14.766   5.846  15.522 -0.2836 -0.1074 -0.1996
21689W        W36820   2.645  11.711   0.414 -0.1577 -0.1290  0.1284
21690W        W36821  13.035  16.723   0.526 -0.1796  0.0142  0.2721
21691W        W36822  10.465  10.228   5.505  0.2627 -0.0632 -0.1611
21692W        W36823  12.030   2.907  12.210 -0.3286 -0.3748  0.0446
21693W        W36824   1.619   6.003  15.458  0.2425 -0.1170  0.0426
21694W        W36825  17.672  14.323  13.919  0.0039 -0.2785 -0.0132
21695W        W36826   5.508  11.607  14.747  0.0156 -0.2129  0.0724
21696W        W36827   8.926   0.647   1.901 -0.0232  0.0110  0.0417
21697W        W36828   5.642  17.829   1.965  0.3277 -0.1614  0.1403
21698W        W36829  14.510   2.150  13.275 -0.2169  0.1228  0.0385
21699W        W36830  12.471  10.564   2.064 -0.1016 -0.1731 -0.3722
21700W        W36831   0.995   6.160  13.250 -0.2184  0.0541  0.2307
21701W        W36832   9.597  11.557   3.805  0.2943  0.0692 -0.4721
21702W        W36833   9.152   4.099   4.856  0.0782 -0.1706 -0.5066
21703W        W36834  17.260   1.378   4.536 -0.0302  0.2378  0.0774
21704W        W36835  13.644   4.973   3.185 -0.1709  0.1118 -0.1673
21705W        W36836   6.259   4.639   6.315  0.1282 -0.2492  0.1497
21706W        W36837   0.365  16.501   0.314 -0.0643  0.2978 -0.0068
21707W        W36838  17.194  12.945  12.373  0.2151  0.0698  0.2456
21708W        W36839  11.610   7.793  12.245 -0.0009 -0.1574 -0.2436
21709W        W36840  14.248   3.488   4.190 -0.6424  0.0469  0.0061
21710W        W36841   0.410  18.030   5.130 -0.2712  0.2981  0.0642
21711W        W36842  13.394   3.670   4.138  0.1204  0.0311  0.6475
21712W        W36843  15.715  17.402  13.724  0.2744 -0.2399 -0.0650
21713W        W36844  10.905   5.270  13.914  0.1242  0.0648  0.2579
21714W        W36845   9.698   3.031  11.631  0.0682 -0.0362 -0.0848
21715W        W36846   9.735   5.859  13.347  0.1840 -0.1796 -0.0488
21716W        W36847  15.975  10.891  13.469  0.1566  0.0579  0.2137
21717W        W36848   1.883   4.092  15.808  0.1545  0.0268 -0.0233
21718W        W36849  17.800   2.180   5.191 -0.0756  0.0663 -0.2360
21719W        W36850   1.893  17.579  13.157 -0.3447 -0.1732 -0.0014
21720W        W36851  13.359   3.150  12.915 -0.2187 -0.2947 -0.0460
21721W        W36852   1.033  12.706  11.029  0.0091 -0.0365  0.2626
21722W        W36853  16.609  17.889  15.161 -0.0089  0.0233  0.1270
21723W        W36854   4.134  13.935  13.776  0.0901 -0.5009 -0.0305
21724W        W36855  12.307  15.567   0.881  0.1487 -0.0319 -0.2783
21725W        W36856   0.540  14.537  13.785  0.0230  0.0585 -0.0808
21726W        W36857  11.890   5.035   1.917 -0.1136  0.1298 -0.0690
21727W        W36858   5.741   5.797   1.512  0.1660 -0.0508  0.1446
21728W        W36859  10.835   0.208   0.837 -0.0217  0.1725 -0.0237
21729W        W36860  14.925   0.639   5.000 -0.0337 -0.1579  0.0041
21730W        W36861  12.953  15.794  15.517 -0.2176 -0.1489 -0.2325
21731W        W36862  12.484   4.932  14.516  0.0664 -0.0547 -0.2024
21732W        W36863   5.168   0.213   3.376  0.2527 -0.1470 -0.1299
21733W        W36864   5.531   4.913  12.565  0.1690 -0.1437  0.1898
21734W        W36865   3.195   5.497   2.536  0.0677  0.1146 -0.3470
21735W        W36866  14.516  13.458   1.532  0.2724 -0.0133 -0.1483
21736W        W36867   2.834  14.588   3.007 -0.2571 -0.0833 -0.0263
21737W        W36868  10.487   0.879  13.613  0.1591 -0.2156  0.0110
21738W        W36869  10.510   6.893   0.205  0.0897  0.1937 -0.1000
21739W        W36870   2.796   2.446   3.812  0.1637  0.5104 -0.1744
21740W        W36871  15.441   1.115  14.326  0.0123 -0.2431 -0.3837
21741W        W36872  12.619  16.737  14.279 -0.0169 -0.1215 -0.2013
21742W        W36873   9.062   4.752   2.899  0.2681 -0.0868  0.3897
21743W        W36874   5.650   7.206  13.536  0.0220 -0.1649  0.1175
21744W        W36875  12.003  10.920   4.819  0.2064 -0.1401 -0.2347
21745W        W36876  16.119   0.667   2.359 -0.1162  0.0222  0.2756
21746W        W36877  11.292  14.303   5.999 -0.0024 -0.0461 -0.1026
21747W        W36878  10.056  13.022   1.303  0.1137 -0.0723 -0.1812
21748W        W36879   3.528   7.640  15.959  0.1439  0.2631  0.2239
21749W        W36880   3.101  16.222  15.853 -0.1664  0.3806 -0.1417
21750W        W36881   0.884  11.366   1.233 -0.2223  0.2277  0.0304
21751W        W36882   9.055   0.110  14.280  0.3615  0.0986 -0.1078
21752W        W36883   1.219  16.738   0.176  0.0930  0.0596  0.3954
21753W        W36884   3.565   5.603  13.353 -0.0469  0.1243 -0.0202
21754W        W36885   7.084   0.968  15.848  0.1816 -0.0684  0.0686
21755W        W36886   9.101   8.771  13.315  0.0245 -0.4141 -0.0735
21756W        W36887   8.000   9.194  15.462  0.0669 -0.1164  0.0311
21757W        W36888   0.104   0.962   5.503  0.1752 -0.1072 -0.2810
21758W        W36889  11.920   2.631   3.465 -0.4279 -0.2509  0.2430
21759W        W36890  15.698   2.181   0.046  0.1349  0.2231  0.0242
21760W        W36891   5.851   8.106  12.403  0.2327 -0.2019 -0.0086
21761W        W36892  17.177   2.346  12.083 -0.1453  0.2896  0.2909
21762W        W36893   1.993  18.059  13.315 -0.0726  0.0261  0.3125
21763W        W36894  12.952   4.013   4.034  0.1400  0.0615 -0.3057
21764W        W36895   6.792   7.091   1.992  0.1675  0.0041  0.1470
21765W        W36896  13.145  13.715   3.021 -0.2426 -0.0407 -0.2868
21766W        W36897   5.624   9.746   4.774  0.2433 -0.2289 -0.2048
21767W        W36898   2.050  16.248  13.718 -0.0458  0.2978  0.4370
21768W        W36899   6.099   1.582   3.704 -0.0619  0.1118  0.0278
21769W        W36900  13.595   5.144  15.353  0.1152  0.3121 -0.3470
21770W        W36901  17.454  10.294   1.908 -0.1279  0.0119  0.0270
21771W        W36902  14.299  13.940   2.700 -0.0464  0.0558 -0.1926
21772W        W36903   0.537  14.600  12.284  0.2346 -0.0013  0.1022
21773W        W36904   2.653   5.430  15.965  0.0744  0.1056  0.0492
21774W        W36905  14.555  11.710   4.481  0.1028  0.4782  0.0555
21775W        W36906   1.848   6.072  12.839 -0.0802 -0.2111 -0.1021
21776W        W36907  11.320  12.897  12.357 -0.2674  0.1027  0.1043
21777W        W36908   5.546   6.923   4.168 -0.0641  0.0141  0.0510
21778W        W36909  17.516   2.246  14.288 -0.0113  0.3556  0.0307
21779W        W36910  10.497  14.203   3.050 -0.0409 -0.3275 -0.3284
21780W        W36911   9.971  14.747  11.526  0.1764  0.0400 -0.3794
21781W        W36912  16.691   2.323  12.125 -0.2482 -0.0871 -0.3714
21782W        W36913   3.719  18.248  16.138  0.1962 -0.1526  0.1692
21783W        W36914   2.570   1.682   2.186  0.1777  0.2982 -0.0479
21784W        W36915  17.622   7.144   2.727 -0.3756  0.1180 -0.3286
21785W        W36916   5.993   8.588   4.090  0.2448  0.2263  0.1498
21786W        W36917   5.571   9.218  14.448 -0.1612  0.0370 -0.0171
21787W        W36918   5.235   3.996  14.498  0.0757  0.3722  0.1243
21788W        W36919   4.219   4.810   1.422 -0.2527 -0.2306 -0.0235
21789W        W36920   7.622   0.443   3.908 -0.0544 -0.2243  0.0602
21790W        W36921  11.068   5.617  12.555 -0.2068 -0.1988  0.0127
21791W        W36922   4.867  13.353   0.168 -0.1302 -0.1926 -0.0235
21792W        W36923  15.906   8.807   3.202 -0.3950 -0.3732  0.1415
21793W        W36924  11.840  10.586  12.082  0.0049  0.1108 -0.4019
21794W        W36925  14.047  14.943  12.341  0.3035  0.2945  0.1253
21795W        W36926  18.335   9.863  14.160 -0.1522  0.2359 -0.0801
21796W        W36927  13.716   2.183   0.121 -0.2910 -0.0956 -0.0559
21797W        W36928  12.296   4.453   5.473  0.3015 -0.2574 -0.4579
21798W        W36929   0.969  16.170  11.232 -0.2840  0.4703  0.0531
21799W        W36930   3.565   7.114   3.023  0.2850 -0.0873  0.1976
21800W        W36931  11.473  10.715   1.322 -0.0657  0.0276 -0.0919
21801W        W36932  16.652  13.538  13.325  0.0257 -0.3382 -0.0955
21802W        W36933  16.143   2.940  10.848 -0.2337 -0.4568 -0.0379
21803W        W36934   5.068  10.474   4.395 -0.1964  0.1227  0.1856
21804W        W36935  15.164   7.355  12.805  0.3888 -0.0659 -0.2026
21805W        W36936  17.346   5.456  14.776 -0.0534 -0.1127 -0.3043
21806W        W36937  12.627  15.302   1.227 -0.0306  0.0648 -0.2518
21807W        W36938   5.928  12.760   1.442  0.1722  0.1252 -0.3197
21808W        W36939   3.252   2.898   1.712  0.2057  0.0970  0.0344
21809W        W36940  11.051  18.192   2.392  0.0001 -0.0023 -0.2852
21810W        W36941  12.371  10.769   1.589  0.6604 -0.0054 -0.3307
21811W        W36942   4.177   2.659   3.866 -0.0290 -0.0346  0.1031
21812W        W36943  14.328  15.136  10.941  0.0625  0.2639  0.0654
21813W        W36944  12.096   8.250   4.562  0.1210 -0.0966 -0.1181
21814W        W36945   6.185  16.870   4.674  0.1171 -0.3653  0.0900
21815W        W36946  11.341   3.610   2.814  0.1767  0.1259  0.0206
21816W        W36947  11.368   4.919   5.874  0.1324  0.0692 -0.0049
21817W        W36948  14.429  12.227  15.406 -0.0474 -0.0031 -0.0093
21818W        W36949  15.948  17.474  12.237  0.1133 -0.2046 -0.1284
21819W        W36950  11.946  16.547   1.308  0.0498 -0.3064 -0.3331
21820W        W36951  12.405   7.841  13.509  0.0717  0.1128 -0.0932
21821W        W36952  13.077   1.197  11.091 -0.0590 -0.3368 -0.2544
21822W        W36953  14.374  15.815  11.422  0.0522 -0.1530  0.0278
21823W        W36954   0.726  11.677   2.590  0.4923  0.0206 -0.0078
21824W        W36955   2.061   7.252  15.822 -0.0433  0.1049  0.0682
21825W        W36956  12.737   5.400  11.568 -0.3141  0.0275 -0.0801
21826W        W36957   6.314   4.766   5.472  0.2228 -0.1928  0.0470
21827W        W36958   1.408   6.594   4.310 -0.4105  0.0135 -0.3734
21828W        W36959  11.667   6.571  13.570 -0.0083 -0.0767  0.2261
21829W        W36960  14.581   6.100   4.058  0.0346  0.0147 -0.2537
21830W        W36961   2.167  17.241   6.342 -0.0030  0.2880 -0.1706
21831W        W36962  11.617   3.915   6.003 -0.0147  0.0411 -0.3400
21832W        W36963  17.714   5.186   5.556  0.1003 -0.0910  0.0574
21833W        W36964  17.870  16.638  11.841 -0.0217  0.0727  0.0418
21834W        W36965   9.838  13.057  12.377  0.1842  0.4881  0.3284
21835W        W36966  16.831   0.500   1.730 -0.2549 -0.2664  0.0606
21836W        W36967   0.340   3.506   3.841  0.1529 -0.0565 -0.0835
21837W        W36968   2.356  13.683   3.475 -0.2388  0.0753  0.1492
21838W        W36969   9.331   3.649   1.115 -0.0733  0.0591  0.0785
21839W        W36970  10.720   4.318   1.767  0.5871 -0.0891  0.2095
21840W        W36971   7.780  14.323  13.884  0.0815  0.1205 -0.1014
21841W        W36972  12.201   7.385  15.277  0.2470  0.0848 -0.2833
21842W        W36973   7.313  14.641   1.756  0.0782 -0.3412 -0.1099
21843W        W36974   6.564  10.767  14.720  0.0446 -0.0411  0.2955
21844W        W36975  11.243   3.311  12.496  0.2801 -0.2258  0.2013
21845W        W36976   0.562  15.798  15.761 -0.0995 -0.0735  0.0164
21846W        W36977  15.379   6.536  14.759  0.2194 -0.1341 -0.1685
21847W        W36978   5.968   2.975   2.406 -0.1554  0.1216 -0.0284
21848W        W36979  15.057   7.390   1.586 -0.1395  0.2128  0.0918
21849W        W36980  17.707  17.295   0.865 -0.0483 -0.1114  0.2001
21850W        W36981   3.514   5.426   1.031 -0.0811  0.2845  0.1064
21851W        W36982   7.956  17.773  11.853 -0.2081  0.2635 -0.1330
21852W        W36983  13.537  17.606  12.659  0.0650 -0.1503  0.0691
21853W        W36984  17.273  14.077  12.194  0.0230 -0.1950  0.0650
21854W        W36985   4.119   4.554   1.848  0.0110 -0.1130 -0.0904
21855W        W36986   8.094   9.970   4.777  0.0255 -0.1001  0.0247
21856W        W36987   7.859   9.893   0.667  0.1790 -0.0950 -0.0102
21857W        W36988  17.255  14.808  13.674  0.1465 -0.0949  0.3259
21858W        W36989  10.238   0.930   3.253 -0.2599  0.0730 -0.4916
21859W        W36990  10.104  14.885   2.255 -0.1971  0.0609  0.0822
21860W        W36991  16.039  14.110  12.082 -0.2410  0.0366  0.0857
21861W        W36992  17.231  17.934   0.850  0.4182 -0.0666  0.0102
21862W        W36993  14.633   3.891  13.786 -0.0626  0.0535  0.1829
21863W        W36994   7.912   7.267   1.351 -0.0619  0.2963  0.1476
21864W        W36995   6.631   9.037  11.108 -0.1114  0.1499 -0.0484
21865W        W36996   2.117  10.417   2.719  0.3055 -0.1413 -0.0703
21866W        W36997   6.864  14.322  10.762 -0.1893  0.0074  0.1178
21867W        W36998   1.767   0.060  14.182  0.2005 -0.0799  0.0579
21868W        W36999   6.562   1.191   3.324 -0.0711  0.0850  0.0504
21869W        W37000   7.308  14.796  15.361  0.2156 -0.0473  0.0517
21870W        W37001   1.851   6.879  16.053 -0.2745  0.2382 -0.1316
21871W        W37002  17.301  14.651   2.851 -0.4003 -0.1526 -0.1946
21872W        W37003   6.140   9.945  12.666  0.3590 -0.2069 -0.0258
21873W        W37004  15.840  11.058  13.915 -0.2848 -0.1625 -0.1405
21874W        W37005   5.779  16.037  16.127 -0.1165 -0.0542  0.1254
21875W        W37006   7.323   0.955  11.822 -0.1076  0.0099  0.0866
21876W        W37007  10.612   8.793  11.347  0.1438 -0.1584 -0.0965
21877W        W37008   0.073   3.930  13.836  0.0356 -0.0163  0.3709
21878W        W37009   3.620   2.632   1.891  0.0387  0.4889 -0.2058
21879W        W37010  16.832  12.617  12.458  0.0694 -0.1375 -0.2594
21880W        W37011  15.144  13.805   2.321  0.2991  0.1817  0.2388
21881W        W37012   6.756   2.629  15.891  0.2053 -0.3079 -0.2486
21882W        W37013   5.173  11.056   5.194 -0.3765  0.1519  0.1818
21883W        W37014   1.757  13.341  10.942  0.0613 -0.0379  0.4804
21884W        W37015   6.533  13.247  11.360 -0.0996  0.2767 -0.1994
21885W        W37016  16.947   2.267   4.618  0.2486 -0.1408  0.1022
21886W        W37017   6.456   1.037  12.954  0.3267  0.3015 -0.1980
21887W        W37018   4.240   7.320   0.356  0.2534 -0.0241  0.1585
21888W        W37019  17.190  11.109   0.053 -0.3020  0.1583  0.3272
21889W        W37020   7.433   5.861  14.359 -0.1143  0.1307 -0.1648
21890W        W37021   3.160   7.087   4.389 -0.0276  0.0642  0.1184
21891W        W37022  11.145  16.211  12.173  0.0651 -0.0690 -0.0963
21892W        W37023   6.055   8.096   1.183  0.3438 -0.1273  0.0150
21893W        W37024   5.033   7.084  13.489 -0.0118  0.0347  0.2740
21894W        W37025  16.986  18.262   5.758  0.2150 -0.0630 -0.1494
21895W        W37026  10.820  14.129  13.022 -0.3412  0.2516 -0.4443
21896W        W37027   5.164   3.037  14.171  0.0467 -0.2598  0.1294
21897W        W37028   2.900   6.301   3.290  0.3271  0.0218 -0.0246
21898W        W37029  12.267  16.755  12.384  0.1189 -0.1223 -0.1495
21899W        W37030  14.004   7.676  15.243  0.0627  0.1290 -0.2678
21900W        W37031  17.537   6.763  15.509 -0.1585 -0.0026 -0.4629
21901W        W37032  14.854   3.315   2.913 -0.0964 -0.0173  0.0135
21902W        W37033   0.790   6.535  15.898  0.3761  0.4529 -0.0482
21903W        W37034  17.790  17.706   5.566 -0.0676  0.2928 -0.0659
21904W        W37035  16.045  10.344   3.061 -0.1085 -0.1485  0.0977
21905W        W37036   5.441  10.613   4.807 -0.1106  0.0521 -0.2081
21906W        W37037  13.221   0.391  13.943  0.0328 -0.0443 -0.2301
21907W        W37038   7.066   0.035   0.058 -0.2920 -0.1569 -0.0982
21908W        W37039  10.833  16.876  15.825  0.0039  0.2985  0.1028
21909W        W37040   2.786   7.904  12.636 -0.4059  0.0461 -0.0734
21910W        W37041  17.760  16.531   2.316 -0.1768  0.0397  0.0711
21911W        W37042  13.496  11.549   1.887 -0.3775  0.1033  0.1254
21912W        W37043   3.940   6.338  14.547  0.0781  0.0825 -0.2310
21913W        W37044   8.856   2.500  13.527 -0.3373  0.1645 -0.0452
21914W        W37045   4.527  10.884   1.046  0.2746  0.0875 -0.2691
21915W        W37046   8.936  18.008  15.336  0.1744 -0.2585 -0.2084
21916W        W37047   7.453   8.169   4.778  0.0271 -0.0168 -0.1289
21917W        W37048   6.962  10.550  13.538  0.1679 -0.2988  0.1364
21918W        W37049   0.419  11.495  12.143 -0.2517 -0.1151  0.3374
21919W        W37050  10.082   5.450  11.384 -0.0484 -0.0467 -0.1191
21920W        W37051   9.675  16.142  15.058  0.0583 -0.0850  0.1770
21921W        W37052  14.907   5.387  14.872 -0.2221 -0.4503 -0.1123
21922W        W37053   2.834  14.040  14.817 -0.0950 -0.2639 -0.0944
21923W        W37054  16.029  16.985  15.375 -0.1045 -0.0999 -0.1653
21924W        W37055  18.047   3.971   1.949  0.2076 -0.1328  0.0093
21925W        W37056   8.520  13.002  10.688 -0.0887  0.0471 -0.0650
21926W        W37057   1.711   2.099   2.184 -0.0667  0.2226 -0.1203
21927W        W37058   8.361  15.078  13.874  0.1194 -0.0756  0.2930
21928W        W37059  11.280   2.775  15.810  0.3166 -0.0634  0.1555
21929W        W37060   0.000  16.591   5.092  0.3156 -0.1782  0.0931
21930W        W37061   9.529  15.748  10.154 -0.1926  0.2553  0.1663
21931W        W37062   1.105  14.521   0.865 -0.0031  0.2212 -0.1408
21932W        W37063   4.015   6.130  11.066 -0.2046 -0.0369  0.3636
21933W        W37064  18.261  16.208  13.477  0.1313 -0.0971 -0.0910
21934W        W37065   5.574   8.161   4.775 -0.0526  0.3894  0.2967
21935W        W37066   8.072   1.003  16.081  0.0225 -0.1417 -0.0134
21936W        W37067   4.549  16.495  11.728  0.0865  0.0024 -0.3082
21937W        W37068   1.718  10.058   5.008 -0.0623  0.2172  0.0461
21938W        W37069  12.312   8.331   2.442 -0.0509  0.0134  0.1026
21939W        W37070  10.870  11.205   4.119 -0.1931  0.1091  0.1280
21940W        W37071   8.346   4.292   1.310  0.0791 -0.2518  0.1075
21941W        W37072   8.596   4.048   0.599 -0.1422 -0.2093  0.0906
21942W        W37073  17.304   5.276   1.584 -0.0371  0.0636  0.1140
21943W        W37074  14.591  14.971   5.339 -0.1333 -0.1066 -0.1676
21944W        W37075  15.372   8.256   1.300 -0.0496  0.1824  0.2531
21945W        W37076  11.534   3.337   0.674  0.0938 -0.2056 -0.3118
21946W        W37077  12.419   6.190   3.638  0.0798  0.0003  0.2098
21947W        W37078  13.666   9.988   0.990  0.4143 -0.0185  0.1403
21948W        W37079  10.616   1.394  11.457 -0.0622 -0.0920  0.1991
21949W        W37080  10.051   5.012   2.065 -0.1564 -0.1330  0.1661
21950W        W37081   2.008  16.095   2.195 -0.0349  0.0024 -0.0610
21951W        W37082   2.695   9.364   4.512  0.0528 -0.0310 -0.1332
21952W        W37083   6.093  15.241  13.548  0.0775 -0.1651  0.1838
21953W        W37084  11.804  11.238   2.461  0.0361  0.1733 -0.0985
21954W        W37085   8.458   0.816  15.866 -0.0349 -0.0563  0.3323
21955W        W37086  10.521   5.065  12.136 -0.0186 -0.2043 -0.2689
21956W        W37087   1.652   0.750   3.419 -0.0447 -0.0351 -0.2667
21957W        W37088   5.946  13.218  10.884  0.3353 -0.0759  0.1240
21958W        W37089   4.234  17.103  12.134 -0.0846  0.3793  0.1265
21959W        W37090  16.441  15.640   3.404 -0.1968 -0.2677 -0.2971
21960W        W37091  16.258  12.170   1.818  0.1200 -0.1581 -0.1187
21961W        W37092   5.227  17.989  14.176 -0.0878 -0.3661  0.1829
21962W        W37093  17.168   0.094  12.321  0.0558 -0.0897  0.1492
21963W        W37094  18.008   7.105  13.883 -0.0111  0.2164  0.3701
21964W        W37095   9.082   1.465   0.675 -0.1457 -0.2376  0.1565
21965W        W37096   8.382  14.042   3.919  0.2746  0.3223 -0.0117
21966W        W37097   1.186   9.838   1.593  0.2686 -0.2752 -0.0067
21967W        W37098   3.050   4.217   1.338  0.0785 -0.3526  0.0991
21968W        W37099   3.969  13.615   4.256  0.0565 -0.2567  0.0590
21969W        W37100   7.874   8.559   4.899  0.0463 -0.0777 -0.0186
21970W        W37101   5.987  17.852  11.425 -0.0030 -0.2126  0.2266
21971W        W37102   1.681  10.859  15.653 -0.0304  0.1442 -0.0409
21972W        W37103  14.113  11.756   1.013 -0.1012 -0.0924  0.1497
21973W        W37104  15.908  12.935   0.325 -0.0134 -0.4082 -0.0705
21974W        W37105  10.092   6.410   2.308 -0.3602 -0.2463 -0.0122
21975W        W37106  12.898  17.828  14.748  0.1947 -0.0151 -0.1240
21976W        W37107   5.100  10.993   4.334 -0.1401 -0.0568  0.2543
21977W        W37108   7.815   3.868  15.070  0.0666 -0.0068  0.2584
21978W        W37109   3.507   4.783  12.438  0.2726  0.2780  0.5202
21979W        W37110   8.438  16.765   3.560  0.1580  0.0706  0.1598
21980W        W37111  15.896   2.975  13.770 -0.0760 -0.0925 -0.0333
21981W        W37112   2.292   6.689   0.101  0.3491 -0.1087  0.3079
21982W        W37113   0.311   5.077  14.882  0.0242  0.0750  0.1633
21983W        W37114  13.015   8.743   1.183 -0.3063  0.2464 -0.1827
21984W        W37115   3.660  15.753   2.142 -0.0637  0.1287  0.3399
21985W        W37116   6.944   9.982   4.721 -0.0736  0.4539 -0.0494
21986W        W37117  16.279  14.609   4.846 -0.1639  0.2083 -0.3119
21987W        W37118   6.005  16.867  12.749  0.2623  0.1197  0.2932
21988W        W37119   9.499  18.141  14.225 -0.0131  0.0690  0.0226
21989W        W37120  11.866   4.715  13.360 -0.0787 -0.0265 -0.3534
21990W        W37121   1.241   0.825  11.528 -0.2956  0.1557  0.0785
21991W        W37122   8.687  13.883  10.536  0.1839 -0.2002 -0.1867
21992W        W37123   1.283   7.447  12.473  0.1097 -0.1007  0.2627
21993W        W37124   6.198   2.101   2.498  0.3543 -0.0667  0.1697
21994W        W37125   1.789  15.707  13.173  0.0827  0.3538  0.0699
21995W        W37126   5.585   7.081   3.465  0.3343  0.1733 -0.0327
21996W        W37127   0.323   7.610  12.591 -0.1032 -0.1504 -0.0591
21997W        W37128   8.067  11.121  11.927 -0.1322  0.1188 -0.3416
21998W        W37129  17.840  16.948   4.261 -0.0343  0.1390 -0.2590
21999W        W37130   4.314   2.611   4.973  0.0495 -0.1542  0.0050
22000W        W37131   8.845   5.656   0.938 -0.1878  0.0202 -0.4468
22001W        W37132   3.286  16.821  11.352 -0.5201 -0.2491  0.1414
22002W        W37133   2.996   0.876  12.471  0.3206  0.0783 -0.1955
22003W        W37134   7.248   8.539  12.180 -0.0478  0.0456 -0.0001
22004W        W37135   3.838  15.498  10.649  0.2471 -0.1791 -0.1081
22005W        W37136  15.745  14.934   2.650  0.0311  0.0588  0.2119
22006W        W37137   3.088   6.269   1.245  0.0742  0.1463  0.1056
22007W        W37138  16.889   3.703  14.573  0.1168 -0.1681  0.0019
22008W        W37139   3.636  12.655  12.165  0.0092 -0.0362 -0.0883
22009W        W37140  15.334  14.427  11.540 -0.2368  0.0101  0.2184
22010W        W37141  10.548   3.071  14.469  0.1227 -0.1981 -0.0990
22011W        W37142  11.292   1.916   3.688  0.1409 -0.2075  0.0788
22012W        W37143  13.556   7.635  15.556  0.1383 -0.2379  0.0511
22013W        W37144  11.681   8.376  15.264  0.0050  0.0169 -0.1913
22014W        W37145   5.209  14.958   5.193  0.0526 -0.1882  0.1586
22015W        W37146  16.799   7.696  12.653 -0.1131 -0.1233  0.0452
22016W        W37147  16.648   9.530  15.403  0.0585 -0.2822  0.3928
22017W        W37148   7.813   0.406  14.634 -0.0614  0.5769 -0.0153
22018W        W37149  17.626  12.580   4.990 -0.0733  0.2537 -0.1015
22019W        W37150   5.699  16.785   3.444  0.1265  0.0047  0.1310
22020W        W37151  17.157  13.951  13.309 -0.0513  0.2728 -0.0417
22021W        W37152   0.281  15.890   4.293 -0.0058 -0.1696  0.0364
22022W        W37153  16.058   1.232   6.836  0.1044  0.1611 -0.1717
22023W        W37154   6.614   7.832   3.948  0.0721  0.0490 -0.1406
22024W        W37155  15.515   4.175  13.986  0.0376 -0.0206 -0.2335
22025W        W37156   9.411   2.148   0.104  0.1217 -0.0063  0.3110
22026W        W37157  13.960   3.378  13.600  0.2494  0.2750  0.2973
22027W        W37158   0.746   8.580   2.292 -0.0137 -0.0003 -0.2204
22028W        W37159   2.461  15.913  15.218  0.1950 -0.0804 -0.0334
22029W        W37160  10.221   4.715  15.401  0.1797 -0.0385 -0.3854
22030W        W37161   6.507  10.273   5.814 -0.1894 -0.0049  0.1167
22031W        W37162  15.167  14.652   2.098  0.1259 -0.0020 -0.0887
22032W        W37163   8.504   2.212   2.883  0.3081  0.1226  0.0469
22033W        W37164   3.006   9.995   1.651  0.2154 -0.0827  0.0643
22034W        W37165   4.735  17.112   0.850  0.2418 -0.0749  0.1475
22035W        W37166   0.676   9.719   0.092 -0.1838 -0.3525 -0.0910
22036W        W37167   4.036   8.696   2.216  0.1836 -0.0007 -0.1535
22037W        W37168   8.349  12.525   3.793  0.0979 -0.1193 -0.0520
22038W        W37169   3.456   8.946   3.154  0.1706 -0.4205 -0.0461
22039W        W37170   7.942  16.075  11.353 -0.1963 -0.3112  0.2759
22040W        W37171  17.862   1.305  13.344  0.4608  0.0202  0.1513
22041W        W37172   2.185  14.401   1.436 -0.2201 -0.0267  0.0520
22042W        W37173  18.224  17.884   4.056 -0.0363  0.1657  0.1176
22043W        W37174   2.958   3.408   4.895 -0.0677  0.1632  0.0148
22044W        W37175   4.020   9.097   1.265  0.0932 -0.0734 -0.0241
22045W        W37176  13.894   2.460  12.732 -0.2188 -0.1109  0.0814
22046W        W37177   1.837   8.636   2.922  0.1859  0.1177 -0.1176
22047W        W37178   8.719   8.090   0.452  0.1823 -0.3137  0.2228
22048W        W37179   9.268  12.816   3.258 -0.0006  0.0227 -0.2873
22049W        W37180   4.691   0.925  12.778 -0.0520 -0.0174  0.4260
22050W        W37181   4.892   8.687   2.991 -0.0151 -0.2795  0.0888
22051W        W37182  13.912  13.145  15.953 -0.4216  0.4375 -0.0456
22052W        W37183  17.003   1.030  11.545 -0.4047 -0.0589 -0.0256
22053W        W37184   0.915   0.189  15.341  0.0347  0.0569  0.0464
22054W        W37185   2.082  10.099  10.677  0.2365  0.1756 -0.0712
22055W        W37186  11.767  14.578  11.982  0.0492  0.0426  0.0470
22056W        W37187  10.182   3.336  13.295 -0.3644 -0.3336  0.0524
22057W        W37188  15.381  14.742   3.141 -0.0428  0.1001 -0.1208
22058W        W37189   2.091  13.335   2.389  0.2589  0.0593 -0.0912
22059W        W37190  15.868  11.703   1.188  0.0553  0.1339 -0.1296
22060W        W37191   4.846   7.765  15.902 -0.2059 -0.4508  0.1057
22061W        W37192  12.650   1.965   3.392 -0.1356  0.2247  0.3545
22062W        W37193  11.912  13.661   3.695  0.1712  0.2873 -0.0525
22063W        W37194  15.039  16.394  14.652 -0.2709 -0.0489 -0.0130
22064W        W37195   3.139   5.470   5.916 -0.1171 -0.3153  0.0442
22065W        W37196  12.668  13.740  14.655 -0.2034 -0.3242  0.2124
22066W        W37197   1.312  11.138   2.084  0.2692 -0.1444 -0.4717
22067W        W37198   3.409   9.269   0.059 -0.1134  0.1772 -0.2535
22068W        W37199   6.922   9.404   0.269 -0.3469 -0.1097  0.0689
22069W        W37200   9.778  16.636  15.795  0.2309  0.0527 -0.3685
22070W        W37201   2.304  11.035  14.283 -0.0299  0.0385  0.1634
22071W        W37202   2.073  16.994   3.656  0.1012  0.0142 -0.2341
22072W        W37203   9.699  14.329  11.343 -0.3450 -0.0624 -0.3201
22073W        W37204  12.985  17.233  14.937  0.3639 -0.2630 -0.0060
22074W        W37205  15.836  12.150   4.186  0.0158 -0.0069  0.1325
22075W        W37206  13.819  11.156  15.755  0.3251 -0.0257  0.2106
22076W        W37207   5.186   0.707  13.447  0.2008  0.1197 -0.0449
22077W        W37208   1.888  17.298   1.396 -0.0130 -0.2376  0.1826
22078W        W37209   4.577   4.744  13.984 -0.2990  0.1644  0.3915
22079W        W37210   6.079  16.220   0.694  0.0697 -0.0846 -0.1200
22080W        W37211  10.873  17.185  12.023  0.1997  0.1326 -0.0976
22081W        W37212   0.942   6.586   4.182  0.1139 -0.1474 -0.1588
22082W        W37213   6.064  17.634   4.169 -0.1445  0.0089  0.2076
22083W        W37214   5.839  11.973  16.073  0.3842 -0.4077 -0.2153
22084W        W37215   3.316   7.317  11.714  0.3242  0.1067 -0.0541
22085W        W37216  17.950  12.858   2.102 -0.3724 -0.3754  0.2109
22086W        W37217   0.048   8.415  12.225 -0.1106 -0.0796 -0.0659
22087W        W37218   0.047  17.433   3.622 -0.0193 -0.0490 -0.0798
22088W        W37219  12.955   0.762  13.395 -0.0388  0.3311 -0.0462
22089W        W37220   8.246   7.940   4.688 -0.2305 -0.0844 -0.1869
22090W        W37221  12.791   9.043   2.114  0.2781 -0.0450  0.0306
22091W        W37222   9.724  16.873   3.668 -0.0904  0.2205 -0.0154
22092W        W37223  13.300  17.923   2.475 -0.0157 -0.1974 -0.1807
22093W        W37224  10.570   0.371   5.549  0.0191  0.0309 -0.0310
22094W        W37225   5.385   4.032  11.570  0.1027 -0.0195 -0.3191
22095W        W37226  14.346  15.936   2.670 -0.2687  0.1170  0.0060
22096W        W37227   0.436  16.941  13.217 -0.0553  0.0442 -0.1687
22097W        W37228   0.267   8.738   4.152  0.0422 -0.0480 -0.0548
22098W        W37229  18.045   7.091  12.158  0.1642  0.1998 -0.1723
22099W        W37230  10.454   3.153   4.309  0.1977  0.1260 -0.0434
22100W        W37231   1.684  10.943  10.940 -0.0017  0.0662 -0.0639
22101W        W37232  11.631  15.558  13.443  0.2842  0.0390 -0.0650
22102W        W37233  14.341   2.538   1.646  0.0723  0.0285 -0.0151
22103W        W37234   0.530  15.004   0.153  0.0645 -0.1065 -0.2214
22104W        W37235  10.270   7.537   5.267 -0.2247  0.1392  0.3329
22105W        W37236   2.358   1.565   2.656 -0.2353  0.0045  0.1548
22106W        W37237  10.963   4.275   3.307  0.0768 -0.1706  0.0148
22107W        W37238   4.165  12.505   0.794 -0.0931  0.2903  0.0857
22108W        W37239   5.881   6.787   4.536 -0.2262 -0.6229 -0.0060
22109W        W37240   7.418   8.618  10.805 -0.3222  0.0667  0.1196
22110W        W37241   8.281   8.930  15.775 -0.0888  0.2324 -0.0778
22111W        W37242   9.145  14.967   4.895  0.1152  0.0151  0.0985
22112W        W37243  13.659   7.286  14.325 -0.0615 -0.0546 -0.2566
22113W        W37244  12.527   8.099   1.307 -0.2213  0.0689 -0.1698
22114W        W37245  17.812   3.942  13.894  0.1408 -0.0129 -0.1198
22115W        W37246  16.374   9.571   0.979 -0.0589 -0.3914  0.0959
22116W        W37247   5.214  14.084   2.662  0.3685 -0.2905 -0.1619
22117W        W37248  10.500   6.835  11.856 -0.5392 -0.2443 -0.2122
22118W        W37249  11.266  13.243  16.020 -0.4528 -0.0342 -0.1361
22119W        W37250   9.779   9.358   0.307 -0.3881  0.1161  0.1844
22120W        W37251   8.406  18.199  14.734  0.0764  0.1088  0.1774
22121W        W37252   2.115  14.408  13.119 -0.1971  0.1266 -0.0759
22122W        W37253   1.057   2.031   3.515 -0.0254  0.2292 -0.2558
22123W        W37254   7.091  10.416  16.138  0.2003  0.2191  0.0323
22124W        W37255   6.827   4.982   0.776 -0.2226  0.1565  0.0894
22125W        W37256  14.826  14.519  12.468  0.0892  0.0120  0.0335
22126W        W37257  16.749  11.523   4.710 -0.2190 -0.0074  0.3001
22127W        W37258   3.203  15.686  16.008 -0.1442 -0.3675 -0.3140
22128W        W37259  13.134  11.058   3.722 -0.0059  0.0109 -0.1834
22129W        W37260   1.832   5.920  10.401 -0.2477  0.1735 -0.1487
22130W        W37261  13.398   4.838   3.977  0.0527  0.1377 -0.1908
22131W        W37262  15.507  15.915   2.839 -0.3532  0.0076 -0.0393
22132W        W37263   1.061  13.371  13.139 -0.1614  0.2809 -0.1035
22133W        W37264   6.225  15.444   1.698 -0.2173  0.0025  0.0945
22134W        W37265   4.364   3.209   1.529 -0.0817 -0.1184  0.0052
22135W        W37266  10.060  11.593   1.469 -0.1813  0.2002 -0.1910
22136W        W37267  13.125   9.610   0.333 -0.2855 -0.0108  0.1049
22137W        W37268   8.548   1.037   1.448 -0.0418 -0.0824 -0.2296
22138W        W37269  15.165  14.864  12.119 -0.1520 -0.1978 -0.1800
22139W        W37270   0.519  10.647   0.514 -0.0844 -0.2147 -0.3882
22140W        W37271  10.720   7.126   4.262 -0.2542 -0.1581 -0.1189
22141W        W37272   3.364  14.891   2.883 -0.0248 -0.2160 -0.1358
22142W        W37273   5.386   1.146   3.200  0.1144  0.0113 -0.1521
22143W        W37274   4.639   4.049   4.681  0.2080 -0.0998  0.0205
22144W        W37275  10.818   3.607   4.114  0.2486 -0.2756  0.1534
22145W        W37276   7.084   9.116   2.810  0.0563  0.3934 -0.4551
22146W        W37277  16.134  15.955   4.603  0.2560 -0.2689  0.0033
22147W        W37278   4.875   6.238   1.612  0.0285 -0.0486 -0.1130
22148W        W37279   2.060   3.793  11.217 -0.2245 -0.0973 -0.0861
22149W        W37280   1.838   7.319   3.271 -0.1414  0.2432 -0.0224
22150W        W37281   1.268   3.827  13.801 -0.0985 -0.2286  0.2414
22151W        W37282   9.073  14.381  15.807 -0.1272 -0.3038  0.2099
22152W        W37283   6.768   8.447  15.394  0.0300  0.0184 -0.1407
22153W        W37284   2.943  12.639  12.251  0.1614  0.1819 -0.2909
22154W        W37285   2.681  11.785   2.897 -0.0832 -0.3173  0.4356
22155W        W37286   1.451  16.035  11.071  0.0305  0.2862 -0.1103
22156W        W37287  12.061  14.649  15.573  0.1612  0.1823  0.1053
22157W        W37288  11.874   5.939   1.113  0.0196  0.1810  0.3136
22158W        W37289  17.155   6.101  15.245 -0.3232  0.2435 -0.3158
22159W        W37290   3.325  12.050   4.382  0.0494  0.2194 -0.0613
22160W        W37291  10.458   7.804   0.563 -0.0920  0.1440  0.4209
22161W        W37292  14.876   2.617   0.289 -0.0922 -0.0083 -0.1632
22162W        W37293  14.440   2.571   4.518  0.1494 -0.2305 -0.1151
22163W        W37294  13.078  12.918   4.007  0.2374  0.3913  0.0748
22164W        W37295  14.718  10.332   0.109  0.3748 -0.1741 -0.1680
22165W        W37296  12.789   7.547  13.386 -0.0514 -0.1079  0.0695
22166W        W37297   0.255  11.834   3.237 -0.0751  0.2467 -0.0629
22167W        W37298   8.666  17.417   0.490  0.1659 -0.0660  0.2709
22168W        W37299  17.413   2.539  14.736 -0.1984  0.2876  0.0809
22169W        W37300  13.439   2.015   1.405 -0.1870  0.2585 -0.1242
22170W        W37301   4.440   9.147  12.055  0.0643 -0.0561 -0.2997
22171W        W37302   3.608   6.572  13.751 -0.3907  0.0499 -0.1638
22172W        W37303   7.829   4.643  13.647  0.3012  0.0351 -0.0750
22173W        W37304  11.155  13.177   1.570  0.2277 -0.0487 -0.2267
22174W        W37305   4.546   2.303   6.336  0.1447  0.3009 -0.1952
22175W        W37306  11.028   0.563  15.737 -0.1385  0.0859 -0.1214
22176W        W37307  17.678   8.199   3.963 -0.0713  0.4188 -0.0797
22177W        W37308  13.658   6.310   1.578 -0.2981 -0.1775 -0.2996
22178W        W37309   4.810  15.394  12.442 -0.0858  0.2063  0.1481
22179W        W37310  11.490  12.627   4.745  0.0802  0.0263  0.0849
22180W        W37311   1.638   8.456  10.495  0.0251 -0.0011  0.4777
22181W        W37312   6.129  16.763   3.723  0.1805 -0.0325  0.1679
22182W        W37313  11.919   4.429  13.733 -0.0426 -0.2294 -0.2955
22183W        W37314   6.668  11.401   2.019  0.3042  0.1555 -0.1059
22184W        W37315   8.966  17.635   3.690 -0.0359  0.2383  0.1741
22185W        W37316  17.914  14.094  14.705 -0.0552 -0.2479 -0.1045
22186W        W37317   2.151  11.967   3.872 -0.1353  0.0126 -0.1672
22187W        W37318  16.502   5.810  15.020  0.2968  0.1833  0.0804
22188W        W37319   5.458   3.995   2.269  0.0217 -0.0894 -0.2586
22189W        W37320   2.030  12.882  15.572  0.1903 -0.0226 -0.2108
22190W        W37321  13.584   7.972  16.071  0.1111  0.0739  0.5012
22191W        W37322   1.638  16.173  10.226 -0.1880  0.0896  0.0001
22192W        W37323  10.833   6.439   4.378  0.1436  0.0065  0.1399
22193W        W37324  11.499   5.034   3.243 -0.2086 -0.0594 -0.0810
22194W        W37325  10.025   0.461   0.084 -0.1892 -0.2021  0.2187
22195W        W37326   6.675   1.908   5.647 -0.0912  0.1538  0.1377
22196W        W37327  12.487   4.155   4.751  0.1505 -0.0552 -0.1430
22197W        W37328   6.648  12.656   0.287  0.0175  0.3469  0.2493
22198W        W37329  15.091   2.708  11.577 -0.1950  0.2182 -0.1002
22199W        W37330  13.721  16.929   0.008 -0.2288  0.1343 -0.2422
22200W        W37331  13.286   3.637   4.981 -0.0018 -0.1894 -0.2049
22201W        W37332   4.514   7.912   2.870  0.0929  0.0407  0.4465
22202W        W37333   8.919   8.986   0.640  0.2253  0.0500 -0.0354
22203W        W37334  11.744  12.636   2.500 -0.4187 -0.0632  0.2303
22204W        W37335  14.928  16.468   4.927 -0.0595 -0.0020 -0.0964
22205W        W37336   1.030   4.041  12.001 -0.0556 -0.0083  0.1973
22206W        W37337   7.104  17.691  14.373 -0.4656 -0.0043 -0.0573
22207W        W37338   2.099   4.622   1.785 -0.2426 -0.2630  0.1243
22208W        W37339   2.372   4.570   3.836 -0.0711  0.0561 -0.1254
22209W        W37340  16.760   8.915  14.735  0.0631  0.1554 -0.3264
22210W        W37341   1.932   4.266  14.550  0.0602  0.2254 -0.0683
22211W        W37342   2.799   9.062  15.202  0.1971  0.1183 -0.1519
22212W        W37343  14.123  14.421  10.554  0.5075  0.0604 -0.3222
22213W        W37344  13.890  16.448  10.976  0.1828 -0.0408  0.2701
22214W        W37345   0.229   5.234  15.411  0.1721  0.2358 -0.1230
22215W        W37346  15.941   0.986  14.436 -0.1171  0.0775  0.2648
22216W        W37347   0.650   7.966  11.557 -0.0135  0.3154 -0.0380
22217W        W37348   4.190  15.482   1.949  0.2752  0.2729  0.1097
22218W        W37349  17.345   1.589   1.467  0.1472 -0.0761 -0.2010
22219W        W37350   2.955  15.103   3.044 -0.0586 -0.1094 -0.0018
22220W        W37351   3.814  18.076   4.632  0.2150  0.1326 -0.0296
22221W        W37352  10.682  14.811  12.434  0.0038  0.0571 -0.3470
22222W        W37353  15.701   2.561  12.514  0.0637 -0.0717 -0.0535
22223W        W37354   2.166  15.269   2.024 -0.0585 -0.3668  0.2767
22224W        W37355   0.145   8.255   1.173  0.0908  0.1311 -0.0481
22225W        W37356   9.462   9.641  13.277  0.2834 -0.1295 -0.2263
22226W        W37357   5.945  15.713  13.679  0.0452  0.0714 -0.3829
22227W        W37358  10.388   6.059   1.335  0.0218  0.0349  0.0838
22228W        W37359   4.315   9.686  11.760 -0.1306  0.2097 -0.1457
22229W        W37360  16.322  11.026  11.426 -0.1561  0.2818  0.0476
22230W        W37361   4.880   0.936  13.913  0.2278 -0.0389 -0.0752
22231W        W37362  10.279   5.422   2.328  0.2458  0.1269  0.0681
22232W        W37363   9.141   2.469  13.933 -0.1246 -0.1977  0.0562
22233W        W37364  11.912  17.077  13.216  0.0478 -0.0944  0.0495
22234W        W37365   4.330  16.523  14.126 -0.0963 -0.0733  0.2713
22235W        W37366  15.594   3.636  12.393 -0.0629  0.0262  0.1986
22236W        W37367  14.798   4.513  12.362  0.2914  0.0172 -0.2434
22237W        W37368   0.191  16.254  11.251 -0.1305  0.0049 -0.0765
22238W        W37369  16.102  16.775  13.987  0.1714 -0.3681  0.0294
22239W        W37370  17.934  10.215  14.199  0.1449 -0.2017  0.2833
22240W        W37371   9.536  15.756   4.612  0.2563 -0.0198  0.0968
22241W        W37372  18.261   8.832   2.720 -0.1679 -0.1217 -0.0909
22242W        W37373   2.359   5.854   2.391  0.3080  0.0602 -0.0456
22243W        W37374  12.844   9.644   4.304  0.0860  0.0868  0.3839
22244W        W37375   4.790  17.733   4.444  0.1092 -0.0996  0.1289
22245W        W37376   3.014   8.882   5.209 -0.3689  0.3403 -0.2980
22246W        W37377   8.358   4.924  13.081  0.0817 -0.0357  0.0261
22247W        W37378   4.283  18.269   5.560  0.1215 -0.0037  0.1265
22248W        W37379  17.745  12.675   4.487 -0.0200  0.2965 -0.0089
22249W        W37380   0.713   0.897  12.257 -0.1398 -0.0531 -0.0802
22250W        W37381  17.830  17.104  12.498  0.0170  0.0262  0.1335
22251W        W37382   6.817   2.299   1.766 -0.0788  0.2125 -0.2104
22252W        W37383  14.638   2.527   3.407  0.0594  0.3681  0.1191
22253W        W37384   3.691  13.211  10.917  0.1418 -0.0537 -0.1051
22254W        W37385  18.283  12.679   5.132  0.3466 -0.2263  0.1319
22255W        W37386  13.163  17.012   0.114 -0.1020 -0.1843  0.4239
22256W        W37387  16.009   3.202  11.710 -0.2115  0.1663  0.1110
22257W        W37388   3.893  14.590   3.545 -0.1700 -0.1027 -0.2364
22258W        W37389  11.994   6.780  15.273  0.0476  0.0238 -0.0234
22259W        W37390  15.508   1.970   0.490 -0.2311 -0.3147  0.0565
22260W        W37391   5.496   9.763  10.673  0.1155  0.0247  0.2542
22261W        W37392   9.635   4.677   2.078  0.1731 -0.0104  0.3307
22262W        W37393  16.759   3.103   3.350 -0.2403  0.1964  0.1551
22263W        W37394  16.511  10.157  13.216  0.1367  0.0048  0.0484
22264W        W37395   4.655  14.218   5.138  0.1781  0.1424  0.4762
22265W        W37396   5.522  17.744  15.545 -0.0533 -0.2584  0.6297
22266W        W37397  17.784  16.275   0.837  0.1612 -0.0075  0.2246
22267W        W37398  15.024  14.521   0.074 -0.1717  0.1187  0.1224
22268W        W37399   6.256  12.726   3.759  0.2658 -0.2109 -0.2438
22269W        W37400   1.073   1.869  12.518 -0.0648 -0.1727  0.0787
22270W        W37401  16.756  17.327  11.957 -0.1551  0.1007  0.0835
22271W        W37402  13.074  16.605  15.896 -0.2130  0.1571 -0.0062
22272W        W37403  17.855   0.619   0.801 -0.0068  0.2097 -0.1372
22273W        W37404   0.307  11.067  13.439 -0.3437  0.1472  0.0829
22274W        W37405   9.478  12.830   2.000 -0.0130  0.4818  0.1658
22275W        W37406  14.761  14.378  11.099  0.1646 -0.3638  0.2442
22276W        W37407  14.177  17.670  13.686 -0.0682  0.2420  0.3084
22277W        W37408   4.640   7.827  11.098 -0.0602 -0.1138 -0.1018
22278W        W37409  17.879  18.326  14.779 -0.1184 -0.1800 -0.1260
22279W        W37410  15.308  17.651  11.019  0.1971 -0.0784 -0.0122
22280W        W37411  10.065   8.019   3.645  0.4146 -0.2233  0.3046
22281W        W37412  10.936   3.165  15.823  0.1395 -0.1372 -0.1120
22282W        W37413   7.579   2.430  15.670 -0.0112 -0.0738 -0.4778
22283W        W37414   0.210  11.334   3.337 -0.1224 -0.0477  0.0501
22284W        W37415   4.706  10.499  11.339  0.0022  0.0716  0.0303
22285W        W37416   5.702  10.982   0.022 -0.1633 -0.0410  0.0183
22286W        W37417  17.762  10.954   9.793 -0.0861 -0.1068 -0.1715
22287W        W37418  12.749   2.236   0.678  0.1461  0.0380 -0.0256
22288W        W37419  13.554  10.726  14.086 -0.1220 -0.2012  0.0627
22289W        W37420  14.273   2.564  14.188 -0.1343 -0.1490 -0.2465
22290W        W37421   8.968   0.078  10.459 -0.1189  0.1593 -0.0154
22291W        W37422   5.581  13.538  12.131  0.2131  0.1599 -0.0430
22292W        W37423  16.705   0.595  14.403  0.3166  0.1488  0.3384
22293W        W37424   4.758  15.305  13.602  0.1015  0.1171 -0.1171
22294W        W37425   1.059  12.275  12.352 -0.2440 -0.0962 -0.1884
22295W        W37426   0.891   2.285   2.690 -0.1403  0.0451  0.0238
22296W        W37427  14.634   4.337   1.473  0.1814  0.0237  0.2890
22297W        W37428   4.626   2.359  13.641 -0.0135  0.1009  0.0802
22298W        W37429   3.206   3.209  16.045  0.2091 -0.0938 -0.0063
22299W        W37430   0.425  11.998   4.784 -0.4515  0.2916  0.3638
22300W        W37431  13.732   2.238  14.880  0.2024  0.1165 -0.0777
22301W        W37432   7.286   2.640  13.583  0.1386  0.0554  0.2111
22302W        W37433   5.573  17.594   4.177 -0.3967  0.1425 -0.2258
22303W        W37434  13.797   6.576  13.126 -0.0587  0.0009 -0.4008
22304W        W37435  11.616  10.297   2.735 -0.0800 -0.2592  0.0022
22305W        W37436  10.610   4.822   6.226 -0.0916  0.0214 -0.2648
22306W        W37437   6.218  15.278  10.772 -0.2036  0.0139  0.1495
22307W        W37438  15.558   9.008  13.411 -0.1297 -0.3256 -0.0251
22308W        W37439  15.774   7.430  14.791  0.1061 -0.2277  0.0563
22309W        W37440   9.146   7.603  14.322  0.1547  0.1331  0.0056
22310W        W37441   0.923   2.465  11.417 -0.0812  0.1477 -0.1802
22311W        W37442   6.670   2.503  12.304  0.0329 -0.2988  0.1568
22312W        W37443   1.644   5.601  15.151 -0.0316  0.0942  0.3949
22313W        W37444  14.639  12.796   5.613  0.1425 -0.1731  0.1063
22314W        W37445  11.453  12.127  14.694  0.0896  0.1825 -0.1423
22315W        W37446   1.320   7.601  11.064 -0.0908 -0.0246 -0.0369
22316W        W37447   0.118   7.288   0.171 -0.3246  0.1042  0.0543
22317W        W37448   4.161  16.983  15.107 -0.2277  0.0081  0.1652
22318W        W37449   8.727  13.007   4.941 -0.0547 -0.0599 -0.1398
22319W        W37450   3.596  13.692   2.231 -0.0800  0.2131 -0.1084
22320W        W37451  13.224  14.676   0.443  0.0987  0.1611 -0.0187
22321W        W37452   3.110  10.682  15.573 -0.0592  0.1040  0.2940
22322W        W37453  10.593  11.132  12.188 -0.0864 -0.1649 -0.1706
22323W        W37454   5.354   7.662   4.763 -0.1137  0.3904  0.2093
22324W        W37455   2.591   8.465   9.675  0.0981  0.1858  0.1281
22325W        W37456   0.383  11.706  13.184  0.1773 -0.1712 -0.1468
22326W        W37457   4.814  18.342   0.813  0.0905 -0.0552 -0.2106
22327W        W37458  11.636   6.707   2.168 -0.0548  0.1271 -0.1801
22328W        W37459  15.658  15.918   1.832  0.1339 -0.0103  0.0903
22329W        W37460   2.836   2.426  11.604  0.1208  0.1475 -0.2531
22330W        W37461   9.360   7.755  12.359 -0.0121  0.0301  0.2705
22331W        W37462  13.785   8.459   2.723 -0.2387  0.2986 -0.0313
22332W        W37463   4.308  16.679   0.233 -0.0339 -0.3804  0.0310
22333W        W37464   6.759   4.638  11.261  0.0273  0.1826 -0.1475
22334W        W37465  18.271   2.031  13.147 -0.3081 -0.2111  0.2122
22335W        W37466  17.814   2.713   2.626 -0.1344 -0.1126  0.1514
22336W        W37467  15.963  13.793   5.653 -0.0555  0.2157 -0.0350
22337W        W37468   0.767  10.609  12.371 -0.0359 -0.4209 -0.1047
22338W        W37469   5.342   8.773  11.837 -0.1839 -0.0164  0.0510
22339W        W37470  16.786   4.316  13.633  0.1800  0.1391  0.2733
22340W        W37471  10.212   2.547   1.516 -0.0234 -0.0972 -0.2403
22341W        W37472   5.646  13.253  13.396 -0.3151  0.0082  0.3069
22342W        W37473   8.117  11.965   4.566 -0.1448 -0.4026  0.0256
22343W        W37474   9.554  10.084  13.597 -0.0264  0.0933  0.0339
22344W        W37475  15.810   4.979   4.430 -0.0887 -0.2798 -0.0366
22345W        W37476   4.410   0.761   1.464  0.0643  0.2786  0.2176
22346W        W37477  11.456  16.898  13.390  0.1873 -0.1386 -0.1154
22347W        W37478   7.862  18.302   5.032  0.0754 -0.0371  0.0952
22348W        W37479   0.365  14.573  14.363  0.0684 -0.1899 -0.2280
22349W        W37480   3.479   5.570   5.078  0.0109 -0.3217  0.0166
22350W        W37481  15.790   0.091  12.931  0.0558  0.5795 -0.0182
22351W        W37482  11.626   1.855   3.179  0.0044  0.0128  0.1493
22352W        W37483   7.550  18.044   4.650 -0.2915 -0.0129 -0.1196
22353W        W37484   4.518   9.721   5.191  0.2987 -0.1190  0.0189
22354W        W37485  14.945   6.244  14.487 -0.0790 -0.1715 -0.0843
22355W        W37486   3.906  16.666   4.355  0.3633 -0.1383  0.0744
22356W        W37487   0.373   7.220   4.739 -0.0179  0.0214  0.2454
22357W        W37488  10.155  13.916  14.525  0.3416  0.3577 -0.1899
22358W        W37489  13.154  11.163  13.560  0.3033  0.0992  0.0487
22359W        W37490  14.674   7.194  16.057  0.1392 -0.1877  0.4290
22360W        W37491  13.475  13.919   1.614 -0.2824  0.2643  0.0109
22361W        W37492   8.122   8.414  11.228 -0.0690 -0.1766  0.3283
22362W        W37493   5.837  16.741  11.206 -0.1272 -0.2472 -0.2579
22363W        W37494  14.416   2.088  14.078 -0.0576  0.2458 -0.0712
22364W        W37495  14.784   0.398  11.356  0.0551  0.0912  0.1234
22365W        W37496   6.323   3.138  11.810 -0.0255 -0.0354  0.0530
22366W        W37497  10.373  10.322   1.992  0.0544 -0.0048 -0.1414
22367W        W37498  17.686   9.648  13.419 -0.0271 -0.0766 -0.1670
22368W        W37499   4.011   3.565  14.430  0.2761  0.2345 -0.2643
22369W        W37500   7.661   9.751  15.840 -0.1852  0.0260 -0.0425
22370W        W37501   2.850   0.960   0.623 -0.0216 -0.0157  0.0139
22371W        W37502   2.799   6.939  12.498 -0.3826  0.0564  0.1895
22372W        W37503  13.425  16.551   4.180 -0.0697 -0.3042 -0.2348
22373W        W37504   5.248   1.024  14.238  0.0765 -0.0233  0.2402
22374W        W37505  17.537   6.349   4.924 -0.0987 -0.2185  0.0936
22375W        W37506   6.003  14.543  14.838  0.2617 -0.0748  0.2565
22376W        W37507   2.480   3.554   0.021 -0.1726  0.1201 -0.3832
22377W        W37508   3.674  14.077   5.089 -0.1159 -0.1045  0.5434
22378W        W37509  14.153  15.934   1.207 -0.1197 -0.5208  0.1112
22379W        W37510  13.672   9.128  12.508 -0.0505 -0.0659 -0.1661
22380W        W37511   0.726  12.915  15.884 -0.0467  0.0600  0.0820
22381W        W37512   2.150  14.659  14.903 -0.2123  0.0702 -0.2040
22382W        W37513  14.032   5.191  14.302  0.2182 -0.1538 -0.1432
22383W        W37514   4.261  15.615  11.185  0.0968  0.2135 -0.0511
22384W        W37515  10.327  17.340  12.234  0.0392 -0.2071 -0.0870
22385W        W37516  14.766   2.274   4.246 -0.3986 -0.2509 -0.2604
22386W        W37517   0.461  16.294   5.018  0.3431 -0.3676 -0.1501
22387W        W37518   6.369   9.794  10.910 -0.2199  0.0489  0.3076
22388W        W37519   5.883  16.905   0.006 -0.4671  0.0422 -0.3134
22389W        W37520   7.278   6.766  11.420 -0.1439 -0.1075  0.1979
22390W        W37521  14.019   7.527   4.138  0.1522 -0.0911 -0.2605
22391W        W37522   8.637   3.631  12.647 -0.0400  0.2834  0.1651
22392W        W37523  17.296  13.834   2.785 -0.1138 -0.2123 -0.0025
22393W        W37524   2.555  16.770  12.096  0.2603  0.0561 -0.1388
22394W        W37525   3.721  13.461   5.285  0.0988  0.3279  0.0686
22395W        W37526  15.874   4.518   2.841  0.0287  0.2354  0.0652
22396W        W37527   1.136  13.506   5.095 -0.2460  0.2149  0.1031
22397W        W37528  16.118  14.430  13.407 -0.1481 -0.0953 -0.0905
22398W        W37529   8.659   1.788   4.233 -0.0627  0.0121  0.0594
22399W        W37530   8.044   8.600  14.857 -0.5756 -0.1072  0.4275
22400W        W37531   2.794  12.063   1.374  0.0050 -0.0674 -0.2965
22401W        W37532   2.990  15.982   5.995 -0.1546  0.3554  0.1459
22402W        W37533   4.180   8.477   0.046 -0.0278  0.3396 -0.2520
22403W        W37534  15.266  17.680  15.587  0.0687  0.0696  0.0252
22404W        W37535   8.682   9.582   2.849 -0.1950  0.3547  0.3844
22405W        W37536   4.622   4.642  11.373  0.2931  0.2523 -0.1535
22406W        W37537   7.630  10.786  13.158  0.0580 -0.0180  0.1979
22407W        W37538  11.868  12.798  13.617  0.3574 -0.0614  0.2900
22408W        W37539   6.226  11.582   0.720  0.1558 -0.0560 -0.0017
22409W        W37540   5.674   1.467   5.258  0.1690  0.1766  0.3167
22410W        W37541  13.518  13.696   6.046  0.2688 -0.1795 -0.0895
22411W        W37542  11.776  13.207  12.895  0.1400  0.2051  0.0313
22412W        W37543   4.807   6.582  15.936  0.0230  0.0380  0.0359
22413W        W37544   1.505   5.294  12.879  0.1563 -0.0843  0.0506
22414W        W37545  12.165  13.344  12.040  0.1075 -0.2315  0.5833
22415W        W37546   1.309   6.901  13.081  0.0694 -0.0306 -0.0787
22416W        W37547   1.100  13.651  15.376  0.1754  0.0575  0.0288
22417W        W37548   8.121  15.260   4.543 -0.2459 -0.4027 -0.1914
22418W        W37549  17.139  10.061  12.284  0.3018 -0.0112  0.1891
22419W        W37550  16.593   9.047  15.258 -0.1058 -0.0102 -0.0948
22420W        W37551   3.077   4.698  13.080 -0.0952  0.0088 -0.0687
22421W        W37552   9.857  16.145   0.259  0.4369 -0.1226  0.1500
22422W        W37553  13.267  13.664   2.507 -0.3201 -0.0261  0.0035
22423W        W37554  12.550   2.732   1.656  0.2143 -0.0365 -0.3007
22424W        W37555   4.529   2.931  15.501 -0.1198  0.1405  0.2301
22425W        W37556  11.023   7.809  13.191 -0.0032 -0.0775 -0.0149
22426W        W37557  14.848   1.565   0.105  0.3370  0.3308  0.2678
22427W        W37558  10.768  17.895  14.736  0.0551 -0.0142 -0.2435
22428W        W37559  10.922   2.674   5.145  0.4375 -0.2874 -0.2310
22429W        W37560   3.047   0.554   6.046 -0.2905 -0.2891 -0.3191
22430W        W37561   2.194   1.111  13.854  0.3226  0.1305 -0.1181
22431W        W37562  16.004  13.564  15.143  0.0939  0.1114 -0.3399
22432W        W37563   9.729  17.903  15.981  0.2232  0.1818 -0.1389
22433W        W37564  11.845   6.946   3.582  0.1645  0.0837  0.0685
22434W        W37565   1.455   1.091   5.424  0.2595 -0.0896  0.0109
22435W        W37566  11.090  14.393  12.496 -0.2383  0.1542  0.1883
22436W        W37567   5.302   5.691  15.466 -0.0847 -0.2773  0.0520
22437W        W37568  10.767   8.992   5.319 -0.0653  0.0738  0.0332
22438W        W37569  12.407   2.406   5.082  0.1709  0.1161  0.0714
22439W        W37570  16.880  10.902   0.425 -0.0224 -0.0999  0.4038
22440W        W37571   1.264  13.523  14.549 -0.0753  0.0711 -0.1440
22441W        W37572  17.358   7.588   0.028 -0.1395  0.1949  0.2717
22442W        W37573  12.111   6.545   2.353  0.1052 -0.2019 -0.2854
22443W        W37574   3.795  14.717   2.878  0.1708  0.0679 -0.0584
22444W        W37575   6.811  11.495  11.184 -0.1041  0.1560 -0.3032
22445W        W37576  16.448  10.040   3.082  0.0655 -0.1435 -0.0047
22446W        W37577  16.062   1.224  15.418 -0.3583 -0.1862  0.0330
22447W        W37578   0.945  10.417   1.889 -0.0424 -0.2936  0.1393
22448W        W37579   3.785   0.940   5.661 -0.0193  0.1111 -0.3016
22449W        W37580   0.108   8.685  14.714  0.1446  0.3726  0.0389
22450W        W37581   1.110  13.112   4.507  0.4030  0.2194 -0.0306
22451W        W37582   8.265  11.855  15.963 -0.0013  0.2726 -0.2651
22452W        W37583  17.882  17.044   3.076  0.1848 -0.0443  0.2116
22453W        W37584  13.508  10.840   3.985  0.0374 -0.1581  0.2395
22454W        W37585   4.323  12.836   5.517 -0.1170  0.1426 -0.2341
22455W        W37586   9.615  14.475  10.193  0.1032  0.2008  0.0996
22456W        W37587   7.480   2.929  15.413  0.1309  0.0960 -0.0832
22457W        W37588  17.221   7.665   3.295 -0.2661 -0.2145 -0.3921
22458W        W37589  10.183   2.658   3.307  0.0511 -0.0131 -0.1785
22459W        W37590   1.319   7.964   3.468 -0.2062  0.2699  0.1367
22460W        W37591  15.420   1.569   4.221  0.0738 -0.1757 -0.4560
22461W        W37592  14.709   3.754   2.649  0.2462  0.3087  0.1571
22462W        W37593   2.836  16.965  14.490 -0.1814  0.1186 -0.2807
22463W        W37594  18.017  10.337  15.036 -0.0146  0.0073  0.3891
22464W        W37595  14.218  11.096   1.632  0.0117 -0.1587 -0.0002
22465W        W37596   0.175  14.389   2.584  0.0993 -0.0338  0.1231
22466W        W37597  17.279  15.824   5.696  0.1184  0.0889  0.3559
22467W        W37598   7.393  14.599   4.229 -0.1503  0.0585 -0.0394
22468W        W37599  16.380  17.663   3.710  0.0436 -0.4634 -0.0529
22469W        W37600   9.743  11.580   0.038 -0.0757 -0.0877  0.4273
22470W        W37601  12.027  16.703   4.294  0.2819  0.0738 -0.2168
22471W        W37602  13.186   8.010   4.886  0.0256 -0.2766 -0.0581
22472W        W37603  13.442  16.675  13.013 -0.1534 -0.2719 -0.1987
22473W        W37604  11.597   9.674  10.929  0.0991 -0.2371 -0.0434
22474W        W37605  12.574  11.152  11.485 -0.0041  0.0485  0.0444
22475W        W37606   3.676   2.492  15.742 -0.0110  0.0513  0.3536
22476W        W37607  12.928  15.545  11.180 -0.0553  0.3585 -0.0343
22477W        W37608   5.269   4.510   5.335 -0.1584  0.1929 -0.2324
22478W        W37609   6.120   2.223   0.048 -0.1776 -0.0867 -0.2233
22479W        W37610  11.548   4.038   2.864 -0.1084  0.0544  0.5231
22480W        W37611  12.874  12.117   1.571 -0.4103  0.0500  0.2508
22481W        W37612   3.579   0.138   3.847  0.0898  0.0383 -0.2418
22482W        W37613   1.529   3.610   4.421 -0.1494  0.3093  0.3292
22483W        W37614   8.323  11.731   2.162  0.0005 -0.1064 -0.2092
22484W        W37615   8.386  16.267  14.464  0.2875 -0.2114  0.1917
22485W        W37616   6.528  13.818   2.184 -0.1831  0.0892 -0.3135
22486W        W37617   7.856   8.947  10.929  0.0619  0.0215  0.6179
22487W        W37618   5.418  17.627  14.595  0.2832 -0.1215 -0.1265
22488W        W37619   9.690   7.303   1.952 -0.2266 -0.1699  0.0809
22489W        W37620  10.556   3.822  11.414 -0.1797 -0.2319  0.0200
22490W        W37621  13.955   4.224  14.494  0.2638  0.1076 -0.0727
22491W        W37622   5.874   1.670   0.106  0.0928 -0.0068 -0.0261
22492W        W37623  11.966  16.534   3.363  0.0446  0.2052  0.0105
22493W        W37624  11.046  12.334  14.592 -0.0504  0.1327 -0.2682
22494W        W37625   1.808  13.782   4.655  0.1397 -0.0613  0.0044
22495W        W37626  13.893   8.143   0.552  0.0023 -0.2720  0.0606
22496W        W37627   3.183   9.483   4.456  0.2314 -0.2676 -0.0118
22497W        W37628   5.835  10.321   3.456  0.1721  0.0586 -0.1588
22498W        W37629   5.431  14.956  11.950  0.1215 -0.0521  0.1437
22499W        W37630  18.166  17.367   5.437 -0.3134  0.1639 -0.1300
22500W        W37631   4.607  12.919  10.842 -0.0139 -0.0578  0.1620
22501W        W37632  14.805  13.776  15.652  0.2435  0.0141 -0.0079
22502W        W37633  13.366  14.335   1.290  0.3651 -0.3375 -0.0521
22503W        W37634  16.727  17.443  12.905  0.4244  0.0222  0.2433
22504W        W37635   6.691   4.742  15.518  0.1781 -0.1374  0.2940
22505W        W37636   7.361  16.830   1.184 -0.3591  0.4323  0.0350
22506W        W37637   4.202   1.574  14.422 -0.3361  0.0635 -0.3538
22507W        W37638  10.905  11.714   0.813 -0.1132 -0.4073 -0.2289
22508W        W37639  16.334   4.078  14.190  0.0109 -0.3453 -0.0905
22509W        W37640   5.773  12.038  15.030  0.1177 -0.1502  0.0389
22510W        W37641  10.747   1.603  14.409 -0.1317  0.1717  0.1014
22511W        W37642   1.423  10.129  15.917 -0.0075 -0.1612 -0.2218
22512W        W37643   4.058  16.491   5.222  0.1970 -0.0087 -0.2203
22513W        W37644  10.572  14.248   2.196  0.1908 -0.0224 -0.2416
22514W        W37645  13.021  13.331  11.999  0.1948 -0.1524 -0.1371
22515W        W37646  16.358   6.716   2.056 -0.1482 -0.1141  0.3229
22516W        W37647  10.783  17.003   3.642 -0.0428  0.0293 -0.1683
22517W        W37648  13.931  17.754  12.951  0.1445 -0.0998  0.1301
22518W        W37649   3.504   5.687   2.951  0.1102  0.1295 -0.2011
22519W        W37650   5.470   4.698   2.277  0.1903  0.2942  0.0589
22520W        W37651   2.714   9.218  10.977 -0.0014 -0.0033 -0.0812
22521W        W37652   9.043   9.556   1.477  0.0655  0.0541  0.0307
22522W        W37653   5.942   4.031  16.058  0.4423 -0.0165  0.0937
22523W        W37654   8.301  18.170  12.144 -0.0253 -0.1117 -0.0964
22524W        W37655   9.138   7.758  11.254 -0.4666 -0.1219  0.0824
22525W        W37656   2.224   3.141  16.008  0.1899 -0.3957 -0.1860
22526W        W37657   3.418   5.230  15.516 -0.1985 -0.0953  0.0120
22527W        W37658  14.823  11.136  12.137 -0.0727 -0.1407 -0.0882
22528W        W37659   7.950  13.471   1.470 -0.2022 -0.3770  0.2649
22529W        W37660   6.359   5.604  12.067 -0.1650 -0.2160  0.0206
22530W        W37661   8.833   8.335   3.226  0.2541  0.0658  0.1606
22531W        W37662   8.711  14.377  13.477 -0.1627  0.5439 -0.0406
22532W        W37663  17.795   5.948  12.968 -0.0387  0.3311  0.1512
22533W        W37664  14.690   9.012  15.464 -0.1298  0.1052  0.0874
22534W        W37665  16.849   4.004   5.065 -0.0348 -0.0409 -0.1769
22535W        W37666  13.854   7.632  12.099  0.0032  0.0129 -0.2206
22536W        W37667  10.473  13.803  10.844 -0.0475 -0.1005  0.0009
22537W        W37668   8.477  12.565  14.530 -0.1730 -0.0530 -0.3053
22538W        W37669   8.099   4.147  14.277 -0.0301  0.1220  0.1127
22539W        W37670  16.324   8.136   1.917 -0.1358 -0.0208 -0.1524
22540W        W37671  15.833  17.456   0.616 -0.0130 -0.3946  0.0849
22541W        W37672  12.452   4.854   2.505 -0.3089  0.4168 -0.3681
22542W        W37673   2.700   3.544  12.072 -0.0099  0.1439 -0.0997
22543W        W37674  15.805  16.128   4.085  0.2207  0.1986 -0.0402
22544W        W37675   7.692  16.150   4.979 -0.1402  0.1750 -0.2669
22545W        W37676   9.687   8.842  13.428  0.0450  0.4005  0.0164
22546W        W37677   2.835  10.413  13.632 -0.1076 -0.0401 -0.0247
22547W        W37678  10.659   7.210  14.052  0.0768 -0.1281  0.2075
22548W        W37679   2.010  12.596  15.944 -0.0873  0.2765 -0.1121
22549W        W37680   7.061   3.460  15.761  0.1408 -0.0206 -0.1027
22550W        W37681  15.482  11.379   1.511 -0.2361  0.1016  0.2734
22551W        W37682  12.626  13.757  12.094 -0.1823 -0.0874 -0.0727
22552W        W37683  13.970   2.665   4.273 -0.2831  0.1214  0.1405
22553W        W37684   9.212   7.195   0.741 -0.0102 -0.2747 -0.1261
22554W        W37685  14.588  17.343   2.948 -0.1544 -0.2284  0.0602
22555W        W37686   0.704  15.783   2.707 -0.1322 -0.0489 -0.0741
22556W        W37687  17.663  15.799   0.688 -0.1886 -0.3155 -0.1075
22557W        W37688   8.510   9.190   2.000  0.2317 -0.0828 -0.1270
22558W        W37689   5.385  11.083   4.748  0.3393 -0.0546  0.0641
22559W        W37690  12.065  10.551  15.104  0.1545  0.0701  0.0744
22560W        W37691  18.195  10.002  14.663 -0.1774 -0.1308  0.1271
22561W        W37692   2.695   3.225  11.724  0.1559 -0.4984  0.3170
22562W        W37693   4.040  16.153  13.035  0.2747 -0.0411 -0.0561
22563W        W37694  14.505  12.203  13.703  0.1216  0.0668 -0.0830
22564W        W37695  10.238   7.039   4.489  0.0829 -0.1829  0.0880
22565W        W37696   3.146   6.934  14.966  0.0107  0.5010 -0.0119
22566W        W37697   0.332   8.039   0.145  0.1086 -0.0171 -0.2145
22567W        W37698   2.624  17.846  10.521  0.2902 -0.1351  0.0686
22568W        W37699   4.228  10.514  11.586 -0.0406  0.3309 -0.0265
22569W        W37700   7.828   7.869  10.699  0.3189  0.0548  0.0029
22570W        W37701  17.844   4.540  11.497  0.3487  0.0003  0.2543
22571W        W37702  11.339   3.578  12.097 -0.2652 -0.4011 -0.0682
22572W        W37703   5.836  11.672  12.871  0.3156  0.3349 -0.1026
22573W        W37704   5.096  12.703   1.646  0.2459  0.3000  0.2627
22574W        W37705  16.292  11.234  15.245 -0.2340 -0.0815  0.2708
22575W        W37706   8.484   9.042  15.303  0.2710  0.2214 -0.3112
22576W        W37707  15.903   0.605  12.900 -0.3535 -0.0484 -0.0731
22577W        W37708   9.627   9.821   4.474 -0.1291 -0.0568 -0.3394
22578W        W37709  14.744   1.852  14.930 -0.2337  0.4625  0.2881
22579W        W37710  16.579   1.243  11.430  0.0906 -0.1580 -0.0048
22580W        W37711   5.773  11.024   1.827 -0.3836  0.3251  0.1710
22581W        W37712  11.343  13.912   5.648 -0.0948  0.1120 -0.5754
22582W        W37713   7.465  15.923  15.806  0.0702 -0.0622  0.3458
22583W        W37714  18.108  17.508  12.731 -0.1843 -0.1751 -0.2229
22584W        W37715  10.085   1.993  11.623 -0.0615  0.0567  0.3968
22585W        W37716  11.894  13.256   4.104 -0.2230  0.2190  0.2316
22586W        W37717  12.762  12.578  15.546 -0.2437 -0.0534 -0.1568
22587W        W37718   0.664   2.469  14.212 -0.1473 -0.0821  0.0150
22588W        W37719   4.907  14.708  11.674  0.0619 -0.0301  0.4537
22589W        W37720   8.589  15.018  11.151  0.0597 -0.2129  0.2528
22590W        W37721   5.664   4.385  14.616  0.1303 -0.2634  0.0867
22591W        W37722   9.926   0.020  15.835 -0.0722  0.0548  0.1675
22592W        W37723   5.256  15.989   3.555  0.3377  0.2906 -0.1205
22593W        W37724  10.822   4.704  14.488  0.0799  0.1100 -0.0057
22594W        W37725   4.563   6.851   5.065 -0.2793  0.1112 -0.0819
22595W        W37726   9.143   3.492  14.586 -0.0781 -0.0232 -0.2631
22596W        W37727   2.879  12.578   1.284 -0.0706 -0.2785  0.2166
22597W        W37728   9.075  16.088   3.342 -0.0002  0.0160 -0.2262
22598W        W37729  13.410   3.952  16.107 -0.1633 -0.0432 -0.0665
22599W        W37730   8.914  15.171   0.587 -0.0512 -0.0359  0.0738
22600W        W37731   6.595  18.116  16.016 -0.0076  0.0450 -0.1260
22601W        W37732  12.104   9.327   1.343  0.0240 -0.1701 -0.1067
22602W        W37733  11.523   1.562   3.862 -0.3807  0.0135 -0.0973
22603W        W37734   2.522  10.642   1.934  0.1214 -0.1855 -0.0006
22604W        W37735   4.737   9.314   4.470 -0.0688 -0.0558 -0.0255
22605W        W37736   9.766   6.746   0.431 -0.1326 -0.1792  0.0897
22606W        W37737   2.535  12.284  11.253 -0.0743  0.2046  0.0198
22607W        W37738  17.370   4.524  15.015 -0.0951  0.2012 -0.2476
22608W        W37739  14.320   9.860  12.269  0.2039  0.0749 -0.1851
22609W        W37740   7.486   2.847   1.292 -0.1529 -0.0801 -0.3395
22610W        W37741   9.501  12.355   2.266 -0.0102  0.0860 -0.3020
22611W        W37742  16.878  16.973   2.215 -0.0760  0.1244 -0.0061
22612W        W37743  16.978  14.974  12.382 -0.0624 -0.2288 -0.1729
22613W        W37744   3.995  15.604  13.124  0.1699 -0.0841 -0.0075
22614W        W37745   4.648   2.425  14.147  0.1770  0.0475  0.2483
22615W        W37746   4.508  14.671   5.561  0.0328 -0.0849 -0.1045
22616W        W37747  10.097   2.013   2.214  0.0298 -0.1221  0.1837
22617W        W37748  13.580   9.002   3.699  0.2276  0.0233 -0.2354
22618W        W37749   2.135   9.847  15.225  0.3713 -0.1306 -0.0010
22619W        W37750   1.127  14.432   5.947  0.2065  0.0232 -0.1518
22620W        W37751  15.432  14.529   0.445 -0.1225  0.0224  0.0569
22621W        W37752  10.020   0.651   2.952 -0.0459  0.2150 -0.3179
22622W        W37753   0.406  13.919   1.107  0.2391  0.1799  0.2924
22623W        W37754  12.056   6.361   0.852  0.1406  0.5478  0.0788
22624W        W37755  13.865  17.252  13.939 -0.0379 -0.1851 -0.0871
22625W        W37756   6.818  14.708   1.901 -0.0037  0.2048 -0.2841
22626W        W37757  14.343  11.636  15.000  0.1449  0.1435 -0.1286
22627W        W37758  11.652   9.607  12.739  0.1881 -0.1464 -0.0441
22628W        W37759  15.701  15.537   5.334  0.2038 -0.1552  0.0265
22629W        W37760   6.301   5.935  14.002 -0.0049 -0.0894  0.0263
22630W        W37761  10.512   3.036   1.251  0.1266  0.1384  0.3211
22631W        W37762  14.492   1.616  15.700  0.0672  0.1557 -0.1260
22632W        W37763   0.624   6.861  14.934  0.1169 -0.1151  0.4367
22633W        W37764   0.681  15.097   3.858  0.1057 -0.0160 -0.0873
22634W        W37765  16.346   3.621  14.419 -0.1217  0.3966  0.3181
22635W        W37766   5.888  17.610   3.161 -0.1082 -0.0375  0.1298
22636W        W37767  17.927  12.016   5.639  0.1171 -0.0359 -0.1311
22637W        W37768   0.252  10.085  15.457  0.1501  0.0832  0.2391
22638W        W37769  11.523  15.958   4.046  0.1660  0.0353  0.0644
22639W        W37770  10.318  17.848   2.043  0.0095 -0.0916  0.0669
22640W        W37771   5.436   6.279  13.614  0.3226  0.3691 -0.2736
22641W        W37772  14.981  14.276   2.368 -0.2796 -0.2528  0.1277
22642W        W37773  16.690   9.357   0.131  0.3990  0.1214 -0.1199
22643W        W37774  15.911  12.129   1.383 -0.1041 -0.0597  0.0459
22644W        W37775  12.831   1.784  12.681  0.0021  0.0581 -0.0459
22645W        W37776   6.955  18.142   1.139 -0.1793 -0.0092  0.0707
22646W        W37777  16.589   3.551  11.457  0.0505  0.1894 -0.0137
22647W        W37778   4.564  17.873   1.174  0.1616 -0.5031  0.2039
22648W        W37779   6.144  15.543  14.618  0.0661 -0.4862  0.0823
22649W        W37780  12.246  13.293  11.314  0.3520 -0.1970  0.2602
22650W        W37781  11.037   1.611   1.321 -0.1422 -0.0869 -0.1553
22651W        W37782  14.833  14.571   4.233 -0.0241  0.0909 -0.2991
22652W        W37783  17.634   2.005   0.321 -0.3298  0.4035 -0.2726
22653W        W37784   6.677   4.142   0.912 -0.1211  0.2570 -0.1594
22654W        W37785   4.509   6.205  14.820 -0.0187  0.0391  0.1827
22655W        W37786   3.389   4.788  13.732  0.1711  0.1525 -0.1390
22656W        W37787  17.214  17.599  13.775 -0.0131  0.1208  0.0467
22657W        W37788  12.524   9.607   5.232 -0.0900  0.2683  0.1436
22658W        W37789  12.430  12.348  15.821 -0.2762 -0.2584  0.1308
22659W        W37790  15.873   4.861   2.469 -0.1286  0.0633  0.0886
22660W        W37791   0.629  14.819   1.303 -0.2237 -0.2473 -0.0426
22661W        W37792  17.030  18.110   0.422  0.4651  0.1587  0.0388
22662W        W37793  12.557   3.555  15.016 -0.2089  0.1992  0.5371
22663W        W37794  11.642  17.559   1.386 -0.0751  0.0938 -0.1499
22664W        W37795   5.150   6.762   2.870 -0.0792  0.0015 -0.0474
22665W        W37796   7.692  12.840   4.510 -0.1644 -0.0358  0.0181
22666W        W37797   9.231   2.742  11.636 -0.2659  0.1264  0.1318
22667W        W37798  10.294   0.898   5.239 -0.0526 -0.1910  0.2167
22668W        W37799  16.595  11.985   4.247  0.0635  0.2876  0.0018
22669W        W37800   9.494  14.936  14.449  0.2110  0.0840  0.0322
22670W        W37801  14.330  16.401   2.798  0.0379 -0.2248  0.2063
22671W        W37802  15.902  16.817   5.375  0.4016 -0.0260  0.1759
22672W        W37803   6.071  17.772   2.666 -0.0048 -0.1234 -0.0328
22673W        W37804   9.368   6.715   1.445 -0.1491  0.0507  0.0537
22674W        W37805  13.050  14.740   4.297  0.0209  0.0412  0.1828
22675W        W37806   1.379   0.036  13.791 -0.3559 -0.2010  0.3340
22676W        W37807  17.833   0.870  14.190 -0.0862 -0.1169  0.2739
22677W        W37808  15.286   9.255  11.113 -0.0863  0.0878 -0.0397
22678W        W37809   0.367   1.274  12.092  0.2731 -0.0009  0.1133
22679W        W37810  16.914  10.485   0.672 -0.1186 -0.2359  0.0262
22680W        W37811  12.664   5.606  12.330  0.1966 -0.1716 -0.1567
22681W        W37812  17.314  15.346  10.109  0.1068  0.0072  0.0847
22682W        W37813   1.900   7.383   3.773  0.0399  0.0225  0.3530
22683W        W37814  15.462   7.146   1.336  0.1967 -0.2006 -0.2023
22684W        W37815   8.822   0.446  15.273  0.3101  0.0178 -0.0843
22685W        W37816   5.365   5.341  15.813 -0.4520 -0.1115 -0.0708
22686W        W37817   6.832   5.363  15.025 -0.1693  0.2524 -0.0653
22687W        W37818  15.174  15.559   5.380 -0.0229 -0.0432  0.1690
22688W        W37819   3.302   1.100  11.335 -0.0470  0.1426 -0.0628
22689W        W37820  12.139   9.255  15.160  0.0645 -0.0410 -0.1344
22690W        W37821  16.303   7.944  11.998 -0.2588 -0.0519  0.0188
22691W        W37822   3.928   2.405  14.455  0.0668 -0.5448 -0.3128
22692W        W37823  18.243  18.309   3.770  0.0574  0.2051  0.1080
22693W        W37824  15.111   3.707   3.317  0.2031  0.1840 -0.1901
22694W        W37825   4.972   7.076  14.289  0.2967  0.0421  0.3608
22695W        W37826   8.448   9.879   0.069 -0.0194 -0.0517 -0.2728
22696W        W37827   3.000   7.659   0.911 -0.0083  0.1682  0.1975
22697W        W37828  17.901   3.305   5.211  0.1879  0.1181 -0.1264
22698W        W37829   4.202   1.426   4.281 -0.2499  0.1944 -0.1978
22699W        W37830   7.175   2.570  15.376 -0.1920  0.1146 -0.0391
22700W        W37831  15.786   3.108   5.033  0.2648 -0.1121  0.0485
22701W        W37832   5.430  10.145  14.976  0.1584  0.0504  0.3233
22702W        W37833  16.518  14.405   2.792  0.0631 -0.1993  0.2190
22703W        W37834   9.842  14.010   2.892 -0.0900  0.3102  0.0281
22704W        W37835   5.655   0.862   1.337 -0.0467  0.3458 -0.0523
22705W        W37836  15.221   1.251  12.888  0.0452 -0.1991 -0.1576
22706W        W37837  14.605   2.067  15.503 -0.2895 -0.4973  0.1173
22707W        W37838  16.448   6.419  15.691 -0.4242 -0.2045 -0.3726
22708W        W37839  17.056   0.695  10.731  0.2658  0.1083 -0.1727
22709W        W37840  14.666   9.881   5.115  0.2008 -0.3201 -0.1181
22710W        W37841   1.879  14.081  15.274 -0.0234 -0.1418  0.0928
22711W        W37842   1.297   6.127  12.802 -0.1934 -0.0341  0.1443
22712W        W37843  16.919   5.965   3.012  0.2984  0.4417 -0.0385
22713W        W37844   9.409   5.464   4.509  0.1521  0.2618 -0.0529
22714W        W37845   2.803  17.366  13.152  0.0712 -0.1261 -0.0278
22715W        W37846   6.885  15.073   4.115  0.2352  0.0472  0.1067
22716W        W37847  17.945  12.012  12.067 -0.2742  0.2835  0.2341
22717W        W37848   6.354   9.030  13.221 -0.1635  0.2513 -0.0254
22718W        W37849  12.498   2.546   4.172 -0.1055 -0.0932  0.1229
22719W        W37850   0.739   6.389   3.496 -0.1981  0.0061 -0.2032
22720W        W37851  15.775  16.235  10.949  0.0625 -0.0913  0.0930
22721W        W37852  12.407   2.732   3.233  0.1205  0.1327  0.2449
22722W        W37853   9.754  16.779  13.412  0.1684  0.1532  0.0693
22723W        W37854   5.707   8.818   4.594  0.3196  0.3484 -0.0269
22724W        W37855   6.743   2.889   4.446 -0.2476  0.0727 -0.0927
22725W        W37856  14.893  11.077  11.637 -0.0472 -0.2601 -0.1576
22726W        W37857   3.045  10.807   1.163  0.1294  0.2572  0.0128
22727W        W37858   0.039  12.671   0.335  0.1792  0.0786 -0.1874
22728W        W37859   6.510   4.857  14.351  0.2432  0.1544  0.1038
22729W        W37860  13.524  10.673   2.559  0.1876 -0.3622 -0.2794
22730W        W37861   0.957   2.524  11.924  0.1063 -0.2040  0.1669
22731W        W37862  10.341  16.103  13.560  0.0200 -0.2143 -0.0543
22732W        W37863   4.668  12.800   4.052  0.0313 -0.0212 -0.3126
22733W        W37864   2.572  12.901  10.739  0.2322 -0.2937  0.1081
22734W        W37865   5.837   1.544  10.423 -0.2109 -0.0281 -0.0162
22735W        W37866   9.417  11.881   1.396  0.0251 -0.2895  0.2418
22736W        W37867   7.436  15.113   1.423  0.3138 -0.1217 -0.0650
22737W        W37868  16.978  12.732  15.606 -0.0026  0.2036 -0.0894
22738W        W37869  16.730  15.295   3.203 -0.1335  0.0255  0.0560
22739W        W37870  15.332  10.442  14.708 -0.2822  0.3063 -0.1236
22740W        W37871   0.268   4.852   5.416  0.0045 -0.3023 -0.2281
22741W        W37872  17.718  15.826  14.592 -0.0266  0.0031 -0.1233
22742W        W37873  15.562  15.972   2.345 -0.1898 -0.1309  0.4943
22743W        W37874  10.784   0.843  16.015  0.3029 -0.0013  0.1238
22744W        W37875   2.122   1.919   3.435  0.1188  0.1138 -0.1214
22745W        W37876   5.040   6.656   3.849 -0.0019 -0.2331 -0.2112
22746W        W37877   6.347  14.177  10.937 -0.0156  0.0173  0.2724
22747W        W37878  14.417  10.801  15.334  0.1486 -0.0194 -0.1110
22748W        W37879   3.645   8.527  12.650 -0.0000 -0.0531 -0.0639
22749W        W37880   4.476  15.306   1.489 -0.2104 -0.1546 -0.2751
22750W        W37881   5.507  17.535   4.709  0.1927  0.0727  0.0598
22751W        W37882   2.890  14.863   4.546  0.1021 -0.3829 -0.0369
22752W        W37883  10.220  12.465  12.038 -0.1278 -0.1869 -0.0293
22753W        W37884  15.199  15.864   2.018 -0.2647  0.1325 -0.0148
22754W        W37885   2.307   7.965  11.915 -0.0739 -0.0392 -0.0242
22755W        W37886  12.331   4.185  10.757  0.0342 -0.4897  0.1667
22756W        W37887   6.268   4.431  15.878 -0.1851 -0.6542 -0.1956
22757W        W37888   2.095   3.233  14.524 -0.0623 -0.2612 -0.3353
22758W        W37889   1.349  11.179  16.080 -0.1573 -0.3125  0.2607
22759W        W37890   8.923   3.593   1.652  0.0040  0.0595 -0.2425
22760W        W37891   3.882  11.131  13.570 -0.2285 -0.1078 -0.1813
22761W        W37892   2.524   5.991   3.630 -0.0446  0.2236 -0.0096
22762W        W37893  18.124   8.025   3.613  0.2019 -0.1060 -0.2353
22763W        W37894   8.659   0.997   5.507  0.3332 -0.4276  0.1087
22764W        W37895   7.790   3.695   0.255  0.1947  0.0464 -0.1458
22765W        W37896  11.787   6.156  12.832  0.3581 -0.0205 -0.1738
22766W        W37897  11.876  14.553  12.741 -0.0264 -0.0425  0.0584
22767W        W37898   4.932   1.677  13.282 -0.1128 -0.1671 -0.1615
22768W        W37899  16.563  18.141   5.508  0.0091 -0.0085  0.1188
22769W        W37900   5.940  12.015   5.119 -0.1120 -0.2259 -0.1943
22770W        W37901   5.014   9.395  14.692 -0.2698  0.2992 -0.2382
22771W        W37902   4.604   5.720   3.022 -0.1215 -0.2411  0.0944
22772W        W37903   9.022   0.824   3.154 -0.1120  0.2891  0.1507
22773W        W37904  17.309   3.071  15.820 -0.1165  0.1330 -0.0552
22774W        W37905   2.355  16.484  12.832  0.0892  0.3371 -0.0647
22775W        W37906   0.593   1.297   2.281 -0.0130 -0.0332  0.1440
22776W        W37907   1.808   7.243   4.791  0.1622  0.1854 -0.1736
22777W        W37908  17.734  10.552  15.406 -0.1732 -0.0631  0.0566
22778W        W37909  17.082   3.991   1.002 -0.0557 -0.2566  0.1748
22779W        W37910  10.351   7.464   0.190 -0.2447 -0.0206 -0.1872
22780W        W37911   8.237   8.738   1.937 -0.0354  0.5927 -0.2187
22781W        W37912  12.829   8.511   0.333  0.1678 -0.1133 -0.0633
22782W        W37913   5.959  11.082  14.065 -0.3514 -0.3583 -0.1281
22783W        W37914   9.254   8.333   5.025  0.0218 -0.0306  0.0132
22784W        W37915   5.781  11.220  13.142  0.3726 -0.1121  0.3134
22785W        W37916   8.809   2.952   2.704  0.1549  0.1238  0.0686
22786W        W37917   2.427   4.363   1.066 -0.0854  0.0313 -0.0239
22787W        W37918   9.453   9.084   5.050  0.0025 -0.1290 -0.1313
22788W        W37919  18.199  14.743   3.613 -0.3313  0.1035 -0.3255
22789W        W37920   6.884   2.304  11.801 -0.1395 -0.1804 -0.2655
22790W        W37921   1.493  16.206  11.538  0.0785 -0.0210 -0.1901
22791W        W37922  13.517   9.339  14.481 -0.1456 -0.0026 -0.0443
22792W        W37923   2.179   4.646   0.771 -0.0411  0.1262  0.1389
22793W        W37924  11.865   3.566   5.146 -0.1741 -0.0491 -0.0408
22794W        W37925  15.043   7.991  15.870 -0.1045 -0.1711  0.0393
22795W        W37926  17.511   5.593  13.751 -0.2903 -0.0662  0.1738
22796W        W37927  10.366  11.350  15.285  0.2296  0.0142 -0.3509
22797W        W37928  11.413  16.053  15.742  0.0856  0.0359 -0.2705
22798W        W37929   8.000   5.240   5.651 -0.0995 -0.2002  0.0040
22799W        W37930   7.279   5.432  12.580  0.0864  0.1166 -0.0292
22800W        W37931   4.602  11.339  11.896 -0.1558 -0.1843 -0.1136
22801W        W37932  10.913   9.560  14.421  0.1710 -0.1675  0.2359
22802W        W37933   3.282  16.951  14.626  0.0633 -0.1940 -0.0850
22803W        W37934  17.068   4.923  11.673 -0.1472  0.1216  0.0143
22804W        W37935  11.875   9.959   5.824  0.1488  0.1208  0.1498
22805W        W37936  18.082   7.055   1.762 -0.1467  0.1418 -0.2700
22806W        W37937   2.290   2.206  12.661 -0.0403 -0.1950  0.1615
22807W        W37938   2.047   8.146   1.652  0.1308  0.0527  0.3040
22808W        W37939  14.636   2.292   2.025  0.2304  0.3301  0.4325
22809W        W37940  16.055   7.700  14.435  0.2198 -0.2416 -0.3279
22810W        W37941   1.093   7.478  10.491 -0.3163  0.0668 -0.2825
22811W        W37942   2.602  12.890  11.838  0.4182 -0.1095 -0.4081
22812W        W37943  14.694   0.358  15.084 -0.3122  0.2325 -0.1636
22813W        W37944   6.419  11.836   5.312  0.1369 -0.3452  0.0746
22814W        W37945   2.304   5.091   0.085  0.1922  0.2067  0.1877
22815W        W37946  14.855  11.832   2.249  0.0924 -0.2556 -0.1998
22816W        W37947   3.121  18.216   0.305 -0.0773 -0.3036  0.1961
22817W        W37948  13.658   2.542   0.541 -0.0310  0.3604  0.0029
22818W        W37949   4.470   0.783   2.368  0.0514 -0.1646 -0.0050
22819W        W37950   4.450   3.451   0.585  0.2824 -0.0578  0.5335
22820W        W37951  11.052  14.762  10.824 -0.2246  0.1451 -0.3175
22821W        W37952  13.773   6.065  14.835 -0.0332  0.1135 -0.1163
22822W        W37953   4.912   3.721  14.865  0.1758 -0.2514  0.3490
22823W        W37954   6.979   6.984  15.489 -0.3506 -0.1817  0.0339
22824W        W37955  10.984   5.439   0.086  0.2094 -0.1202  0.1237
22825W        W37956  16.113  12.160   2.896  0.0544  0.3125  0.0886
22826W        W37957   9.958  17.443   2.115 -0.6224  0.2081  0.1255
22827W        W37958  15.449   5.497   5.099  0.1237 -0.0243  0.2573
22828W        W37959  13.108   2.919  11.679 -0.1547  0.1007 -0.0528
22829W        W37960   8.328   8.203  10.794 -0.1224 -0.2136 -0.0679
22830W        W37961   5.380  10.293   2.483  0.2483  0.3513 -0.1362
22831W        W37962   1.201   2.221  13.040 -0.0207 -0.0885  0.2283
22832W        W37963   4.839   8.850  11.956  0.1071  0.2805  0.1813
22833W        W37964   7.403   5.961  14.843  0.0105  0.0216  0.0005
22834W        W37965   5.369  12.228   0.024 -0.1480 -0.2013 -0.0503
22835W        W37966  12.360  13.782   2.297  0.0779  0.1330 -0.2227
22836W        W37967   1.398  16.625   3.116  0.0205  0.3605  0.1309
22837W        W37968  11.123  11.916  15.567  0.0949 -0.2604 -0.1270
22838W        W37969   9.686   6.564  12.301 -0.1946 -0.1137  0.2703
22839W        W37970   2.959   2.079   5.201 -0.4189 -0.3361  0.1752
22840W        W37971  18.113   6.418   1.809 -0.1300 -0.0384  0.2119
22841W        W37972  17.044  18.333  12.851  0.0509  0.1262 -0.0129
22842W        W37973   1.222  15.058  15.898  0.0841 -0.1801 -0.0599
22843W        W37974   5.126  14.726   1.481  0.2148 -0.2175 -0.4434
22844W        W37975   7.983   1.908  11.971  0.0453  0.0884 -0.0972
22845W        W37976  16.356   2.559   1.999  0.0051 -0.0746 -0.2205
22846W        W37977   9.978   9.830   0.364  0.0216 -0.2786 -0.1110
22847W        W37978  15.790  13.580   2.331  0.0012  0.2661 -0.0224
22848W        W37979   0.682   0.918  14.730  0.0365  0.0393 -0.0988
22849W        W37980   4.417   7.521  16.070 -0.3161  0.1037  0.0718
22850W        W37981  16.732  17.920  13.803 -0.0551  0.1265  0.0849
22851W        W37982  14.836   4.176  10.012 -0.0443 -0.1258 -0.2081
22852W        W37983   0.979  10.869   1.174  0.0478  0.0258 -0.1109
22853W        W37984   5.469  15.727   5.273 -0.1111 -0.1521  0.0203
22854W        W37985   6.061   0.327  15.490 -0.1348 -0.1875  0.2387
22855W        W37986  17.551   0.352   4.641  0.2778 -0.1301 -0.1890
22856W        W37987  17.194   1.902  13.311 -0.1230  0.0375 -0.1975
22857W        W37988  16.121  17.765   4.609  0.1742  0.1419  0.0632
22858W        W37989   5.051   5.991  15.116  0.0792  0.0804 -0.0965
22859W        W37990   0.845   3.848   2.026  0.0917 -0.0876 -0.0987
22860W        W37991  12.803  16.734   2.322  0.0553 -0.0492  0.0072
22861W        W37992   4.623  14.162  11.634 -0.2376 -0.3228  0.1716
22862W        W37993  18.217  14.444  13.851  0.1592 -0.2261  0.0543
22863W        W37994   9.408  17.095  15.688 -0.2043 -0.0694 -0.2070
22864W        W37995  14.397   7.911  13.956 -0.1064  0.2134 -0.1788
22865W        W37996   5.873  14.297  11.475  0.0893 -0.0804  0.0289
22866W        W37997  12.763  10.764  11.714  0.1625  0.0452 -0.2671
22867W        W37998  15.191   8.023  10.685 -0.2956  0.2080  0.0849
22868W        W37999   7.606   9.798  14.950 -0.1715 -0.1949 -0.0887
22869W        W38000   3.757   5.014  15.072  0.3276 -0.3171  0.1457
22870W        W38001   0.749  10.691  12.847  0.2735  0.0729  0.0226
22871W        W38002   6.716   2.320   5.361  0.2875  0.0613  0.0310
22872W        W38003   7.189  12.456  15.492 -0.2095 -0.3512 -0.1870
22873W        W38004   4.104  11.689   4.926  0.1132 -0.3710  0.3691
22874W        W38005  15.224   2.672   0.887  0.1442  0.3255 -0.0107
22875W        W38006   8.449  12.769   3.146 -0.2157 -0.0037 -0.3187
22876W        W38007   2.820   8.879  12.897  0.0754  0.0536  0.0438
22877W        W38008   6.970  13.432  11.158  0.0128  0.3142 -0.0896
22878W        W38009   4.292   6.592  15.119  0.0957 -0.0595 -0.2617
22879W        W38010   1.109  17.128  11.124 -0.0213  0.4293 -0.0148
22880W        W38011   7.855   1.270   1.989 -0.0500 -0.3018 -0.1070
22881W        W38012   4.764  16.938  11.751  0.2113  0.0633  0.0884
22882W        W38013   1.401  14.715  14.056 -0.0205 -0.0755 -0.2189
22883W        W38014   3.836  14.853  11.836  0.0563  0.3731 -0.2745
22884W        W38015  10.967   5.185   4.865  0.0136  0.0951  0.0361
22885W        W38016  16.976  12.004   2.115 -0.1546  0.1666 -0.0130
22886W        W38017  13.893   4.602   2.010  0.3807  0.2986  0.4353
22887W        W38018  13.785   7.279  13.390  0.3108 -0.0096  0.1128
22888W        W38019  10.650  15.427   3.989 -0.1511  0.0729  0.1110
22889W        W38020  16.116   1.502  11.506 -0.2267  0.0885  0.0313
22890W        W38021   4.661   7.996   5.458  0.0737 -0.2665 -0.1395
22891W        W38022  12.665  10.247  11.624 -0.1128  0.1092  0.4079
22892W        W38023   9.911   2.982  12.595  0.1944 -0.1043  0.1006
22893W        W38024   7.792   1.078   5.351  0.1260  0.1393  0.1699
22894W        W38025  14.753   2.993   1.795  0.2993  0.2782 -0.0672
22895W        W38026  15.767  15.788  13.765  0.3416  0.0815 -0.4209
22896W        W38027   3.195   9.933   2.140  0.0582 -0.0211 -0.1007
22897W        W38028   0.307  13.165  12.670  0.0567  0.0696 -0.2757
22898W        W38029  13.527   5.667  14.092  0.4133 -0.0011 -0.0001
22899W        W38030  14.727  12.946  13.974 -0.0672  0.0065 -0.1028
22900W        W38031   1.530   3.826  11.905  0.1247 -0.1492 -0.3363
22901W        W38032  16.393   9.896   5.786  0.3208 -0.0661  0.0197
22902W        W38033   7.732  10.850  14.115 -0.0699 -0.1856  0.1237
22903W        W38034   6.673  15.728   0.384  0.0631 -0.0201  0.1532
22904W        W38035  15.301   4.243  14.418  0.0048 -0.0766 -0.3595
22905W        W38036  13.566   5.906   0.797  0.0169 -0.5571  0.0269
22906W        W38037   8.499   4.125  13.915 -0.1830 -0.2449 -0.0751
22907W        W38038   3.678   5.717  15.917  0.1197  0.1593 -0.0228
22908W        W38039   1.245   6.672  11.604  0.1744 -0.0504  0.2536
22909W        W38040  10.567  17.020   5.336  0.3084  0.1151 -0.2400
22910W        W38041   2.198  11.157   2.173 -0.2267 -0.0551 -0.0200
22911W        W38042   3.259   6.938   1.863  0.1608  0.2034  0.0076
22912W        W38043  14.277  13.132   6.473  0.0158 -0.3922 -0.1659
22913W        W38044   3.260   6.650  12.501 -0.1068 -0.2373  0.0624
22914W        W38045   9.228  17.952  15.901  0.4045  0.0342 -0.2497
22915W        W38046  17.758  15.086  10.305 -0.1510 -0.0135  0.0018
22916W        W38047   0.226   8.902   2.237  0.1502 -0.0448  0.0666
22917W        W38048  13.492   8.981   2.089  0.1291  0.3090  0.1002
22918W        W38049  10.607  13.844  13.591  0.1822 -0.2744 -0.1411
22919W        W38050   2.663  14.423  12.821  0.0594 -0.1972  0.1557
22920W        W38051   6.349  17.405  15.429  0.2807  0.0810  0.2883
22921W        W38052   5.491  12.111  15.385  0.0096  0.1438  0.1371
22922W        W38053  11.298  17.141   3.568 -0.1499  0.1706 -0.0772
22923W        W38054   2.469   4.119   5.375  0.0338 -0.0142 -0.2033
22924W        W38055   4.136   2.073   0.372  0.1451  0.0899 -0.1235
22925W        W38056   3.535   9.392   4.006 -0.0347  0.0189 -0.0060
22926W        W38057  10.932   2.575   2.343 -0.0204  0.0354 -0.0911
22927W        W38058  11.954   4.859   3.177 -0.2862 -0.2282  0.1387
22928W        W38059   1.860  15.394  11.438  0.2330  0.2231  0.1876
22929W        W38060   8.985  10.029   1.622 -0.0684  0.0260 -0.1138
22930W        W38061   5.298   0.279  15.349 -0.0192 -0.0824  0.1417
22931W        W38062   6.243  12.298   4.724  0.1368 -0.0828  0.4522
22932W        W38063   1.365  10.784   5.700  0.0589 -0.0904  0.3534
22933W        W38064  12.479   0.432  14.532  0.0393  0.0195 -0.0463
22934W        W38065   2.468   1.763   0.697 -0.1734  0.1279 -0.2271
22935W        W38066  11.842  13.388  14.397 -0.0086 -0.2079  0.1334
22936W        W38067   0.359   7.944  13.046  0.1075  0.2514 -0.1399
22937W        W38068   7.170   5.609   4.799  0.1419 -0.0528 -0.0884
22938W        W38069   7.678  16.843  10.273  0.2723 -0.0569 -0.1888
22939W        W38070   1.287  17.640  15.366 -0.0216  0.1618 -0.0181
22940W        W38071   8.475  15.058   3.327  0.0649 -0.1425 -0.1010
22941W        W38072   6.192  17.917   3.426 -0.2661  0.3147  0.0993
22942W        W38073   1.368   7.962  13.595  0.2980  0.1748 -0.1395
22943W        W38074  11.700  16.870   3.699  0.3984 -0.1592  0.1214
22944W        W38075   3.282   7.141  12.629  0.0423  0.2372  0.1009
22945W        W38076   3.399   8.305  15.276  0.4196  0.3511  0.1119
22946W        W38077   1.682   8.203  15.693 -0.2604 -0.1685 -0.1247
22947W        W38078   9.144   3.961   0.703 -0.0437  0.1839 -0.1487
22948W        W38079   3.287  11.265  14.205 -0.0223  0.0291  0.0613
22949W        W38080   0.521   0.387  12.101  0.1439  0.1317  0.2253
22950W        W38081  14.369  10.786   0.614  0.2480  0.0718 -0.0366
22951W        W38082  14.054   8.044  11.852  0.0845  0.4704 -0.2638
22952W        W38083   9.234  10.348   5.740 -0.0564 -0.0132  0.0608
22953W        W38084   2.909   5.482  10.870 -0.0767  0.1936  0.0101
22954W        W38085   7.902   2.396   4.494 -0.2627  0.1733 -0.0430
22955W        W38086  15.630  15.792   4.524  0.1262  0.0326 -0.0222
22956W        W38087   3.347  13.902  13.428  0.1773 -0.2207 -0.2421
22957W        W38088  12.543   0.301  16.011  0.0914 -0.1970  0.4073
22958W        W38089   2.207  13.718  15.484  0.1595 -0.0305  0.1570
22959W        W38090  11.246  14.292  16.036 -0.2247  0.0340  0.0718
22960W        W38091  12.959   0.855   4.259  0.2067  0.0343  0.1833
22961W        W38092   5.783  12.475  11.221  0.5216  0.2186 -0.2206
22962W        W38093   5.031  11.293   3.113 -0.0285 -0.2722  0.0569
22963W        W38094   7.125  11.487   1.021 -0.0049  0.3291 -0.0828
22964W        W38095  14.124  14.857   1.243 -0.0322 -0.2785  0.1773
22965W        W38096  18.170   2.059   3.657  0.0475 -0.0177  0.0948
22966W        W38097  14.194   7.448  16.085 -0.1005  0.2620 -0.1686
22967W        W38098   0.414  10.640   1.938 -0.0185 -0.0246 -0.0333
22968W        W38099   9.994  10.264  10.416 -0.0850 -0.1886 -0.0783
22969W        W38100   1.230  12.155  12.834  0.0167 -0.1730 -0.2066
22970W        W38101   6.141  11.657   2.900  0.0530  0.5081 -0.1827
22971W        W38102  12.302  10.491   0.314 -0.1119  0.1329  0.0179
22972W        W38103   4.472  10.856   3.848  0.1577 -0.0790  0.0467
22973W        W38104   1.506   7.117   3.969  0.2658  0.1749 -0.1821
22974W        W38105  16.148  17.879   0.409  0.0060 -0.3365 -0.1608
22975W        W38106   4.904   4.515  12.620 -0.1021  0.0011  0.0799
22976W        W38107   4.395  13.915   5.950 -0.0456 -0.1289 -0.3199
22977W        W38108   1.000  13.781  10.001  0.0673  0.1569 -0.3784
22978W        W38109  10.892   2.520  13.939  0.1449 -0.1109 -0.3637
22979W        W38110   0.501   9.990  13.871 -0.3173  0.4909 -0.1368
22980W        W38111   1.335   0.573   2.167  0.2993 -0.0040  0.4836
22981W        W38112   9.766   1.005   4.151 -0.0238 -0.3447 -0.0873
22982W        W38113  15.235  11.896  14.845  0.0199  0.4090  0.3456
22983W        W38114  12.214   4.648   4.498  0.2349 -0.1391  0.0239
22984W        W38115   8.837   4.025  13.429 -0.0133 -0.0730 -0.1613
22985W        W38116  14.727  16.347  15.067  0.0904 -0.0567  0.1471
22986W        W38117   5.162  11.899  10.718 -0.0105  0.1289 -0.1640
22987W        W38118   5.207   3.401   3.075 -0.1104  0.2061 -0.1257
22988W        W38119  16.408   0.923  15.312  0.0097  0.1658  0.0187
22989W        W38120   8.503  11.486   4.461  0.2580  0.0240  0.1988
22990W        W38121  17.797  14.101   5.130 -0.1491 -0.1744 -0.1985
22991W        W38122  17.999   4.636   4.469  0.2068  0.2066 -0.3552
22992W        W38123  17.501   8.669   9.981 -0.1101  0.0564 -0.1155
22993W        W38124   1.469  12.013   4.970 -0.0526  0.0386 -0.1886
22994W        W38125   6.968   0.326  15.354 -0.0779  0.0058  0.4202
22995W        W38126   6.359   0.111  14.401 -0.1160 -0.0627 -0.0598
22996W        W38127   2.110   4.584   6.201 -0.3987  0.3493  0.0300
22997W        W38128  13.614  14.661  15.452  0.0128 -0.3246 -0.1270
22998W        W38129   8.012   1.796   6.111 -0.0003  0.2609 -0.0301
22999W        W38130  18.153   2.460  12.138  0.0968 -0.0758  0.1758
23000W        W38131   2.632  17.178   3.352  0.2318 -0.2075  0.0667
23001W        W38132  15.516  12.018   4.553 -0.0156  0.0827  0.1892
23002W        W38133  13.068   7.266   2.105  0.2804 -0.1873  0.1890
23003W        W38134   1.639   3.860   1.285 -0.1193 -0.1923 -0.0031
23004W        W38135  14.789   1.541  15.314 -0.0520  0.2331 -0.2033
23005W        W38136  17.001   6.777   3.638 -0.2256  0.1302  0.1480
23006W        W38137   5.697   6.506  16.086 -0.1274 -0.1633 -0.1949
23007W        W38138  13.321   8.444   2.942 -0.0152  0.2587 -0.0262
23008W        W38139  17.156  17.833  15.614 -0.0991  0.2773 -0.2217
23009W        W38140  16.924   9.253   2.875 -0.1656 -0.2856 -0.1531
23010W        W38141   4.066  13.120  16.052 -0.0140 -0.0153 -0.0081
23011W        W38142  12.273   3.775  11.548  0.1014 -0.0754 -0.1400
23012W        W38143  14.335  13.261   0.102  0.1706  0.0623  0.0350
23013W        W38144   3.196   8.471  14.172 -0.0886 -0.0751 -0.3108
23014W        W38145   0.685   8.072   1.301 -0.3950 -0.3515  0.0997
23015W        W38146   5.732  11.834   0.452  0.1026 -0.1014  0.0778
23016W        W38147  18.091   3.007  11.906  0.0837  0.1441  0.0842
23017W        W38148   1.865   6.007  15.015 -0.1486 -0.1511  0.0255
23018W        W38149   3.261  10.861   3.320 -0.1252  0.1601 -0.1495
23019W        W38150   5.746   0.058  15.171 -0.0864  0.0215  0.2171
23020W        W38151   5.916  15.326   3.688  0.0803 -0.2942  0.1227
23021W        W38152  16.419   5.500   3.684 -0.1149  0.0206 -0.0752
23022W        W38153   2.540  10.877  10.816 -0.0408 -0.2264 -0.1999
23023W        W38154  12.140  12.891  14.683 -0.0296  0.1433  0.1012
23024W        W38155  16.603   3.620   3.238  0.3249 -0.1949  0.0284
23025W        W38156   1.725   3.234  10.312  0.3820 -0.4920  0.0070
23026W        W38157   5.388   2.097   4.824  0.1334  0.0743 -0.0840
23027W        W38158   0.805  17.835   2.126 -0.2269 -0.1311 -0.1395
23028W        W38159  14.160  12.367   3.660 -0.0841 -0.0391  0.1218
23029W        W38160   6.560  16.952  15.458  0.2530 -0.0314 -0.0238
23030W        W38161   3.516  13.470   5.723 -0.1856 -0.1221  0.1257
23031W        W38162   6.695   4.521  14.775  0.3265 -0.1800  0.1266
23032W        W38163   2.859  18.283   5.269 -0.0099 -0.1029  0.1577
23033W        W38164  15.256  15.502   3.540 -0.3572  0.0877 -0.3033
23034W        W38165  17.324   2.339   5.408 -0.1675  0.0537 -0.2032
23035W        W38166   9.208   5.891  11.059  0.0476  0.1084  0.0321
23036W        W38167  16.262   6.086   0.479 -0.4270  0.2251 -0.0600
23037W        W38168  10.003  15.006  13.781 -0.0144 -0.2533  0.1776
23038W        W38169   6.630   9.736   2.876  0.0623 -0.2059  0.1993
23039W        W38170  17.061  17.591  15.186 -0.2334  0.1438 -0.1292
23040W        W38171   6.023   8.136   2.642 -0.0657 -0.0169  0.0984
23041W        W38172   7.282   8.756  15.948  0.2796 -0.3429  0.0615
23042W        W38173   7.459   4.295   3.779  0.2978  0.2098  0.0273
23043W        W38174   1.811   8.413   4.173  0.2963  0.2146  0.1285
23044W        W38175   7.347  12.907  15.009  0.1626 -0.1738  0.1728
23045W        W38176   6.002  14.248  11.997 -0.1898  0.0545 -0.1106
23046W        W38177  10.189  18.189  12.778  0.0880  0.0167 -0.0453
23047W        W38178  11.138   1.156  13.680 -0.1907  0.3504 -0.3419
23048W        W38179   9.620  14.700   2.118 -0.1276 -0.0557 -0.1010
23049W        W38180  13.335  14.632  13.063 -0.0592  0.3702  0.0975
23050W        W38181  15.012  11.270   3.836 -0.2865  0.3705  0.0357
23051W        W38182  11.101   3.861   1.724 -0.0473  0.4222 -0.1088
23052W        W38183  17.268   8.309  13.118  0.1591 -0.0604 -0.2264
23053W        W38184   7.726   3.103  13.548  0.1058  0.0895  0.1069
23054W        W38185  14.593  16.152  12.746  0.0123  0.0527  0.0299
23055W        W38186  14.654  17.465   1.473 -0.0841  0.0911  0.2844
23056W        W38187  10.384  13.833   4.054 -0.3336 -0.2227 -0.0413
23057W        W38188  11.434   7.179   3.775  0.2547 -0.1528  0.0703
23058W        W38189  12.785   2.560  13.437  0.3338  0.3695  0.1197
23059W        W38190  11.695   4.370   2.483  0.1496  0.1947 -0.0558
23060W        W38191  13.323   0.329   4.093 -0.0987  0.4831 -0.0333
23061W        W38192   6.090   5.844   0.116 -0.0662 -0.2145  0.0802
23062W        W38193  17.206  17.361  15.639 -0.2954 -0.0246 -0.1219
23063W        W38194  11.804   7.791  13.565  0.1646  0.1716 -0.0335
23064W        W38195   5.830  11.701  10.048  0.0037  0.1477 -0.0097
23065W        W38196  12.646   9.514   2.111 -0.3533 -0.0281  0.0061
23066W        W38197   3.148   9.008   1.837 -0.0310 -0.1271  0.3767
23067W        W38198  12.755   3.196   1.791  0.0541  0.4118  0.1414
23068W        W38199   5.174   0.794   4.720  0.1009 -0.2134  0.1316
23069W        W38200   6.331  10.939  13.097 -0.1726  0.1598  0.2210
23070W        W38201  14.553   8.481  11.611 -0.2882 -0.2436 -0.0529
23071W        W38202   7.970  10.165   0.188  0.4229  0.1225  0.0076
23072W        W38203   4.787  14.447  11.220  0.1983  0.0865 -0.0886
23073W        W38204  16.885   3.986   1.419  0.0288 -0.0239  0.0169
23074W        W38205   3.668   9.725   5.323  0.1946  0.0433 -0.1629
23075W        W38206   3.406  11.101   4.955  0.0639  0.0774 -0.2072
23076W        W38207  12.452  10.551  13.903  0.0492  0.1836  0.3034
23077W        W38208   5.440  10.390   5.913 -0.1008 -0.0847  0.2942
23078W        W38209  16.279   2.270   0.156  0.2701  0.1716 -0.1395
23079W        W38210   3.974   7.069  10.581  0.1216  0.0660  0.1945
23080W        W38211  10.894   3.845  10.685  0.3257  0.0666 -0.0046
23081W        W38212   6.188   2.393   3.861  0.2283  0.1229  0.3018
23082W        W38213  14.341   6.720  14.310  0.0933 -0.2407  0.0687
23083W        W38214   7.922   7.324   0.509  0.5041  0.1648 -0.1822
23084W        W38215   3.289   9.821   4.134  0.0158 -0.0889 -0.0114
23085W        W38216   3.511   6.418   0.528  0.2088  0.1265 -0.0809
23086W        W38217  17.727   0.718   4.938 -0.2017  0.0534 -0.2425
23087W        W38218   9.379   8.278   2.272 -0.0273  0.0488 -0.2423
23088W        W38219  12.440   3.451   0.822  0.0058 -0.1966  0.2628
23089W        W38220  16.960   0.717   0.072  0.3221 -0.0966 -0.0475
23090W        W38221  14.277   1.738   2.335 -0.0083  0.0095  0.1775
23091W        W38222   8.123   7.854   9.761  0.1930 -0.0140 -0.1818
23092W        W38223  11.554  15.537  10.979  0.2376  0.0830 -0.0876
23093W        W38224   0.087  16.990   0.419  0.0829  0.1542  0.4536
23094W        W38225  13.217  14.820   1.417 -0.2212 -0.0216  0.1053
23095W        W38226   8.586  15.600  12.844  0.0962  0.1433 -0.0822
23096W        W38227  11.702  13.376  11.203  0.3581  0.1317  0.1154
23097W        W38228  14.018  11.836  15.399  0.1399 -0.2170  0.0873
23098W        W38229   7.057  11.472   4.752  0.1437 -0.0146 -0.3893
23099W        W38230  16.602   9.874   4.715 -0.1882 -0.2589 -0.3122
23100W        W38231  13.370  14.179   5.224 -0.3650  0.0503  0.0517
23101W        W38232   2.722   9.397  14.205  0.1777 -0.2724 -0.3578
23102W        W38233   3.024  14.184   1.724  0.1783  0.0142  0.2861
23103W        W38234  14.988  13.735  12.285 -0.1026 -0.0645  0.0341
23104W        W38235   2.356  15.943  12.023 -0.2252 -0.0373  0.1859
23105W        W38236   8.029  17.975  14.478 -0.2056  0.0101  0.3239
23106W        W38237   2.498   9.797   1.551 -0.1384 -0.0205 -0.0995
23107W        W38238   2.451  17.367   3.809 -0.2742 -0.2782 -0.0042
23108W        W38239   6.432   3.414   3.828  0.1423  0.1752  0.2303
23109W        W38240   3.170  16.152   0.256  0.0688 -0.2715  0.1134
23110W        W38241  11.238  15.582  13.792  0.0721  0.0957 -0.1051
23111W        W38242  16.311   8.103  13.133  0.1501 -0.0758  0.0427
23112W        W38243   7.144  11.332   0.568  0.0132  0.2298 -0.2545
23113W        W38244   5.154   0.486  11.693  0.1284 -0.0789  0.1459
23114W        W38245  14.364  12.953   5.239  0.2595 -0.2355  0.5688
23115W        W38246  15.704  10.373  15.364 -0.2582 -0.2272 -0.1071
23116W        W38247  13.613   7.818  11.619 -0.1355 -0.0909 -0.5874
23117W        W38248  14.130   2.187   4.198  0.0756 -0.1827  0.2525
23118W        W38249   9.466  14.285  13.774  0.2269  0.1000 -0.1273
23119W        W38250   1.694  16.688  15.345 -0.1875  0.0765 -0.0128
23120W        W38251   7.097  16.892  15.530  0.3928 -0.0505  0.1632
23121W        W38252   9.062  14.433   0.212  0.0218 -0.2893  0.0313
23122W        W38253  16.517   9.060   2.616  0.0363 -0.0035 -0.0136
23123W        W38254  10.216   6.852  11.021 -0.2335  0.0992 -0.1984
23124W        W38255  14.314  17.435  12.757  0.0358  0.3952 -0.1899
23125W        W38256  11.924  17.267   2.960 -0.3978  0.0971  0.0716
23126W        W38257  14.625  17.702  12.218  0.0965  0.0351 -0.0072
23127W        W38258   4.071  14.438  12.016 -0.0492  0.0105  0.2130
23128W        W38259   0.525   0.831  13.498  0.0355  0.1804  0.1356
23129W        W38260   9.822   4.897  13.567  0.1181  0.1918  0.0091
23130W        W38261   5.715   8.113   0.772  0.0738  0.1722  0.0436
23131W        W38262   0.860   3.010  12.056  0.0906 -0.0312 -0.1958
23132W        W38263   4.252  11.250  13.244  0.1692 -0.1824 -0.1569
23133W        W38264   2.111  16.869   2.139  0.4442 -0.2295 -0.2851
23134W        W38265  14.732  12.155   1.825  0.0000  0.0258  0.1060
23135W        W38266   2.813  12.108   3.347 -0.2672  0.1025  0.1021
23136W        W38267   0.036  10.509  10.642  0.1902 -0.2819  0.2227
23137W        W38268   3.502  12.849   2.546  0.3210  0.1555  0.3031
23138W        W38269   6.275   1.025  14.085  0.1417  0.1323 -0.1016
23139W        W38270  14.800   1.232  13.770 -0.0269 -0.3343 -0.2641
23140W        W38271  14.261  17.833   0.031 -0.0102  0.1625  0.2952
23141W        W38272   2.463  13.739  13.867 -0.0564 -0.3572  0.4743
23142W        W38273   0.834   2.009  15.967 -0.0624  0.2375  0.0756
23143W        W38274   5.210   5.163   2.365 -0.0545  0.0547  0.0862
23144W        W38275  18.238  11.975   3.614 -0.2142  0.0643  0.0678
23145W        W38276   2.755   5.203  11.627  0.2824  0.0350 -0.2472
23146W        W38277   4.970   3.756  15.878 -0.1604 -0.1531  0.3764
23147W        W38278   7.009  13.656   4.492  0.1620 -0.2423  0.1508
23148W        W38279   2.123   5.739   2.865 -0.1202 -0.0265  0.4978
23149W        W38280   9.998   2.418   1.956 -0.1780 -0.4111  0.0850
23150W        W38281  13.890   3.890  11.224  0.0531  0.2632  0.2824
23151W        W38282   2.171   8.488   1.268  0.2229  0.1410 -0.0608
23152W        W38283   3.406   3.188   0.357  0.0898  0.0501 -0.0054
23153W        W38284  15.004   1.963  13.997 -0.2178  0.1104 -0.2203
23154W        W38285  15.039   6.221  13.852  0.1101  0.1884 -0.0883
23155W        W38286   6.794   0.921   1.065  0.1648 -0.1554 -0.1258
23156W        W38287   1.481  12.269   2.825  0.0937  0.0130 -0.0314
23157W        W38288  14.434  17.934   1.302  0.2966  0.3240 -0.0083
23158W        W38289   5.043   7.570  13.232 -0.1572 -0.1065  0.2298
23159W        W38290  13.660   8.610  14.422 -0.3809  0.0116  0.0235
23160W        W38291   4.096   6.973  10.116  0.0661  0.3073  0.1467
23161W        W38292   7.048  12.253  11.603 -0.6801  0.2748 -0.2419
23162W        W38293  12.610  11.452  14.431  0.0994  0.2816 -0.1905
23163W        W38294  18.360  11.963  11.702 -0.1480 -0.2047 -0.1884
23164W        W38295   5.081  11.399  14.974 -0.0313 -0.3966  0.1088
23165W        W38296  13.004   3.812  15.142  0.1758  0.1960  0.0921
23166W        W38297   4.697  16.984  14.358 -0.1937  0.2222 -0.3101
23167W        W38298   2.831  18.074  11.409  0.3883 -0.0111 -0.0644
23168W        W38299  16.952   3.296   4.606  0.1447  0.1067 -0.0317
23169W        W38300  12.358   4.220   1.389 -0.2005  0.2971  0.2136
23170W        W38301  16.124  18.125   0.862  0.1386  0.0639 -0.2547
23171W        W38302   0.546   1.322  12.624 -0.0664  0.3315  0.1373
23172W        W38303   0.807   8.831   4.418 -0.1570 -0.3292  0.6340
23173W        W38304   5.283   7.459  14.990 -0.0134 -0.1895  0.1782
23174W        W38305   8.542  11.369  12.491 -0.0766  0.0372 -0.0088
23175W        W38306   2.903  11.205   3.484  0.1256 -0.1436  0.0286
23176W        W38307  14.411   4.483  11.998 -0.1516  0.0181 -0.0726
23177W        W38308  14.218   3.118   1.751  0.0407  0.2508 -0.1255
23178W        W38309   2.009  14.509   4.859  0.3014  0.1674 -0.1075
23179W        W38310  18.333  10.176   1.170  0.2450  0.1229 -0.1249
23180W        W38311  16.418  16.428  13.796  0.0750  0.0019  0.2492
23181W        W38312   0.817  12.518   2.329  0.1441 -0.0447  0.3458
23182W        W38313   8.076  17.003  10.842  0.0664  0.0177  0.2189
23183W        W38314   6.631  14.282   2.975  0.2782  0.0749  0.0204
23184W        W38315  18.043   8.454   4.576 -0.3440  0.0370  0.0639
23185W        W38316   9.151  12.723  12.539 -0.1433 -0.0461 -0.0206
23186W        W38317   8.514   4.637   3.225  0.3807 -0.0189  0.0605
23187W        W38318   4.615  10.676  14.524 -0.1690  0.1466 -0.2654
23188W        W38319   2.357  17.510  10.936  0.0241  0.2810 -0.1913
23189W        W38320   7.874   7.677   4.465 -0.0159  0.1295  0.1152
23190W        W38321   0.128  13.106   3.090  0.1194  0.0087 -0.1159
23191W        W38322   4.520   2.806  10.550 -0.2490 -0.1134  0.1382
23192W        W38323   4.955  15.005  11.193  0.0738 -0.0099 -0.0848
23193W        W38324  10.545   0.540  13.255 -0.1848 -0.1951 -0.3716
23194W        W38325   8.194  10.826  12.347  0.2088  0.0747 -0.0945
23195W        W38326  14.352   1.971  11.196 -0.1144  0.6290  0.0174
23196W        W38327   7.797   8.508   3.967  0.1206  0.1098 -0.1856
23197W        W38328  17.646   9.843   5.585  0.2272 -0.0639  0.2768
23198W        W38329  10.412   2.349  14.786  0.5891  0.2238 -0.2342
23199W        W38330  16.899  11.714   0.331  0.1209 -0.2502  0.3219
23200W        W38331  16.323   5.611  11.396 -0.0772  0.1066  0.0447
23201W        W38332   0.435  12.708  14.338 -0.1319 -0.1059  0.1505
23202W        W38333   7.299   1.848  14.628  0.1509  0.0004  0.3116
23203W        W38334  11.976  15.192  14.097 -0.0085  0.0832  0.0736
23204W        W38335  16.098  17.844  15.072 -0.1834 -0.1380  0.0474
23205W        W38336  16.854  15.753  13.463 -0.1977 -0.0947  0.1871
23206W        W38337   8.038   5.974   3.888 -0.0282 -0.0394 -0.0699
23207W        W38338   9.613  10.306  14.070 -0.0331  0.1036  0.4720
23208W        W38339   5.547   2.360   0.838  0.3362  0.2397  0.1236
23209W        W38340  14.743   6.227   5.257 -0.4222  0.1464  0.2368
23210W        W38341   9.502  16.850  11.150  0.0287  0.1330 -0.2457
23211W        W38342   8.002  11.418  15.666  0.1851 -0.1167 -0.2288
23212W        W38343   2.492   8.123  13.823  0.0429  0.0522 -0.3998
23213W        W38344   2.991   9.344   4.034  0.0794  0.1732  0.2918
23214W        W38345  14.686  10.843   2.442  0.0004  0.4244 -0.1353
23215W        W38346  10.699  16.397  13.341  0.0892 -0.1184  0.1633
23216W        W38347  18.035  14.551   0.706  0.0780  0.2425 -0.3158
23217W        W38348  13.318  14.988  11.559  0.3292 -0.0922 -0.1617
23218W        W38349   0.206   1.725  15.520 -0.1763  0.0973  0.2258
23219W        W38350  10.164   2.988  10.765 -0.0509  0.2583  0.2041
23220W        W38351   5.397  11.882  15.810 -0.0198  0.1893  0.0128
23221W        W38352   6.022  11.021   4.146  0.0805 -0.0357 -0.0783
23222W        W38353   5.046  15.274  15.897  0.0540 -0.0485 -0.0742
23223W        W38354  11.593  14.238   2.080  0.1833  0.1178  0.1601
23224W        W38355  10.970  13.917  12.591  0.1483 -0.0682  0.0439
23225W        W38356   2.246  12.302   2.066 -0.3794  0.2371 -0.1337
23226W        W38357   6.682  13.963  14.726  0.0017  0.1349  0.1061
23227W        W38358   4.699   7.093  12.914  0.1993 -0.1740 -0.2707
23228W        W38359   3.688   7.620  11.092 -0.1823  0.1972  0.1526
23229W        W38360  15.655  14.820   4.025  0.3007  0.1880  0.1290
23230W        W38361   1.979   4.947  12.150 -0.1048  0.0727 -0.0196
23231W        W38362  10.307  17.594   4.255  0.1400 -0.0590 -0.1059
23232W        W38363   5.377  11.705  13.024 -0.3395  0.1043  0.1203
23233W        W38364   9.212   9.557  14.959 -0.2648 -0.0863 -0.0319
23234W        W38365   6.625  15.120   1.843  0.3915  0.2424  0.0840
23235W        W38366   4.985  15.563   4.522  0.0969 -0.2486 -0.2538
23236W        W38367  10.261   5.908  14.594 -0.0087  0.1264  0.1365
23237W        W38368  12.163  10.738   0.712  0.2179  0.0218  0.0347
23238W        W38369   3.798  12.092   5.757 -0.1707 -0.0254 -0.0700
23239W        W38370  14.466   6.298   1.057  0.0667  0.1138 -0.1160
23240W        W38371  18.195  11.845   2.926  0.1349 -0.1477 -0.3796
23241W        W38372   0.912  11.161  12.384  0.2522 -0.0004 -0.0938
23242W        W38373  12.550  14.141   1.493 -0.0148 -0.4393  0.0447
23243W        W38374   0.941  13.075   4.040  0.0679  0.0499 -0.2566
23244W        W38375   4.464   6.141   1.919  0.0926  0.1346  0.0120
23245W        W38376  16.774  12.361  12.003  0.1148 -0.5682  0.1120
23246W        W38377  12.816   4.806  13.757  0.0543 -0.1674 -0.3479
23247W        W38378  11.571  17.501  13.013 -0.0616  0.0977  0.0807
23248W        W38379   6.389   7.956  13.518  0.1237  0.0858 -0.0160
23249W        W38380   4.225   8.345   2.737  0.3239  0.0456  0.1848
23250W        W38381  14.851   0.803   1.016 -0.1789 -0.0981  0.2676
23251W        W38382   4.616   1.803  14.664 -0.0647 -0.2238  0.3050
23252W        W38383  13.448  10.901   0.104 -0.0906 -0.1827  0.0885
23253W        W38384  12.138  15.356   1.331  0.2959  0.0150 -0.3798
23254W        W38385  10.791   0.059   3.613 -0.4312 -0.0831 -0.1062
23255W        W38386   5.877   5.019   0.601 -0.1876  0.1016  0.1406
23256W        W38387   9.417  15.650  10.976 -0.1814 -0.2074 -0.4344
23257W        W38388   8.199   2.693  13.322 -0.2918  0.2424 -0.0557
23258W        W38389  15.381  11.781  13.237 -0.0508  0.2762  0.2834
23259W        W38390   7.716  10.968  12.265  0.1127  0.1436  0.0325
23260W        W38391   4.867   3.716   5.097 -0.0310  0.4132 -0.2346
23261W        W38392   9.431  11.014   1.553 -0.0648 -0.0698 -0.2982
23262W        W38393   3.089   9.642  16.000 -0.1790 -0.2868  0.0422
23263W        W38394   2.994  12.698   2.581 -0.1703 -0.2425  0.1779
23264W        W38395   6.259   4.611  12.990 -0.1972  0.0890 -0.2431
23265W        W38396   0.988   0.276  14.517 -0.0789  0.0047 -0.1731
23266W        W38397  10.690  14.693  11.167 -0.1564 -0.1659 -0.2488
23267W        W38398  12.782  17.032  15.900  0.3281  0.1315  0.0358
23268W        W38399  10.755   0.401   1.348 -0.0758  0.0789 -0.0074
23269W        W38400   8.081   4.781  15.188 -0.0327 -0.4041 -0.0049
23270W        W38401  11.162   6.942  14.253  0.1647  0.1547  0.1028
23271W        W38402  11.147   4.019  12.130 -0.2047 -0.1218  0.0626
23272W        W38403   9.727  12.466  10.736 -0.0612  0.1123  0.0205
23273W        W38404   7.372  14.970  15.829  0.0121 -0.1343 -0.3908
23274W        W38405  10.475   6.020  10.641  0.0396  0.1115 -0.0345
23275W        W38406   1.730   1.240  13.608 -0.0735  0.1038  0.1962
23276W        W38407  16.371  16.570   1.994  0.0531 -0.0628  0.0767
23277W        W38408   4.624  12.911   1.633 -0.1825  0.1111  0.1531
23278W        W38409   5.396   9.411   1.270 -0.1549 -0.1635 -0.0774
23279W        W38410   6.219   8.305  11.637  0.1413 -0.0787 -0.0948
23280W        W38411   5.717   3.393  13.227  0.0863 -0.0112  0.1445
23281W        W38412  11.322  13.293  10.871 -0.1715  0.1072 -0.2460
23282W        W38413  11.713  14.911  15.012  0.2709 -0.2682 -0.0618
23283W        W38414   5.457   8.667   2.955 -0.1497  0.1027 -0.1154
23284W        W38415   6.472   9.244  15.806 -0.2476  0.2341  0.3236
23285W        W38416   4.027  16.432  14.885  0.2167  0.1720  0.0098
23286W        W38417  13.304  10.438  12.493  0.1018 -0.0067  0.1063
23287W        W38418  12.260   2.475  12.196  0.2615  0.3282 -0.2959
23288W        W38419   6.408  13.315   2.222  0.0917 -0.3794  0.2653
23289W        W38420  10.767   3.856   0.791  0.0368  0.1142  0.0497
23290W        W38421   2.170   5.415  14.383  0.0235 -0.1302  0.0675
23291W        W38422   3.579  16.306  12.916 -0.0771 -0.1323 -0.0062
23292W        W38423  14.437   0.126  15.572  0.2047 -0.0678  0.0316
23293W        W38424  18.184  13.025   0.601 -0.1698 -0.1827  0.0412
23294W        W38425  12.846   1.416  14.434 -0.2906  0.0347 -0.2116
23295W        W38426   4.516  18.127   2.447 -0.0637  0.0051 -0.5023
23296W        W38427   8.144  12.823  12.517 -0.0483 -0.1743  0.3306
23297W        W38428   8.487  10.515  14.587 -0.1371 -0.0380  0.3378
23298W        W38429  15.744   9.652  14.988 -0.0078 -0.1497  0.0659
23299W        W38430   4.091  14.242  12.947 -0.1754  0.1008  0.1035
23300W        W38431   3.904  13.594  14.375  0.2391  0.0555 -0.5175
23301W        W38432  11.844  18.222  14.144  0.6036  0.0167  0.2300
23302W        W38433   8.881   2.590   3.059  0.0792  0.1459  0.1363
23303W        W38434   9.645  17.905   5.728 -0.0706 -0.1885  0.1093
23304W        W38435   7.822   6.839  12.099 -0.1516 -0.1488 -0.0139
23305W        W38436   9.608   7.115   3.782  0.2966 -0.1156  0.0592
23306W        W38437  18.043   5.879   0.349 -0.2739 -0.1934 -0.3950
23307W        W38438  16.543   3.895  15.904 -0.1145 -0.2101  0.0927
23308W        W38439  11.884   2.501  15.396 -0.0553 -0.1685  0.1422
23309W        W38440  17.652   4.218   2.010  0.0722  0.2760  0.0112
23310W        W38441  13.322  13.262   3.268  0.0711 -0.2433 -0.2326
23311W        W38442   7.328  15.982  13.707  0.3112 -0.3817  0.1666
23312W        W38443  14.794  17.618   5.572  0.1601  0.0879  0.1280
23313W        W38444   2.609  11.566   5.525 -0.0569  0.1888  0.2310
23314W        W38445   6.018   4.834   0.073  0.0593  0.1924 -0.0400
23315W        W38446  15.940   7.389   1.418  0.1740 -0.2233  0.0121
23316W        W38447  13.728   1.903   2.124  0.0353 -0.2845 -0.2076
23317W        W38448  17.018  16.043  15.317  0.1333  0.0384  0.2666
23318W        W38449  15.328   0.738   5.826 -0.1211  0.3292  0.1408
23319W        W38450  10.419   9.103  10.899 -0.0374  0.0929 -0.0282
23320W        W38451  12.112   3.405  14.937  0.0327  0.3002  0.0096
23321W        W38452   1.621  17.980  15.507  0.2832 -0.2211 -0.0644
23322W        W38453  11.064  15.086   2.662 -0.1112  0.3818  0.0811
23323W        W38454   7.597   5.081   0.095  0.0994  0.2178  0.0894
23324W        W38455   7.940   0.138  12.418  0.1663 -0.1505 -0.4085
23325W        W38456  12.585   8.821  16.076 -0.0182  0.2998 -0.2736
23326W        W38457   6.975  14.565  12.623  0.2378 -0.0130  0.0413
23327W        W38458  15.458   3.034   1.108  0.0104 -0.1005  0.1364
23328W        W38459   0.114   0.519   2.853  0.1153 -0.1308 -0.1565
23329W        W38460   3.763   3.284  12.456 -0.3914 -0.0042 -0.3005
23330W        W38461  13.790  10.787  12.704  0.1546  0.1442 -0.2147
23331W        W38462  13.076  11.001  15.379 -0.0587  0.0813 -0.2085
23332W        W38463   2.700   0.902  10.739 -0.2702  0.0249 -0.5643
23333W        W38464   3.073  15.002   3.952 -0.3055 -0.4078 -0.0770
23334W        W38465  11.197  15.602  12.571 -0.2211 -0.1426  0.1939
23335W        W38466   5.655   1.988  14.909  0.0412  0.1252  0.1067
23336W        W38467  15.910   9.007   0.147  0.0109 -0.0017 -0.0823
23337W        W38468   3.933  14.090   1.387 -0.1092 -0.0274 -0.1486
23338W        W38469  10.498  12.565  15.347 -0.1167  0.0811 -0.1571
23339W        W38470   7.922   6.020  15.725 -0.1214  0.0985  0.1655
23340W        W38471   1.587   3.942   2.547 -0.2476  0.0880  0.1076
23341W        W38472  16.442   0.365   2.081 -0.0805  0.0664 -0.0751
23342W        W38473  14.442   4.395   2.878 -0.0338  0.2718  0.0116
23343W        W38474  15.063  10.637   2.183 -0.0203 -0.0658 -0.2285
23344W        W38475   8.254   5.365  11.670  0.1128  0.3810 -0.1337
23345W        W38476   3.496  14.596   3.289  0.3341  0.4466  0.0850
23346W        W38477  12.384  14.247  14.170 -0.1615  0.0551 -0.0799
23347W        W38478   3.131  14.238  11.687  0.2281 -0.0106 -0.1822
23348W        W38479   2.134  14.647  13.922  0.1585  0.0680  0.0746
23349W        W38480   3.495  16.889   5.023 -0.2566 -0.1641  0.1465
23350W        W38481  17.500  14.446  11.156  0.2410  0.0430  0.1543
23351W        W38482  11.123   9.727  13.106 -0.0150  0.1044 -0.2537
23352W        W38483   9.211  12.523   3.774 -0.0477  0.0650 -0.1363
23353W        W38484   7.171   7.825   0.786  0.1420  0.0124 -0.1508
23354W        W38485   9.077  11.483   3.909  0.0688 -0.0559 -0.2967
23355W        W38486   8.436  11.197   2.162 -0.1820 -0.0265  0.3606
23356W        W38487  12.043   9.868   2.055 -0.1142 -0.3338 -0.2466
23357W        W38488  18.116  15.986   0.530 -0.2300 -0.0368 -0.0032
23358W        W38489  13.233   9.926  12.286  0.2006  0.2520  0.0478
23359W        W38490  17.967  15.591   2.234  0.3648  0.1110  0.0059
23360W        W38491   9.199   2.193   2.179 -0.1203 -0.2030  0.1981
23361W        W38492  17.126   3.203   0.149 -0.2431 -0.0634  0.3482
23362W        W38493   1.651  10.931  14.763  0.0968  0.2195 -0.1338
23363W        W38494   3.766   4.189  15.197 -0.0317  0.4361 -0.0148
23364W        W38495   6.080  12.799   2.861 -0.2271 -0.3977  0.1579
23365W        W38496  13.787   1.168  10.651 -0.1369 -0.0895 -0.0463
23366W        W38497   6.022   7.929   5.106 -0.2652  0.4631  0.3843
23367W        W38498   3.284   4.320  12.334 -0.2983  0.0875 -0.0257
23368W        W38499   2.775  11.313   4.150  0.3477  0.2109  0.0904
23369W        W38500  15.856   6.876   1.513 -0.2572 -0.0779 -0.2176
23370W        W38501  16.478  18.261   0.386  0.1461 -0.1727 -0.0920
23371W        W38502   8.124   3.863  14.659  0.0560  0.1043 -0.1594
23372W        W38503  13.568  14.238  15.749 -0.0146 -0.3464  0.2978
23373W        W38504   2.027  10.484   1.592  0.0866 -0.0784 -0.0629
23374W        W38505   4.986  17.287  13.757  0.0390 -0.1749  0.2848
23375W        W38506   9.182   4.596  12.185 -0.2332 -0.1109  0.0934
23376W        W38507  12.781   3.872   0.389 -0.3953  0.0584 -0.2964
23377W        W38508   4.203   0.523  14.545 -0.1223  0.1535 -0.0579
23378W        W38509  13.720  17.875  11.695  0.1185 -0.1093 -0.1993
23379W        W38510   8.242  17.026  14.753 -0.2588 -0.3122 -0.0173
23380W        W38511   0.577   4.255   2.686 -0.3188  0.0546  0.2104
23381W        W38512   9.341   8.042   5.435 -0.1413  0.1221  0.0273
23382W        W38513  10.460  11.543  10.915  0.0930 -0.2094 -0.0047
23383W        W38514   1.375  11.775   4.514 -0.1358  0.1717 -0.1540
23384W        W38515   0.455  11.916  13.915 -0.0802  0.0256  0.1354
23385W        W38516  14.000   4.421  12.261 -0.2728 -0.1329  0.2114
23386W        W38517  13.915   1.776   1.674  0.1154 -0.1241 -0.0697
23387W        W38518   9.353   0.015  13.748 -0.2001 -0.0503  0.2019
23388W        W38519   3.273  18.331  15.937 -0.1563  0.3607  0.1465
23389W        W38520  12.964   2.247  12.472  0.0488 -0.0309  0.1166
23390W        W38521   9.424  13.414   1.896  0.0147 -0.0086  0.1476
23391W        W38522  13.874  13.431   3.474  0.1978 -0.2983 -0.1748
23392W        W38523   2.415  13.126  14.669 -0.2384 -0.0642  0.0566
23393W        W38524   7.735  17.144  12.492  0.3629 -0.1412  0.4417
23394W        W38525   2.987   2.873   4.873 -0.1985 -0.0083  0.0725
23395W        W38526   7.944   0.319   4.720  0.1300 -0.1690  0.3859
23396W        W38527  13.508  13.442  15.826 -0.2082  0.4139  0.2036
23397W        W38528   9.674  13.337   0.227  0.2667  0.2939  0.2053
23398W        W38529  15.566   7.530  10.595  0.1833 -0.1882  0.1074
23399W        W38530  16.810   4.687  14.083  0.0030 -0.0726  0.1187
23400W        W38531  12.218   9.427  14.735  0.2183 -0.0184  0.3753
23401W        W38532  13.512  17.221   0.507  0.0182 -0.2995 -0.1595
23402W        W38533  14.003   6.689  11.301 -0.1779  0.0556  0.1496
23403W        W38534   9.868   0.834  12.062  0.0656  0.1055 -0.2626
23404W        W38535  12.617  17.795  10.405  0.4256  0.1231 -0.0245
23405W        W38536  10.882  18.059   5.011  0.1494  0.3952  0.0735
23406W        W38537  11.667   9.611  12.189 -0.1504  0.0734  0.0413
23407W        W38538  11.057   2.752   3.734 -0.0407  0.2674  0.1092
23408W        W38539   1.912   4.111  13.682  0.1807 -0.0118 -0.3201
23409W        W38540  10.245  15.834   0.209  0.1639  0.0272  0.2475
23410W        W38541   5.897  10.312  12.473 -0.0402 -0.2716  0.1726
23411W        W38542  16.775  12.947   3.168  0.0261 -0.1770  0.0124
23412W        W38543  12.021  12.639   1.870 -0.0528 -0.1283 -0.3208
23413W        W38544  12.803   7.446   3.800  0.2396 -0.0730 -0.0824
23414W        W38545   5.960   7.892   5.619  0.2814  0.1630  0.3047
23415W        W38546   0.465   4.450  11.260 -0.3325 -0.2494 -0.0609
23416W        W38547   4.081   6.531  11.714 -0.0276  0.1148 -0.1060
23417W        W38548  11.253  15.998  10.863  0.0561  0.1476 -0.2797
23418W        W38549   8.037   5.591  13.355  0.2069 -0.0496 -0.1957
23419W        W38550   7.783  13.530  13.498  0.1087 -0.3448 -0.1120
23420W        W38551  14.238   3.114  13.292  0.0973 -0.3892  0.0231
23421W        W38552   6.276   0.199   1.304 -0.1719  0.2654  0.0683
23422W        W38553   5.688  14.470  13.325  0.1329  0.0906 -0.3597
23423W        W38554  17.050   4.288   4.636 -0.0583 -0.0738  0.4677
23424W        W38555  13.999   6.720   0.460 -0.1466  0.1340 -0.0012
23425W        W38556   6.383   8.718   3.404 -0.0023  0.1902  0.3665
23426W        W38557   3.732  16.129  15.226  0.0730  0.2628  0.0387
23427W        W38558  17.924   5.615  11.348  0.1835 -0.0939 -0.2057
23428W        W38559   0.367   7.857  15.820  0.3203  0.3161  0.0487
23429W        W38560  13.108   6.458   2.332 -0.1105  0.0109 -0.3199
23430W        W38561  11.162   6.885  12.820 -0.2294 -0.3759 -0.5333
23431W        W38562   4.976  17.814  15.776  0.2021 -0.1247 -0.1731
23432W        W38563   6.126   8.334  11.123 -0.0347 -0.0885  0.1477
23433W        W38564  16.455  10.222  14.145 -0.0437  0.0430 -0.0811
23434W        W38565   4.856  10.853  11.645 -0.2626 -0.0460 -0.2128
23435W        W38566   2.753   8.874  14.177 -0.1603  0.1525 -0.0650
23436W        W38567   7.109  10.449   4.969 -0.2167 -0.1114  0.1961
23437W        W38568   9.498   8.785   1.721  0.1406 -0.0297 -0.1200
23438W        W38569   2.434  11.159  10.465 -0.1750  0.0083 -0.1823
23439W        W38570   8.215   0.299  14.918  0.2299 -0.3082 -0.1040
23440W        W38571  13.469   4.752  10.993  0.0145  0.0490  0.0481
23441W        W38572   6.344   0.310  11.493 -0.3616  0.1297 -0.1578
23442W        W38573   4.786   7.801   4.148  0.4575  0.1108  0.0127
23443W        W38574  10.401   4.968  14.769  0.1807 -0.1896 -0.1346
23444W        W38575  14.485   7.432  10.810 -0.2470  0.4037  0.1575
23445W        W38576   9.115  12.619  11.942  0.0825 -0.1537 -0.5363
23446W        W38577   5.259   5.733  13.842  0.2166 -0.1930  0.4762
23447W        W38578   7.321  16.251   4.378  0.2374 -0.1224  0.0659
23448W        W38579   6.666  14.361  16.121 -0.3739  0.1341  0.1102
23449W        W38580   3.229   8.946   3.926 -0.1551 -0.3243 -0.0971
23450W        W38581  14.415   8.604  12.550 -0.0844  0.1003  0.0411
23451W        W38582  14.263  16.854  14.246  0.1565 -0.1798  0.2973
23452W        W38583   7.371   8.502   9.913 -0.3077  0.0384  0.4375
23453W        W38584   1.561   1.885  13.229  0.2811  0.0039 -0.2679
23454W        W38585   5.572  14.687   1.251 -0.2246 -0.2112 -0.1435
23455W        W38586   5.030  10.784   1.195 -0.1548  0.3402  0.0634
23456W        W38587  15.739  13.287   5.740 -0.1713 -0.1275 -0.0781
23457W        W38588  10.784  12.608   1.452  0.1885  0.0638 -0.2677
23458W        W38589   8.982   6.324   1.103 -0.0008 -0.0728 -0.2702
23459W        W38590  13.410   1.686   1.837 -0.0005 -0.0918  0.1308
23460W        W38591  14.880   2.194   0.005  0.1115  0.1655  0.0217
23461W        W38592  11.699  11.956  12.219  0.2372 -0.1056 -0.2094
23462W        W38593  17.913   3.680   1.376  0.0229  0.0774 -0.0385
23463W        W38594   1.425  11.864  15.913  0.0204  0.0742  0.0238
23464W        W38595   9.721  12.539  10.245 -0.2213  0.0138  0.0799
23465W        W38596   2.671   1.286   1.039  0.0138  0.0009  0.0050
23466W        W38597   9.396   2.270  12.775  0.1154 -0.2257  0.2132
23467W        W38598   7.760  11.758  15.918 -0.0225 -0.1411 -0.3709
23468W        W38599   9.502  17.311   1.976  0.1485 -0.1307 -0.0166
23469W        W38600  11.244  12.936   1.115  0.2840  0.1289  0.2365
23470W        W38601  16.914   6.519   3.219  0.2901  0.1937  0.4182
23471W        W38602  10.460  13.721   1.032  0.0857  0.1790 -0.0952
23472W        W38603   5.586  17.574   0.596 -0.2562  0.0743 -0.1292
23473W        W38604  17.720   0.484   3.243  0.2254 -0.1424 -0.2846
23474W        W38605  11.468  14.346   5.356 -0.0816 -0.1266  0.1270
23475W        W38606  17.539   1.533  15.373 -0.4076 -0.2132  0.3452
23476W        W38607  14.976   9.937   2.111 -0.2612  0.1571  0.1622
23477W        W38608  12.790  14.977   0.479  0.1928 -0.1586  0.2059
23478W        W38609  11.184   0.476   0.076  0.0252  0.2016 -0.3619
23479W        W38610   6.360  11.851   4.017  0.0699  0.2100  0.1700
23480W        W38611  10.769   0.366   0.380  0.2177  0.4058  0.1138
23481W        W38612   3.550   4.365   4.789  0.0689  0.0994  0.1586
23482W        W38613   0.913  17.394  11.702  0.0358  0.0264 -0.0212
23483W        W38614   9.876  14.401  10.648  0.2829  0.0537 -0.6410
23484W        W38615  13.170  15.405   2.111  0.1099  0.1717 -0.1435
23485W        W38616  16.335  13.168  13.047  0.0906  0.0016  0.2531
23486W        W38617   5.992  14.854  13.187  0.0976 -0.0123  0.2394
23487W        W38618   5.700  10.230  15.348  0.1273 -0.1947  0.1473
23488W        W38619   3.285   6.852   0.450 -0.3854  0.1067  0.1555
23489W        W38620  14.106  10.245   3.694 -0.1376  0.2282  0.1013
23490W        W38621   0.717   8.924   3.925  0.0895 -0.1595  0.2668
23491W        W38622   5.335   3.147   2.380  0.4139 -0.2364 -0.2287
23492W        W38623  10.022  11.798   4.698  0.3441  0.0180 -0.0647
23493W        W38624   3.385  13.515  11.783  0.0192  0.0217 -0.0427
23494W        W38625  13.154  13.687   0.317  0.1004  0.2178  0.2167
23495W        W38626   2.913   2.919  12.595 -0.1961  0.0089 -0.1131
23496W        W38627   8.597  12.744   1.762  0.0251 -0.1466 -0.2438
23497W        W38628  14.622  14.335   4.735 -0.1423 -0.1912  0.1071
23498W        W38629  14.886   9.405   5.217 -0.1107  0.2168 -0.0468
23499W        W38630  13.647   1.285   0.531 -0.0045 -0.0080  0.1064
23500W        W38631   0.182   0.049   4.819 -0.1251 -0.2286 -0.1289
23501W        W38632  15.763  15.272  15.024  0.1662 -0.1829 -0.1174
23502W        W38633   6.085   4.600   5.038 -0.2943 -0.2032 -0.1560
23503W        W38634  11.063  11.659  11.449 -0.0515 -0.1893  0.2505
23504W        W38635   7.367  16.671   2.048 -0.2456 -0.5799 -0.2631
23505W        W38636   1.119  14.883   1.187  0.0212 -0.1317 -0.2506
23506W        W38637  17.971  11.574  11.810  0.1013  0.4065 -0.2991
23507W        W38638   7.969  11.271   5.063  0.4324 -0.2040 -0.3388
23508W        W38639  12.858  10.757  10.733 -0.1753 -0.1781  0.0616
23509W        W38640   4.844  14.310  15.781  0.1144  0.1991 -0.0875
23510W        W38641  12.534  13.500  14.005 -0.2625 -0.1077 -0.0578
23511W        W38642  13.781  15.551  14.319 -0.1672  0.3479  0.2265
23512W        W38643   8.231  15.772   3.870 -0.1658  0.2934  0.2471
23513W        W38644  15.524   0.556  14.425 -0.2745 -0.1925  0.1774
23514W        W38645   4.568  14.149  12.971  0.0253 -0.4550 -0.2542
23515W        W38646  10.881  10.136   1.252  0.1155 -0.1531 -0.1010
23516W        W38647   1.318  10.514  10.709 -0.0999  0.3372  0.0121
23517W        W38648  17.375   2.157   6.087 -0.0686  0.1405 -0.1228
23518W        W38649  11.175  15.717   0.266  0.0472  0.2876  0.1845
23519W        W38650   3.417  16.463  14.393 -0.1693  0.4026 -0.1763
23520W        W38651  14.574  12.558   3.456 -0.0320 -0.0718  0.4598
23521W        W38652  15.254   1.549   3.251  0.2523 -0.0501 -0.2074
23522W        W38653   6.407  15.299   0.345  0.4563 -0.0819  0.0539
23523W        W38654   8.457   1.151  12.801  0.1824  0.2049 -0.0565
23524W        W38655  14.755  14.788   2.376  0.1935 -0.1674 -0.0949
23525W        W38656   8.744  10.366   1.257 -0.0222 -0.2922 -0.0638
23526W        W38657  11.175  11.177   3.681  0.0730 -0.1516  0.2266
23527W        W38658   4.876  14.645   5.916 -0.1411 -0.2066  0.0046
23528W        W38659  12.289  12.063   0.081  0.0624  0.3922 -0.0130
23529W        W38660   5.305  12.273   2.747 -0.0174 -0.1768 -0.2000
23530W        W38661   1.424   9.998   1.214  0.1278 -0.1736  0.2403
23531W        W38662   1.985   4.097   2.991  0.2251  0.0553 -0.5084
23532W        W38663  17.031   3.489  15.383 -0.1771  0.0711 -0.0607
23533W        W38664   6.896  14.247  11.650 -0.1364 -0.0214 -0.0973
23534W        W38665   8.856   8.856   2.356  0.1742  0.2854 -0.0608
23535W        W38666   7.401   8.316   2.500 -0.1637  0.0829  0.0690
23536W        W38667   8.381   1.276   3.500  0.1456  0.2631 -0.1422
23537W        W38668  14.744  14.468   5.180  0.4429  0.0325  0.0464
23538W        W38669   3.983   1.232  15.680 -0.2580 -0.2441 -0.2465
23539W        W38670   4.071   0.777  15.412  0.2032  0.2807 -0.1918
23540W        W38671   0.292  10.584  13.408 -0.0735 -0.0543 -0.2463
23541W        W38672  11.888  13.073   1.662  0.1368  0.3249 -0.0544
23542W        W38673  11.668   6.106  14.673 -0.1545 -0.1116 -0.0094
23543W        W38674   5.279   9.283   9.651  0.0592  0.1392 -0.1386
23544W        W38675   6.255  15.547  15.125 -0.3305  0.2156 -0.4858
23545W        W38676   7.889   9.600   9.795  0.2890  0.0718 -0.0479
23546W        W38677   4.736  15.347  12.969 -0.0335  0.1762 -0.2312
23547W        W38678   2.818   8.057   2.034  0.1761 -0.1244 -0.2532
23548W        W38679   3.701   4.665   1.564  0.0031 -0.2173 -0.1996
23549W        W38680   2.898   1.757  16.075  0.2313 -0.0081 -0.2706
23550W        W38681  17.941   7.709  10.887  0.1434 -0.0314  0.1141
23551W        W38682   2.587   6.745   4.675 -0.2744 -0.0461 -0.1791
23552W        W38683  10.702  17.096   4.776  0.0848 -0.0678  0.0245
23553W        W38684   4.307   0.525   4.367  0.1505 -0.0061  0.0571
23554W        W38685  17.705  17.973   1.111  0.4564 -0.0178  0.3209
23555W        W38686   5.874  12.484   0.191  0.0187 -0.3229  0.0912
23556W        W38687   0.600   9.513  13.697  0.0885 -0.1573 -0.1200
23557W        W38688   5.630   3.523   2.164 -0.0070 -0.2030 -0.0140
23558W        W38689  11.265  12.844   0.244 -0.0029 -0.2095 -0.1770
23559W        W38690   3.443  16.531  14.872 -0.1534  0.3284 -0.2245
23560W        W38691   2.140  14.089  11.775  0.0130  0.1159 -0.2492
23561W        W38692   6.252   6.761   0.600  0.2594  0.2860 -0.0513
23562W        W38693  17.916  16.627   3.937  0.1676  0.1621 -0.0593
23563W        W38694  10.461   2.269   4.204  0.2692 -0.3972 -0.3634
23564W        W38695  14.599  13.534   2.608  0.0569  0.4007 -0.4112
23565W        W38696   7.173   8.413  12.989 -0.2745  0.0585 -0.1348
23566W        W38697   0.612   1.629   0.127  0.0499 -0.2526 -0.0963
23567W        W38698   8.170  17.361   3.704  0.0042 -0.2518  0.5717
23568W        W38699   4.258  14.500   2.726  0.0148  0.0336 -0.2794
23569W        W38700  17.045   9.143  12.958  0.2910  0.1860 -0.1690
23570W        W38701   8.501   3.533   3.924  0.1944 -0.0874  0.0055
23571W        W38702   5.971   8.344  15.558 -0.0766 -0.1307  0.0946
23572W        W38703  17.302  12.996   2.269  0.0662  0.0446 -0.4281
23573W        W38704  15.070  16.071   2.607  0.1207  0.0419  0.1705
23574W        W38705   0.809   9.176  14.036 -0.3360 -0.1647 -0.0522
23575W        W38706   8.824   9.394  14.483 -0.2603 -0.1061 -0.0623
23576W        W38707   9.935   6.956   2.629  0.0764 -0.1005  0.0929
23577W        W38708  12.122  18.255  14.566  0.0114  0.0109 -0.0070
23578W        W38709   3.819   3.978   2.253 -0.0673  0.4112 -0.1579
23579W        W38710  17.071   3.878  11.490 -0.1534 -0.0603 -0.0088
23580W        W38711   6.531   6.169  15.053  0.2022 -0.0013  0.1078
23581W        W38712  13.535  10.397   0.023 -0.1818 -0.0790  0.0439
23582W        W38713  15.271  15.113  11.328 -0.1266 -0.3146 -0.2693
23583W        W38714   9.092   6.576  13.258 -0.0559  0.3043  0.2132
23584W        W38715   6.332   3.002   4.791  0.3228 -0.1844  0.1291
23585W        W38716  12.317  14.169  15.338  0.0113  0.1864 -0.0736
23586W        W38717  10.669   1.024  14.545 -0.0361 -0.0079 -0.3939
23587W        W38718   5.216  13.528  15.633 -0.0615  0.4100 -0.0498
23588W        W38719   5.575  13.499  13.870  0.0930 -0.2052 -0.2472
23589W        W38720  15.875  10.530   4.617 -0.3715 -0.2082  0.1368
23590W        W38721  10.151  13.844   1.383  0.2536 -0.0159  0.0568
23591W        W38722   6.615  10.990   5.390  0.2186  0.0329  0.0860
23592W        W38723   1.373  16.033   1.462 -0.4601  0.1732  0.0036
23593W        W38724   0.659   3.969  14.459 -0.1151  0.2865 -0.2535
23594W        W38725   3.739  12.498   2.315 -0.1657 -0.0199 -0.2271
23595W        W38726  16.333  15.318  16.084  0.0720 -0.2596  0.1250
23596W        W38727  16.642  14.756  14.716  0.0183  0.0687 -0.1055
23597W        W38728  12.628  12.696  14.050 -0.0279  0.2076  0.0964
23598W        W38729   7.031   9.953   3.139  0.0713 -0.2158  0.1060
23599W        W38730   0.012   5.486   2.691  0.0695 -0.1069 -0.0127
23600W        W38731   2.583   8.606  15.242 -0.1054  0.0313 -0.2771
23601W        W38732  12.558   8.390   3.729  0.0257 -0.0887  0.3096
23602W        W38733   2.198  11.905   3.380  0.1680  0.2014 -0.1493
23603W        W38734  10.318   8.051   0.153  0.3151 -0.0392 -0.2067
23604W        W38735   6.258  13.464   5.266 -0.4348  0.0009  0.2203
23605W        W38736   6.840   8.395   1.610  0.1323 -0.2101  0.2056
23606W        W38737   5.855   8.877  14.025 -0.1735 -0.0646  0.1244
23607W        W38738   8.733  14.892  15.586 -0.2096 -0.3088 -0.2174
23608W        W38739  13.825  14.525   1.516 -0.0278  0.0675  0.0940
23609W        W38740  15.233  11.554  16.101 -0.0338 -0.0876  0.0778
23610W        W38741   3.205   9.445  11.460  0.2010 -0.3081 -0.0753
23611W        W38742  13.182   8.863   5.264  0.0516  0.1095  0.2219
23612W        W38743   2.002  11.037  13.867 -0.0146  0.0149  0.0425
23613W        W38744  10.722  13.071   0.181  0.2068  0.1440 -0.0286
23614W        W38745  13.055   4.912  16.054 -0.2700  0.0428  0.0402
23615W        W38746  15.230  10.387  13.229  0.1390  0.1520  0.2035
23616W        W38747  17.478   1.618   2.043 -0.1624 -0.0288  0.3049
23617W        W38748   7.972  17.534   0.247  0.1650  0.2534 -0.6232
23618W        W38749  17.663  18.036   2.390 -0.2582  0.1124  0.1833
23619W        W38750  18.251  17.976  12.870  0.2291 -0.3104  0.1314
23620W        W38751   2.750   7.005   4.009 -0.1989  0.2011  0.1491
23621W        W38752  11.204   3.321  14.556 -0.0021  0.0632 -0.0034
23622W        W38753   2.822  10.367  11.641 -0.1059  0.0535 -0.0760
23623W        W38754  13.402  16.148   0.598 -0.0820 -0.2724  0.1374
23624W        W38755   3.263  11.781  12.481  0.1941  0.0449  0.1132
23625W        W38756  11.830  10.061   1.200  0.0846  0.0761 -0.0069
23626W        W38757  14.249   5.697   3.714 -0.2722 -0.1677  0.0104
23627W        W38758  10.627  16.271  12.695 -0.2403  0.5042 -0.1384
23628W        W38759   4.566  10.442  13.620 -0.2553  0.1629  0.4747
23629W        W38760  16.332  15.141   4.783 -0.1695 -0.1003 -0.1412
23630W        W38761  11.207   5.657   0.565 -0.2088 -0.0659  0.0232
23631W        W38762   2.876   7.185  13.818  0.0652 -0.2262  0.0267
23632W        W38763   1.297  10.277   3.765  0.1252  0.0028 -0.3699
23633W        W38764   4.625   3.998   0.034  0.3587  0.2285 -0.4137
23634W        W38765   0.687   4.491  15.908  0.1034  0.2563 -0.2096
23635W        W38766  14.524  12.372   5.855  0.2142  0.0847  0.0088
23636W        W38767  10.128   3.321   1.100  0.0526  0.1272  0.3451
23637W        W38768   7.467  14.978  12.163  0.1911  0.1409  0.0690
23638W        W38769  13.646   6.476   0.807 -0.0833  0.2693 -0.1877
23639W        W38770  17.867  16.888   2.020  0.1415 -0.1276 -0.1901
23640W        W38771  10.321  13.097  15.500  0.2740 -0.2394  0.0677
23641W        W38772   3.817   1.959   5.190 -0.1279 -0.1875  0.2351
23642W        W38773   6.078   0.986   2.522 -0.1464  0.0500  0.0296
23643W        W38774   8.896   0.521  13.066 -0.0576 -0.0008  0.1410
23644W        W38775   2.062  15.567  15.008  0.0810 -0.1457 -0.4930
23645W        W38776   3.925   5.285  15.485  0.1304  0.1104 -0.0071
23646W        W38777   5.721   3.238  14.842 -0.2925  0.0730  0.1800
23647W        W38778   8.832   7.618   4.030  0.0399 -0.0192 -0.1363
23648W        W38779   1.346   3.785   0.401 -0.0985  0.2678  0.0105
23649W        W38780  13.199  15.432  13.445 -0.2217  0.1627 -0.1224
23650W        W38781  16.028   8.605   5.400  0.0266  0.2661 -0.1992
23651W        W38782   0.549   3.018   1.359  0.1359 -0.1016  0.2245
23652W        W38783   3.785   1.416   2.449  0.1310  0.2690 -0.0549
23653W        W38784   9.178  15.633   3.248  0.1221  0.1409  0.3657
23654W        W38785  13.431  12.809  12.433  0.3304  0.4834  0.1914
23655W        W38786   9.990   1.448  15.793 -0.2027 -0.0872 -0.0581
23656W        W38787  10.006  11.162  13.341  0.1375  0.2222  0.0058
23657W        W38788   2.482  14.302   2.464 -0.0523  0.2080  0.0809
23658W        W38789   8.167  13.138   4.004 -0.2934  0.1078 -0.1947
23659W        W38790  17.362   7.005   0.617 -0.1516 -0.2473 -0.0261
23660W        W38791   3.375   8.167  15.935 -0.1796 -0.0785  0.1841
23661W        W38792  11.618  12.798  15.490  0.1147 -0.0546  0.0871
23662W        W38793   7.180  11.017  15.442  0.1418 -0.1381  0.0121
23663W        W38794  11.345   6.943  13.662  0.1547 -0.1553  0.2024
23664W        W38795  10.803   9.163  14.929  0.0910  0.1493  0.3491
23665W        W38796  13.659   8.062   3.096  0.0713 -0.0195 -0.1003
23666W        W38797  13.004  17.777   0.922 -0.1195  0.2062 -0.0440
23667W        W38798   2.801   8.789  13.368  0.0591 -0.1561 -0.0069
23668W        W38799  16.291   3.545   0.866 -0.1421 -0.2140  0.2659
23669W        W38800   6.607   9.647  13.137 -0.1856 -0.0320  0.0765
23670W        W38801   8.845  14.235   3.802  0.1208  0.0222  0.2448
23671W        W38802  17.921  14.726  11.148 -0.0737 -0.2796  0.1606
23672W        W38803  12.110  14.106   1.267 -0.0369  0.1889  0.2232
23673W        W38804  12.987   0.349  13.113 -0.2519 -0.0747  0.3734
23674W        W38805   2.700   2.026   5.627 -0.0954 -0.1569  0.3287
23675W        W38806  12.544  10.002  15.255  0.3488 -0.0890 -0.0021
23676W        W38807   3.506   1.130   3.834  0.0848  0.1622 -0.0992
23677W        W38808  11.448   1.438   0.143  0.1005 -0.2344  0.0337
23678W        W38809   0.206  17.592  12.948 -0.0458  0.1170  0.1614
23679W        W38810   7.733  13.292  14.138  0.0373  0.2787  0.2857
23680W        W38811  13.075   4.488   4.353 -0.2576  0.1121  0.0444
23681W        W38812   3.690  11.929   2.634  0.0285 -0.2338  0.1832
23682W        W38813   9.426  18.130  14.749  0.1419  0.1650  0.0785
23683W        W38814  11.841   9.599  15.989 -0.0347  0.1267 -0.1436
23684W        W38815   4.485   7.100  13.466 -0.0436  0.0652 -0.0474
23685W        W38816  10.982   2.886  14.280  0.1497 -0.1040 -0.1364
23686W        W38817   2.657   4.534  15.326 -0.3208 -0.0743 -0.0911
23687W        W38818   0.703  13.236   2.966 -0.0144 -0.2499 -0.0875
23688W        W38819  16.719  16.616  11.024  0.3046 -0.1235 -0.0518
23689W        W38820   8.789  12.307   5.125  0.0355 -0.0863 -0.0170
23690W        W38821  15.993  13.580   4.652  0.0720 -0.1868 -0.0489
23691W        W38822   8.698  17.131  14.932 -0.0157 -0.2669  0.0203
23692W        W38823   0.092   9.825   4.129 -0.1873 -0.0038 -0.4488
23693W        W38824   0.629   5.469   4.464 -0.1394 -0.0725 -0.1036
23694W        W38825  12.235  16.962   2.647 -0.1763  0.0588 -0.0084
23695W        W38826  13.796   8.963  11.810 -0.1680 -0.0418  0.0008
23696W        W38827  17.337  15.686  12.581  0.3232 -0.0696 -0.1012
23697W        W38828   5.242  14.034  15.715 -0.1122  0.1156  0.3325
23698W        W38829   1.656  16.624   0.350 -0.2981 -0.1703 -0.0414
23699W        W38830  14.084  10.780  13.986 -0.2088 -0.2305 -0.1169
23700W        W38831   3.917   3.045   3.545  0.0844  0.0480 -0.3256
23701W        W38832  11.645  12.314  14.148  0.1074  0.2115 -0.0859
23702W        W38833   4.588  18.148  15.919  0.0604  0.1443  0.0858
23703W        W38834   2.613   0.597   3.787  0.1552 -0.0700 -0.0200
23704W        W38835  13.419   6.317   2.726 -0.0517 -0.3116 -0.1141
23705W        W38836  17.238   4.287  13.906  0.0899  0.1547 -0.0478
23706W        W38837  17.260   1.118   6.660 -0.1535  0.3200 -0.1003
23707W        W38838  16.373   9.519  15.880  0.0281  0.1664  0.0362
23708W        W38839   0.202  14.456   3.411 -0.3662  0.1102 -0.0867
23709W        W38840  11.363   1.476   0.725  0.0754  0.1806 -0.0524
23710W        W38841  12.147  16.465  11.834 -0.0268 -0.1907  0.1904
23711W        W38842   4.022   5.864  13.468  0.3110 -0.0105  0.0763
23712W        W38843  17.410  15.111   4.225  0.1358 -0.2129  0.1799
23713W        W38844   3.477  13.340  15.202  0.2392  0.0341  0.1130
23714W        W38845  14.644  18.327   4.461 -0.2061  0.0126  0.2543
23715W        W38846   4.260  10.233   1.292  0.0247 -0.0702  0.1787
23716W        W38847   7.129   6.448   0.911 -0.2589 -0.0637 -0.3378
23717W        W38848  11.588  14.668   4.411  0.0617 -0.4521 -0.2967
23718W        W38849   3.878   3.969   3.633 -0.0136  0.2022 -0.1043
23719W        W38850  18.077  12.639  14.833  0.0353  0.1157  0.0709
23720W        W38851   5.825  14.372  12.802 -0.1247  0.3576 -0.1546
23721W        W38852   4.871  15.825   5.048  0.2596  0.1916 -0.4020
23722W        W38853   1.732  14.744  14.711  0.1303 -0.3761 -0.0045
23723W        W38854   8.255   8.842   5.088  0.4143 -0.1535 -0.1933
23724W        W38855  12.557  17.703   1.147  0.0740  0.1897  0.1579
23725W        W38856  17.944  11.390   0.187 -0.0284 -0.1746 -0.1448
23726W        W38857   5.064  12.078  11.155 -0.2600 -0.1981 -0.0359
23727W        W38858   2.847  18.222   0.736 -0.1079 -0.0238  0.0382
23728W        W38859  16.192   2.228   5.252  0.0130  0.1213  0.1127
23729W        W38860   6.541  15.334  12.755 -0.1563  0.2239  0.0671
23730W        W38861   4.213   7.798  15.654 -0.1626 -0.0675  0.1754
23731W        W38862  12.236   6.998   2.179  0.1063  0.2056 -0.0841
23732W        W38863   1.560  12.057  11.163  0.3735 -0.4230  0.0450
23733W        W38864  14.211  16.169  15.289 -0.1420 -0.1730 -0.0457
23734W        W38865   4.782   5.066   2.518  0.3583  0.0720 -0.1018
23735W        W38866   6.206   3.706   2.933  0.4805  0.2085  0.0244
23736W        W38867   8.557   3.430   4.535  0.0707 -0.1028 -0.3546
23737W        W38868   4.752  14.490  12.251 -0.0118 -0.0009  0.3003
23738W        W38869  14.852   5.872   4.865  0.1187  0.1489  0.4374
23739W        W38870  14.077  13.703   4.994  0.1672  0.1556  0.0341
23740W        W38871  14.947   3.839   1.649 -0.0518  0.0574  0.2055
23741W        W38872  14.051   5.472   2.015 -0.1994 -0.3001  0.1817
23742W        W38873  13.560   5.878   1.434 -0.1292  0.2457 -0.0037
23743W        W38874   4.217   0.754  15.898  0.0769  0.3634 -0.1430
23744W        W38875  15.259  14.266  14.305  0.1554 -0.2509 -0.0061
23745W        W38876  16.291   2.140   3.157 -0.3343  0.4363 -0.2513
23746W        W38877   9.229   8.196  10.501 -0.0354  0.2073 -0.2480
23747W        W38878   0.287  15.976   2.568  0.0421 -0.2621  0.1012
23748W        W38879   0.821   8.446  12.341 -0.0777 -0.0443  0.0225
23749W        W38880   7.871  12.250   3.931  0.2621  0.2534  0.1476
23750W        W38881  18.265   1.579  13.310  0.1000  0.0834 -0.1116
23751W        W38882  13.607   0.424  10.678  0.3213 -0.2301  0.2465
23752W        W38883  12.548   3.946  12.745  0.2590  0.0874  0.0363
23753W        W38884  11.223  11.958  10.923  0.2320 -0.0339  0.0684
23754W        W38885  16.402   0.569  14.898 -0.2085  0.0390 -0.3102
23755W        W38886   1.367   1.837   1.889  0.0657 -0.1954 -0.2815
23756W        W38887   9.217  15.260   3.958  0.1433  0.0412  0.2168
23757W        W38888  18.070   3.604  15.980  0.0531  0.1777 -0.2041
23758W        W38889   0.644  11.812  11.763 -0.0531 -0.2579 -0.2263
23759W        W38890  17.208   9.566  13.196 -0.0445  0.4366 -0.0415
23760W        W38891  12.032   7.033  14.874 -0.0236 -0.0699 -0.2213
23761W        W38892  11.319  18.303   1.952 -0.2204 -0.0164 -0.0085
23762W        W38893  14.956   8.916  11.828  0.0627  0.0765 -0.1929
23763W        W38894   4.291   8.227   4.455  0.0611 -0.0909 -0.2046
23764W        W38895  11.592   4.839  16.087  0.1123  0.2196  0.0285
23765W        W38896  15.676   1.925   4.464  0.0673  0.0587  0.0128
23766W        W38897   5.677  13.117  14.342  0.0764 -0.0226 -0.1654
23767W        W38898  16.265  17.104  12.115  0.3382 -0.1994  0.0002
23768W        W38899  17.358   7.836  15.682  0.1605  0.2394 -0.0972
23769W        W38900  17.186   0.559   3.100  0.2499 -0.0621 -0.2260
23770W        W38901  17.748   1.270   1.553 -0.1877 -0.2202  0.2755
23771W        W38902   9.441  10.306   1.755  0.0577  0.0365 -0.0731
23772W        W38903  17.342   1.841   5.357  0.1635 -0.2284 -0.0225
23773W        W38904  11.081   4.133  10.296  0.2842  0.1400  0.0845
23774W        W38905  16.227   0.762   4.509 -0.0525 -0.0538  0.1626
23775W        W38906  12.591  15.696   3.235  0.3590 -0.3596  0.1232
23776W        W38907  10.417   3.404   2.253  0.1377  0.0632 -0.0696
23777W        W38908   8.769   4.173  16.057  0.1347  0.0122 -0.2198
23778W        W38909   7.564   0.826  15.818 -0.2247  0.1342  0.1758
23779W        W38910  17.953   9.736   5.208 -0.3039  0.0181 -0.1066
23780W        W38911   7.224  17.075   0.564 -0.0348  0.5531  0.0604
23781W        W38912   3.469   1.336   4.683  0.2445  0.1560 -0.1682
23782W        W38913  12.740  16.075  11.362 -0.1346  0.0083  0.1047
23783W        W38914   2.530  17.292   2.868  0.1101 -0.2155  0.2236
23784W        W38915  11.698   8.079   0.016  0.0011 -0.0130 -0.1704
23785W        W38916   6.452   3.310   2.671  0.2585  0.1655 -0.2038
23786W        W38917   6.354  11.967  14.325 -0.2625  0.1969  0.0704
23787W        W38918  14.184  11.274   0.016  0.1650  0.5203 -0.0382
23788W        W38919   3.406   7.434   0.801  0.2107  0.0987 -0.1332
23789W        W38920   5.236   7.144  11.264 -0.1416 -0.0708 -0.0024
23790W        W38921  15.332   1.966  11.910  0.0674  0.0637  0.0829
23791W        W38922  16.740   2.178  12.966 -0.0238 -0.0003 -0.0075
23792W        W38923   9.291  15.567   1.704 -0.2124  0.1763 -0.4318
23793W        W38924   7.854   5.702   3.275 -0.0795  0.0828  0.1290
23794W        W38925   7.978   4.106  16.010  0.0035  0.0869 -0.1646
23795W        W38926  14.287  13.779   1.833  0.0731 -0.2485 -0.2387
23796W        W38927  13.438   5.990   5.298  0.0784 -0.0360  0.1231
23797W        W38928   2.823  11.228  14.811  0.0779  0.0929 -0.1012
23798W        W38929  15.966   4.423  13.535 -0.2304  0.2325  0.0573
23799W        W38930  16.585   6.862  15.428 -0.0771  0.1688  0.0865
23800W        W38931  17.757  14.943  12.574  0.1143  0.0608 -0.1371
23801W        W38932   3.897  15.820   5.133 -0.2515  0.3221 -0.0043
23802W        W38933  15.556  15.087   5.418  0.0767 -0.1220 -0.2855
23803W        W38934   4.453   7.947   0.992 -0.0174 -0.0590  0.5141
23804W        W38935  12.301  17.514   3.817 -0.0503  0.0396 -0.0390
23805W        W38936  15.937   0.830  14.978  0.0865 -0.1642 -0.0837
23806W        W38937  17.173   2.775  11.721  0.0557  0.2162 -0.0764
23807W        W38938   3.446  16.234   5.882  0.1369  0.3632  0.1341
23808W        W38939  11.676  17.427   3.837  0.0239 -0.0731  0.1156
23809W        W38940   5.068   8.576  15.896 -0.2913  0.1533 -0.1062
23810W        W38941   7.392  16.376  15.545 -0.1033  0.1298  0.1019
23811W        W38942  16.835  16.670   4.288 -0.0704  0.0970  0.2638
23812W        W38943   2.927   0.270  15.708  0.7516  0.2567 -0.2341
23813W        W38944  17.251  11.233  10.381  0.2118  0.3354  0.2957
23814W        W38945   1.866   2.819  16.072 -0.2545 -0.1984 -0.3717
23815W        W38946   9.190   8.522   3.494 -0.1136  0.1520 -0.1243
23816W        W38947   2.171   1.580   1.837  0.1314 -0.1316  0.0040
23817W        W38948  12.375   0.078  11.839 -0.3486 -0.1165 -0.0861
23818W        W38949  13.950   9.278   0.615  0.1313  0.0665  0.0071
23819W        W38950   4.388   2.229   3.925  0.1283 -0.0275 -0.0693
23820W        W38951  14.105   2.928  15.248 -0.0042 -0.3832 -0.2182
23821W        W38952  17.076  16.692  15.026  0.2476 -0.0159 -0.0228
23822W        W38953   6.286  14.634   0.986  0.0081  0.1185  0.0846
23823W        W38954  17.618   1.973   3.318 -0.1745 -0.0029 -0.0599
23824W        W38955   3.973   8.148   0.833  0.1896 -0.1156  0.2752
23825W        W38956  12.178  15.588   3.615 -0.1846 -0.0749  0.3544
23826W        W38957   0.646  14.386   1.027  0.2255  0.1539  0.2476
23827W        W38958   4.897  15.568   1.230  0.5437 -0.1740 -0.1877
23828W        W38959  14.006   5.168  13.096 -0.0311  0.4855  0.0065
23829W        W38960   8.310  11.876  15.441  0.3440  0.1285  0.2713
23830W        W38961   9.831   8.910   5.562 -0.3209 -0.1656  0.1505
23831W        W38962  15.951  17.657   1.107  0.0060  0.1824 -0.4693
23832W        W38963   9.748   6.100   2.589  0.0501  0.0428  0.0524
23833W        W38964   7.760  13.107   1.745  0.2021  0.2956  0.0634
23834W        W38965   6.539  12.292  11.834  0.2917  0.1515  0.1061
23835W        W38966   0.066   2.839   3.344  0.4756  0.3121  0.2392
23836W        W38967   4.079  12.080   2.224  0.2753 -0.1888  0.3753
23837W        W38968  16.278   5.115   5.025  0.0146 -0.0549  0.1523
23838W        W38969   4.002   2.408   1.436  0.1471 -0.0918  0.0158
23839W        W38970   6.548  16.109   0.888  0.3034  0.0161  0.0373
23840W        W38971   2.038   7.955  13.292  0.1960  0.0162 -0.2216
23841W        W38972   8.631   7.207  15.120 -0.3454 -0.0001  0.2536
23842W        W38973  10.912  11.914   3.000 -0.0892 -0.0788  0.0907
23843W        W38974  15.174   3.742   1.034  0.1165 -0.2165 -0.2283
23844W        W38975   9.877  13.148   2.923  0.1337  0.0695  0.0554
23845W        W38976   5.430   1.519   2.405 -0.1024 -0.0077  0.0088
23846W        W38977   5.289   5.878   0.381 -0.1301 -0.0313  0.0091
23847W        W38978   3.975  13.467  11.328  0.1811  0.0410  0.0103
23848W        W38979   1.330  10.149   2.675  0.0971 -0.2234 -0.1660
23849W        W38980   1.910   6.766   2.608  0.0494  0.2041  0.0964
23850W        W38981   1.604  11.031   3.344  0.0016 -0.3026  0.0437
23851W        W38982   9.056  16.256   0.463 -0.0765 -0.0109  0.2496
23852W        W38983   7.576   3.852   0.975 -0.2150  0.2876  0.2144
23853W        W38984  12.253   7.911  11.756 -0.0180  0.1080 -0.0775
23854W        W38985  15.367  17.242   4.957  0.3199  0.0681 -0.2301
23855W        W38986   2.432  12.850  15.077 -0.1512 -0.0523 -0.1172
23856W        W38987  11.978   3.655   0.686 -0.3292  0.0035 -0.0581
23857W        W38988  16.677   3.111   3.866  0.2197 -0.2588  0.0899
23858W        W38989   2.365   8.958   1.412  0.0082 -0.0636 -0.2091
23859W        W38990   4.536  14.732  14.044 -0.4072 -0.1238  0.2786
23860W        W38991  15.912   6.329   4.266  0.0472  0.0585  0.0097
23861W        W38992  15.890  16.455   0.216  0.2359 -0.0678  0.3586
23862W        W38993   9.087  18.343   0.197  0.0292 -0.1698  0.1477
23863W        W38994   8.455  10.804  15.062 -0.1297 -0.2092  0.1259
23864W        W38995  14.537   6.824   1.162 -0.1912 -0.0018 -0.0257
23865W        W38996  12.170  10.013  14.562  0.0140  0.2557 -0.0441
23866W        W38997   2.002   1.909  12.388 -0.1540 -0.0011  0.4668
23867W        W38998  17.752   5.085  13.775 -0.0412 -0.2016 -0.0477
23868W        W38999  16.033  15.857   3.560 -0.0683  0.0934  0.3918
23869W        W39000   3.474  16.306   1.214  0.0157 -0.1016  0.1189
23870W        W39001   1.837  12.718  13.287 -0.0609  0.0582 -0.2543
23871W        W39002  12.246  14.947   4.836 -0.2391  0.1362 -0.0909
23872W        W39003  13.739   0.020  13.489 -0.0873  0.0108 -0.0256
23873W        W39004  16.809  16.118  16.140 -0.2117 -0.0343  0.0266
23874W        W39005   2.284   1.076   2.664  0.0766 -0.1327 -0.1172
23875W        W39006   8.791  17.036   0.745 -0.2349  0.1822  0.1612
23876W        W39007   5.551   8.095   3.470  0.1221 -0.4002  0.0017
23877W        W39008   9.699   7.816   3.078 -0.0741  0.1422  0.0890
23878W        W39009  12.622   4.831  15.533 -0.0387 -0.1168  0.0504
23879W        W39010  15.205  18.003   5.000  0.2227  0.0043 -0.0243
23880W        W39011  11.672   5.837  11.917  0.1403  0.1795 -0.2524
23881W        W39012   4.632   3.273  10.710 -0.2942 -0.0125 -0.2123
23882W        W39013   7.427  10.104   0.336  0.1541  0.0215  0.0894
23883W        W39014  16.656   2.885  14.997  0.2373 -0.3519 -0.4295
23884W        W39015  12.556  14.383  13.422 -0.1059 -0.1352  0.1438
23885W        W39016  14.457   0.379   0.260 -0.2964  0.2392 -0.0518
23886W        W39017  16.261   2.035  12.998  0.0697  0.1329 -0.3389
23887W        W39018  17.069  15.353   5.454  0.2998 -0.1281  0.4110
23888W        W39019   0.835  11.322  13.445 -0.2485 -0.1888 -0.1804
23889W        W39020  10.122  16.514   1.188  0.2895 -0.0477  0.2188
23890W        W39021  16.454   8.493   5.154  0.0071  0.0718 -0.1234
23891W        W39022   6.268  11.013   1.754 -0.1961  0.2134 -0.0604
23892W        W39023   5.047  14.662   3.127 -0.1062 -0.2670 -0.2925
23893W        W39024   9.446   5.701  11.584  0.0403  0.0616 -0.1879
23894W        W39025  14.244  16.239  15.858 -0.1292 -0.0347  0.0456
23895W        W39026   6.654   8.871   1.577 -0.4469 -0.1611  0.1006
23896W        W39027   0.517  10.303  12.635 -0.0645 -0.0271 -0.1292
23897W        W39028  13.855   4.965  12.185  0.0303 -0.0029  0.3344
23898W        W39029   8.323   9.944   2.801  0.0703 -0.2299  0.3518
23899W        W39030  11.624   9.823  13.166  0.4868  0.1066  0.3033
23900W        W39031   9.989  10.719  14.239 -0.1055 -0.1473  0.0131
23901W        W39032   6.516  15.206  14.855  0.4035 -0.1102  0.3071
23902W        W39033  17.596  17.588  10.974  0.0808 -0.2910  0.4099
23903W        W39034   1.856   1.849   5.227 -0.2549 -0.0343 -0.0841
23904W        W39035   0.088   3.127   1.548 -0.1256 -0.0657  0.0498
23905W        W39036  11.101  12.426   1.104  0.2598  0.0868  0.0736
23906W        W39037   9.704  12.690   2.993  0.2226  0.0904 -0.0231
23907W        W39038  17.755   5.267   1.291  0.3825  0.4958  0.0158
23908W        W39039   1.985   6.062  14.569  0.1843 -0.0408  0.4423
23909W        W39040   0.251  18.243  11.664 -0.1815 -0.0703  0.0113
23910W        W39041   2.052   5.755   6.108 -0.0589  0.0958  0.0010
23911W        W39042  12.821  15.302  14.387 -0.0969 -0.2355  0.2683
23912W        W39043   8.696   4.340   5.608  0.3574 -0.0108  0.2224
23913W        W39044  14.287  14.490   4.252  0.1588 -0.1176  0.3439
23914W        W39045   3.106   3.461  15.080  0.0062 -0.0462  0.1915
23915W        W39046   7.502   8.043   1.099  0.0223 -0.1847 -0.0364
23916W        W39047   4.007   3.596   3.329  0.1213 -0.0829  0.1880
23917W        W39048   4.199   6.363  15.624  0.0271  0.0566 -0.1381
23918W        W39049  14.425  17.324  16.093 -0.1190 -0.1298 -0.4796
23919W        W39050  11.218  17.751  13.355 -0.2354  0.1651 -0.3937
23920W        W39051  15.907   7.391   3.640  0.2546 -0.0545 -0.2505
23921W        W39052  10.238   3.912   0.883  0.0824 -0.0476 -0.0898
23922W        W39053  11.047  12.635  15.441  0.2322  0.0406  0.1717
23923W        W39054   8.155   7.124   4.884 -0.3211 -0.0519 -0.0436
23924W        W39055   3.347  13.042  14.675 -0.0246 -0.0454 -0.0019
23925W        W39056   4.945   9.323  12.090 -0.2838 -0.2294 -0.0466
23926W        W39057   1.658  12.599   2.439 -0.0470  0.0750 -0.1268
23927W        W39058   2.480  16.416   5.549  0.0689 -0.1200  0.0452
23928W        W39059  11.432   8.575   0.482 -0.0358  0.2638  0.1202
23929W        W39060   8.139   7.461  10.897 -0.2315  0.0744  0.1798
23930W        W39061  14.601   2.937  15.151 -0.3590  0.1703 -0.2824
23931W        W39062  18.057  13.476   0.834 -0.1589 -0.2334 -0.0231
23932W        W39063   8.349   7.050   1.055 -0.0874 -0.1305 -0.4186
23933W        W39064   9.852  15.178   0.829  0.1573  0.3202 -0.0424
23934W        W39065  10.345  10.116   4.630  0.2519  0.2387  0.1260
23935W        W39066  15.701   1.577  12.638 -0.3848 -0.1860  0.0366
23936W        W39067   1.446   6.198  14.750  0.0144  0.0281  0.2226
23937W        W39068  13.487  17.105  15.775  0.2278  0.1105  0.2265
23938W        W39069   8.071   5.655  10.398  0.0139  0.2762 -0.2345
23939W        W39070  16.936   1.136  12.040  0.2367  0.1054  0.0037
23940W        W39071  17.881   4.898   3.148 -0.0791 -0.1162  0.0807
23941W        W39072   1.793  10.087  12.413 -0.0921  0.0943 -0.0441
23942W        W39073  13.318   9.654   1.154 -0.4049 -0.0624  0.0591
23943W        W39074  11.460   9.122  12.632  0.2630 -0.0479  0.1769
23944W        W39075  15.101  10.826  14.135 -0.0201 -0.0319  0.1432
23945W        W39076  15.235  10.915  11.962  0.0026  0.0653  0.1046
23946W        W39077  14.997  17.133   2.595 -0.1632 -0.1734 -0.1474
23947W        W39078  17.316  15.366   4.982 -0.2182  0.2298 -0.1199
23948W        W39079   2.515   0.326   1.976 -0.2671 -0.1182 -0.2456
23949W        W39080  15.179  11.833   5.297  0.1029  0.0248 -0.0689
23950W        W39081  13.125   2.456   1.506 -0.0590 -0.1173  0.1145
23951W        W39082  10.420   7.763  11.263 -0.2484  0.3165  0.0134
23952W        W39083  10.544   2.690   1.842  0.1847 -0.2747 -0.1522
23953W        W39084  17.328   2.135   1.870  0.3527 -0.0005 -0.0539
23954W        W39085  12.339   6.798  12.722  0.3125  0.2717  0.1747
23955W        W39086  15.745   7.919   1.249 -0.2069 -0.2872  0.0749
23956W        W39087  12.435  15.006   1.653  0.2072 -0.2689 -0.4011
23957W        W39088   6.289  14.073   2.589 -0.2933 -0.1832 -0.1675
23958W        W39089  12.712  12.498   2.068 -0.1754 -0.0465  0.3967
23959W        W39090   5.986  17.877  12.528  0.0534 -0.0377 -0.0198
23960W        W39091   9.182  16.158  15.327 -0.1911  0.1104 -0.3057
23961W        W39092  12.076  16.682  13.435  0.2888  0.4112 -0.1122
23962W        W39093   7.892   9.753   2.546  0.0911 -0.1071  0.0985
23963W        W39094  16.865  13.344   4.772 -0.0738  0.1395  0.2488
23964W        W39095   1.389   8.352  15.295  0.2179 -0.2614 -0.0304
23965W        W39096  14.679  11.531  11.473  0.3456  0.2262  0.0619
23966W        W39097   2.518  12.165  14.903 -0.4551  0.3084 -0.2016
23967W        W39098   4.983   7.254   1.448 -0.2652 -0.0187  0.0412
23968W        W39099  15.581  10.830   1.508 -0.2588 -0.2267 -0.2372
23969W        W39100   9.029   0.716  11.835  0.1824 -0.1350  0.2276
23970W        W39101   9.516  12.155  12.011  0.2618  0.1356  0.0096
23971W        W39102  16.772  15.540  11.758 -0.1312 -0.2704 -0.1557
23972W        W39103   1.543   0.751   2.545 -0.0039  0.0180  0.2616
23973W        W39104   0.299  10.252   3.936 -0.2282  0.0915 -0.3218
23974W        W39105  11.310   1.052   6.271  0.0257 -0.0447  0.2178
23975W        W39106   7.716  13.015  11.180  0.2266  0.0685  0.1651
23976W        W39107  16.349   0.537  12.222  0.4845  0.1759 -0.1922
23977W        W39108   0.536   7.521  15.115  0.0923  0.2018 -0.1996
23978W        W39109  11.697   2.100   4.014 -0.2799  0.0194  0.0320
23979W        W39110   9.400  16.867  13.787 -0.4615 -0.1632  0.2937
23980W        W39111   5.687   3.935   4.092  0.0612 -0.0534 -0.0192
23981W        W39112   8.307  17.432  11.670  0.4692 -0.0874 -0.0755
23982W        W39113  14.863   3.670   4.407 -0.0294  0.0810 -0.3325
23983W        W39114   5.305  16.619   2.670 -0.1991 -0.0445  0.0241
23984W        W39115   2.523   0.661  12.446  0.3592 -0.3891  0.2437
23985W        W39116  14.362  16.014   3.618 -0.2521 -0.3944  0.2349
23986W        W39117  14.140  16.177  12.520  0.3302  0.3074  0.1462
23987W        W39118  10.514   2.350  15.686  0.1254 -0.1190  0.2100
23988W        W39119   9.569  10.735   3.935  0.1064 -0.2331 -0.3294
23989W        W39120   1.212   3.230   0.734 -0.0503  0.3575  0.1018
23990W        W39121  12.880   0.545   3.294  0.2013 -0.2121  0.2918
23991W        W39122   1.257   4.345   2.790  0.3159  0.0354 -0.2718
23992W        W39123   5.245   9.870  14.462  0.3123  0.1581  0.1654
23993W        W39124  10.496  10.946  14.033 -0.1474  0.3489 -0.0487
23994W        W39125  17.200  17.302  12.909 -0.2164  0.0006  0.1259
23995W        W39126   3.598   6.690  14.317  0.2208 -0.2057 -0.0276
23996W        W39127   4.549  16.900   1.952 -0.1639 -0.2435 -0.1581
23997W        W39128  15.798  17.693   2.488  0.1767 -0.0245  0.1345
23998W        W39129   9.214   4.957  13.536  0.2843  0.1246  0.0755
23999W        W39130  14.270   8.695   5.654  0.0769  0.1297 -0.0160
24000W        W39131   8.397   7.730  14.548  0.2453 -0.0932  0.1295
24001W        W39132   5.466   4.620   1.152  0.2846  0.1511 -0.2280
24002W        W39133  15.402   7.760  13.131 -0.2095  0.2955  0.1494
24003W        W39134  11.569   6.710  11.474 -0.1664  0.1578 -0.1644
24004W        W39135   9.485   9.331   1.862 -0.1943  0.0675  0.0765
24005W        W39136   1.337   7.045  10.378  0.3737  0.0801  0.1388
24006W        W39137  11.297   0.102   0.485 -0.2663  0.1252  0.0537
24007W        W39138   9.002  15.445  14.672 -0.3952  0.0322 -0.0490
24008W        W39139   2.315   2.458   4.046  0.2213  0.2958  0.1055
24009W        W39140   5.262  16.634   1.678 -0.1007  0.0229 -0.2057
24010W        W39141   8.830   4.404  14.253  0.0528 -0.0398 -0.1403
24011W        W39142   4.642  11.624   3.133 -0.1230 -0.0355  0.2983
24012W        W39143   8.905   9.391   2.334 -0.0621 -0.0889  0.1161
24013W        W39144  10.799   4.749   3.515  0.1116 -0.1636 -0.0903
24014W        W39145  16.831   9.029   1.182  0.0051  0.3002  0.1076
24015W        W39146   3.138  12.552   5.291  0.0461 -0.0569  0.2592
24016W        W39147   7.325   4.763  13.232  0.2162 -0.3104 -0.2774
24017W        W39148   5.986  10.612   1.562  0.0105  0.1881  0.0093
24018W        W39149   0.240   4.914  15.848  0.3457  0.0345 -0.1735
24019W        W39150  18.170   8.576   2.281  0.1836 -0.1697 -0.1831
24020W        W39151  12.121   0.343  12.234  0.1258  0.1769  0.2492
24021W        W39152   4.383   8.539  11.834 -0.0240 -0.1054  0.0573
24022W        W39153  17.649  13.344  15.937 -0.1362  0.2943 -0.0579
24023W        W39154  13.954   1.791  15.909  0.0055  0.1343 -0.2747
24024W        W39155  15.821   0.663   4.140 -0.2766 -0.0374 -0.3156
24025W        W39156  15.849  17.085  14.750  0.0297  0.2850  0.0377
24026W        W39157  18.228   0.924   1.032 -0.1189 -0.1535 -0.0728
24027W        W39158   0.775  16.895   5.469  0.1917  0.2352 -0.0084
24028W        W39159   1.006   9.895   5.482 -0.4531  0.1885 -0.1969
24029W        W39160   7.559  15.598   1.149  0.0215 -0.2971 -0.2370
24030W        W39161   8.874   4.441   0.446 -0.1507  0.0641 -0.1135
24031W        W39162   2.116   6.116   3.222  0.1175  0.0170  0.0618
24032W        W39163   6.218   7.585  14.480  0.2490 -0.6964  0.1355
24033W        W39164   9.272  13.854  15.592 -0.1629 -0.3063 -0.1901
24034W        W39165  15.435   9.276   5.565 -0.3262 -0.1330  0.2911
24035W        W39166   1.558   6.468   3.338  0.0183 -0.0848 -0.2077
24036W        W39167  14.152  17.753  14.258  0.2960  0.2259 -0.3104
24037W        W39168   5.422   4.855   0.717 -0.1931  0.0075 -0.0794
24038W        W39169   2.454   5.210   2.941  0.0128  0.0538  0.4075
24039W        W39170  16.392   7.128   2.861  0.0378  0.2626  0.1295
24040W        W39171   7.165  16.872  11.445 -0.0183  0.0866  0.0730
24041W        W39172   4.596  14.460  14.778  0.1721 -0.1195  0.0959
24042W        W39173  13.105  12.706   2.460  0.0221 -0.0274  0.0772
24043W        W39174  18.312  14.588   3.009 -0.0135  0.1602 -0.0196
24044W        W39175   8.384  17.860   0.592 -0.0003 -0.0818  0.1117
24045W        W39176  16.846  15.140   4.516 -0.1693 -0.1117  0.0692
24046W        W39177   9.588   1.346  16.104  0.0713 -0.2970  0.0634
24047W        W39178  12.600  15.070   4.266 -0.0315 -0.0008 -0.2305
24048W        W39179   6.770   7.497  11.244 -0.0256  0.0212  0.0434
24049W        W39180   5.107  14.454  15.366  0.1193  0.3172  0.2592
24050W        W39181  10.040   6.680  14.201  0.1151  0.0534  0.0531
24051W        W39182  14.407   5.744   1.752  0.2196  0.1583  0.2678
24052W        W39183  17.215  13.200   3.192  0.0075  0.2282  0.0813
24053W        W39184   6.265   0.161   2.269  0.0646  0.0855 -0.0524
24054W        W39185   6.734   4.327   2.387 -0.0067  0.0084  0.0603
24055W        W39186   6.753   5.451  13.246 -0.1092  0.1597  0.2678
24056W        W39187  14.052  15.622   0.805  0.0257  0.0528  0.2818
24057W        W39188   9.337  18.136   1.895  0.0617  0.0484 -0.3757
24058W        W39189   6.067  10.325  14.407  0.0107  0.0136  0.0835
24059W        W39190  15.415  12.623  15.704 -0.0629 -0.1330 -0.5577
24060W        W39191  11.752  11.667   4.475 -0.0991  0.0085 -0.1645
24061W        W39192   5.959   3.311   5.550 -0.0789  0.2684  0.0021
24062W        W39193   8.918  17.873   4.139  0.2017  0.1244 -0.1771
24063W        W39194   0.918  12.241  15.892 -0.0065 -0.4266  0.3003
24064W        W39195  15.351   0.801  12.142 -0.0554  0.0151  0.3797
24065W        W39196  11.122  12.779   5.923 -0.1072 -0.1146  0.0217
24066W        W39197  15.175  15.661   4.337 -0.0857 -0.1436  0.3139
24067W        W39198  17.908  16.876   5.208 -0.2045 -0.0435  0.2058
24068W        W39199   2.991  15.302   1.502  0.2088  0.1051  0.1175
24069W        W39200   1.511   7.671   0.365 -0.1110 -0.2147  0.0428
24070W        W39201   5.652  12.972  12.840 -0.0224  0.1110 -0.1273
24071W        W39202  12.349  16.041  14.118  0.1310  0.0107 -0.0280
24072W        W39203  14.795  15.622  13.956 -0.1539  0.1339  0.2736
24073W        W39204  13.235  16.711  15.043  0.0526 -0.0158 -0.0354
24074W        W39205  15.595  16.572  13.656 -0.0945  0.1050  0.0744
24075W        W39206   3.664   2.372   0.086  0.0631  0.0629  0.0659
24076W        W39207   9.491   2.400   4.331  0.2198  0.0132  0.1759
24077W        W39208   3.289   1.193   0.873  0.0887 -0.1416 -0.0769
24078W        W39209   0.630   3.709  15.459  0.0482 -0.2362 -0.0462
24079W        W39210  17.925   0.061   2.561 -0.0746  0.0212  0.0532
24080W        W39211  15.086  13.517   3.535  0.1585  0.0145  0.1811
24081W        W39212  13.739  13.235  13.730  0.0682 -0.0269  0.2270
24082W        W39213  13.266   9.415   2.280 -0.2336  0.0058  0.0477
24083W        W39214   7.264   6.217  13.185 -0.0196  0.1838  0.0294
24084W        W39215  15.297   4.825  10.920  0.2703 -0.3221 -0.0381
24085W        W39216  14.987   9.710  16.047 -0.1046  0.0854 -0.2164
24086W        W39217  16.973  14.643  13.203 -0.2569  0.2076  0.2389
24087W        W39218  11.665  15.325  12.645 -0.2094 -0.4067  0.1499
24088W        W39219  10.894   2.090   1.381 -0.2065  0.1291 -0.0247
24089W        W39220   0.293   9.433  13.245 -0.1177 -0.1960 -0.1445
24090W        W39221  14.555   6.057   2.295  0.2446  0.1333  0.1499
24091W        W39222   1.822   6.451   1.783 -0.1435 -0.2428  0.1286
24092W        W39223   8.766  16.795   1.658 -0.0263  0.2113  0.0366
24093W        W39224   3.204   7.492   2.414 -0.1204  0.2099  0.1774
24094W        W39225   0.786   1.024   0.444 -0.1056  0.0536  0.0033
24095W        W39226   8.776  10.825   2.448  0.3574 -0.1784 -0.0673
24096W        W39227  10.244   4.332  12.087 -0.3664  0.2644  0.0498
24097W        W39228  12.398  10.132   4.944  0.1503  0.1476  0.1988
24098W        W39229  16.966  12.025  13.321 -0.0900 -0.1535 -0.1026
24099W        W39230   0.870   4.246   4.018 -0.1018  0.2621  0.0662
24100W        W39231  18.176  18.309  10.793 -0.1137  0.1653  0.2690
24101W        W39232   9.804   3.872   5.444 -0.0539 -0.1828  0.0892
24102W        W39233   0.701  11.470   3.247 -0.2141  0.1654  0.2079
24103W        W39234   8.939   5.969   2.795 -0.0978  0.0095  0.2048
24104W        W39235  11.924   2.029  15.093 -0.0593 -0.1411  0.1861
24105W        W39236   9.100  10.779  13.542 -0.1938 -0.2743  0.1111
24106W        W39237  11.244   0.131  12.127 -0.1327  0.0359 -0.0178
24107W        W39238  17.637  12.290   0.579 -0.0903 -0.0423  0.0899
24108W        W39239  14.767   2.903  11.164 -0.1633  0.4117 -0.0139
24109W        W39240  12.247  12.929   4.327  0.2687 -0.0734 -0.2535
24110W        W39241   0.877   1.487  12.281 -0.1908  0.1924 -0.1390
24111W        W39242  14.260  15.489   4.423 -0.0307  0.1702  0.0294
24112W        W39243  13.959   1.727   1.151 -0.1849 -0.0229  0.0745
24113W        W39244  15.004   1.832   3.792 -0.2068  0.0504 -0.3739
24114W        W39245  13.487  12.441  15.702 -0.1221  0.0202  0.2014
24115W        W39246   4.058   4.705  11.214 -0.0539 -0.0510  0.2003
24116W        W39247   4.410   5.784   0.864  0.0911 -0.1015 -0.4630
24117W        W39248  18.151   6.584   4.938 -0.0396  0.1061 -0.1562
24118W        W39249   7.658   3.468   3.361  0.1319 -0.0535  0.1507
24119W        W39250  13.863  16.409   0.021 -0.1614  0.1670  0.1386
24120W        W39251   5.596   7.904  13.952  0.2201  0.1043 -0.0424
24121W        W39252   8.653  12.688  12.315 -0.2069  0.1949  0.0928
24122W        W39253   2.752   6.905  11.399 -0.2633  0.1332 -0.2479
24123W        W39254   1.618   9.793  11.579 -0.2385  0.0462 -0.2193
24124W        W39255   8.525   2.432  13.078 -0.0721  0.0855  0.1073
24125W        W39256   3.169  16.108  14.107 -0.0567 -0.0596 -0.1952
24126W        W39257  10.489  13.382   3.944  0.0255  0.0474  0.1258
24127W        W39258  17.123   8.919  11.291  0.1089  0.0001  0.1124
24128W        W39259   6.114   6.012   3.327 -0.0679 -0.0693  0.1965
24129W        W39260  13.433   2.986  10.552  0.0144  0.0494 -0.2213
24130W        W39261  14.396   7.769   2.430  0.1103  0.1375  0.1278
24131W        W39262  16.427  16.433  14.939 -0.0994 -0.1467 -0.1336
24132W        W39263   1.216  17.868   4.012 -0.1267 -0.1032  0.2615
24133W        W39264  15.120   3.240   4.189 -0.1768  0.3439  0.0675
24134W        W39265   5.815   5.304  12.826 -0.2790  0.0273  0.3036
24135W        W39266  12.491   5.346   3.720 -0.0795  0.2702  0.0453
24136W        W39267   2.192  13.708  13.418  0.1178 -0.2602  0.0162
24137W        W39268  11.023  15.017  13.176 -0.3558  0.1382 -0.3685
24138W        W39269   9.464   0.842   0.007 -0.0423 -0.2448 -0.1812
24139W        W39270  13.171   6.807   3.440 -0.2275  0.0874  0.1522
24140W        W39271  15.126  10.165   5.829 -0.1561  0.2622 -0.0816
24141W        W39272   6.446   7.171   2.738 -0.0364  0.1404  0.0277
24142W        W39273   5.407   9.570   5.221 -0.0183 -0.1153  0.1633
24143W        W39274   6.182  16.249  10.684 -0.4983 -0.2614 -0.0549
24144W        W39275  15.473   7.698   3.866 -0.0051  0.0019 -0.1130
24145W        W39276   1.114  12.781  12.442  0.0766 -0.0910 -0.3131
24146W        W39277   3.299   2.518  14.011  0.0606 -0.0381  0.0501
24147W        W39278   9.178  17.105   2.736  0.0044 -0.3355 -0.0708
24148W        W39279  10.613   4.102  14.951  0.1124 -0.2232 -0.0391
24149W        W39280  13.887   7.465   5.186  0.1591 -0.2734  0.3120
24150W        W39281  15.518  16.682  11.431 -0.0158  0.1067 -0.0343
24151W        W39282   5.509   9.488   2.658  0.3093  0.1255 -0.3710
24152W        W39283  11.169  17.590   5.987 -0.0787 -0.2962 -0.0243
24153W        W39284  12.316   6.616  14.874  0.1006  0.1706  0.1926
24154W        W39285   1.711  15.729   3.286 -0.2570  0.2428 -0.1935
24155W        W39286  15.314   6.308   0.575  0.3281  0.0440  0.1947
24156W        W39287  17.747  15.643   5.732 -0.0732 -0.1297  0.2076
24157W        W39288  16.987   5.447   5.175 -0.0142  0.0551 -0.1586
24158W        W39289  16.164   8.168   2.518  0.0273  0.0239  0.2481
24159W        W39290  10.173   3.953  11.706  0.3084 -0.0214 -0.2321
24160W        W39291  18.302   6.833  10.574  0.0472  0.3070 -0.0608
24161W        W39292  12.469   3.495  13.497  0.3000  0.0174 -0.0591
24162W        W39293   9.324   0.316   2.054 -0.0771  0.1386  0.1821
24163W        W39294  11.074   5.067  12.157 -0.0088 -0.0643  0.0618
24164W        W39295  10.075  14.244  14.903  0.0922 -0.0651 -0.2628
24165W        W39296  16.600   3.935  11.928  0.0629  0.0923  0.1192
24166W        W39297  12.810  16.092  12.299  0.0028 -0.0577 -0.2217
24167W        W39298   8.555  18.106  14.222 -0.2226 -0.1490  0.3106
24168W        W39299   3.633   7.187  14.904 -0.0186 -0.4388 -0.0294
24169W        W39300   9.715   4.325   3.675 -0.0879 -0.0846 -0.1981
24170W        W39301   1.302   9.183   4.836  0.0819 -0.1217  0.0305
24171W        W39302  10.683   1.382  13.723 -0.2753  0.0381  0.1278
24172W        W39303  17.593   1.429   3.242  0.1050  0.0010  0.2185
24173W        W39304  18.083   5.104  14.585 -0.1122 -0.1071  0.1301
24174W        W39305  10.687  17.494  12.703 -0.0891  0.0237 -0.1403
24175W        W39306   1.607   2.174  13.703  0.2137  0.1848 -0.1309
24176W        W39307  12.005   2.703   0.968  0.1192  0.0323  0.1860
24177W        W39308  13.707   9.884   3.431 -0.0599  0.2522 -0.3449
24178W        W39309  13.471   4.907   4.525 -0.0323  0.1837  0.0825
24179W        W39310  13.043   7.840   6.116 -0.1031 -0.0657  0.3240
24180W        W39311  11.975   5.499  11.712  0.0641  0.0750 -0.1572
24181W        W39312   3.691  10.699   3.618 -0.0289  0.2704 -0.0122
24182W        W39313  13.941   8.015  13.777  0.0559 -0.2296  0.3106
24183W        W39314  17.312  17.987  11.050  0.1097  0.0632  0.0565
24184W        W39315  13.975  15.129  14.186  0.2884  0.2288  0.0437
24185W        W39316   1.073  17.406   4.532 -0.3012 -0.2419  0.1109
24186W        W39317   6.616   4.946   4.522  0.1373 -0.1790 -0.0841
24187W        W39318   4.946  16.269   5.345 -0.0417  0.1519  0.0507
24188W        W39319   8.066   1.248  14.494 -0.2889  0.1042 -0.1716
24189W        W39320   5.546   4.293  11.129 -0.1841  0.2627  0.1578
24190W        W39321   1.608   7.403   0.809  0.0514 -0.0471  0.2557
24191W        W39322   9.942   3.913  12.157 -0.2268 -0.3692 -0.1079
24192W        W39323  18.068   9.691   4.408 -0.2766  0.2751 -0.3262
24193W        W39324  10.436   9.373   1.465 -0.2287  0.1525 -0.0245
24194W        W39325   6.170   3.598   0.196 -0.2809 -0.0229  0.0281
24195W        W39326   2.119  18.072  11.456  0.2559 -0.1310 -0.0032
24196W        W39327  13.314   6.296  13.705  0.0745 -0.1981 -0.3017
24197W        W39328   1.828  13.681   3.752  0.2378 -0.1865  0.1526
24198W        W39329  12.065   5.873   3.533 -0.1128 -0.0333 -0.0527
24199W        W39330   3.181  14.202   5.097 -0.0914 -0.1961 -0.0687
24200W        W39331   8.117   6.911  15.666 -0.1445  0.2527 -0.1370
24201W        W39332   2.648   2.826   4.085  0.0633 -0.3648 -0.2335
24202W        W39333  18.294   7.875  12.803  0.1609 -0.3425  0.0444
24203W        W39334   3.172   2.388   1.970 -0.1682  0.1256  0.0480
24204W        W39335  15.263   6.505  13.375 -0.1690  0.0457 -0.1195
24205W        W39336   3.545   1.021   1.984  0.0107  0.4378 -0.0251
24206W        W39337  13.197  15.410  12.496  0.3024  0.2435  0.0448
24207W        W39338  11.659  14.550  15.853 -0.1873  0.1145  0.0387
24208W        W39339   9.825  12.029   2.286 -0.1689 -0.0180 -0.3339
24209W        W39340   9.705  17.827   1.712 -0.0827 -0.2890 -0.2070
24210W        W39341  10.752  17.697  13.173  0.0613  0.2624  0.3903
24211W        W39342  14.850   8.047  14.334  0.3410  0.0794 -0.1297
24212W        W39343  17.586   7.576  11.321 -0.1535  0.0072  0.0175
24213W        W39344   7.251   9.107   0.994 -0.1323  0.0681 -0.0806
24214W        W39345   3.870  10.631  13.714  0.2165  0.0252  0.0278
24215W        W39346  17.402  14.523   4.175 -0.1481  0.0960 -0.0072
24216W        W39347  16.660   7.253  13.577  0.0752 -0.2363 -0.0225
24217W        W39348   1.161   8.787  12.188  0.0979  0.0422  0.1499
24218W        W39349  13.837  15.067  14.711  0.2862 -0.3277  0.1631
24219W        W39350   9.538   1.843   4.128  0.0778  0.2369 -0.0021
24220W        W39351  13.077   0.649  15.316 -0.1119  0.1472 -0.1922
24221W        W39352   6.747  12.192   1.556  0.2306  0.1812 -0.2843
24222W        W39353  13.409   3.121  15.507 -0.2470  0.1335  0.1441
24223W        W39354  10.344   0.640  11.627  0.2051 -0.0896 -0.2432
24224W        W39355  15.935  15.256   0.739 -0.3908  0.3260  0.3648
24225W        W39356  14.236  12.780   3.152 -0.1180  0.1575 -0.1137
24226W        W39357  11.033  10.754   4.961 -0.1360  0.0874 -0.0172
24227W        W39358   1.602   4.335  15.000  0.2627 -0.2205  0.0103
24228W        W39359  17.936  11.395   2.895 -0.1697  0.3982 -0.1364
24229W        W39360   9.249  15.523  11.662 -0.0513 -0.1974 -0.1526
24230W        W39361  13.664   0.229  12.372 -0.2050 -0.1324  0.1878
24231W        W39362   5.897  10.426  14.888  0.0029  0.1511 -0.2696
24232W        W39363   3.492   0.953  12.441  0.7987  0.1029 -0.0852
24233W        W39364   6.819  16.709   2.663 -0.1377  0.2672  0.3122
24234W        W39365  11.589  11.879  13.831 -0.0992 -0.4962  0.4713
24235W        W39366  10.714   1.001  12.380  0.0446  0.3529 -0.1329
24236W        W39367  14.817  12.788  15.517  0.0307 -0.1670  0.0260
24237W        W39368   7.593   5.279   4.719  0.1275  0.2752 -0.1148
24238W        W39369   1.402   8.849  13.467  0.0959 -0.0349  0.0320
24239W        W39370   2.356  13.187   1.597 -0.0805 -0.2638 -0.0662
24240W        W39371   0.449   1.288   2.931 -0.1720 -0.2075 -0.0648
24241W        W39372   7.979  13.003   5.381 -0.1673  0.1636  0.0724
24242W        W39373  15.337  13.927   3.840  0.0330 -0.3277  0.0840
24243W        W39374   5.804  14.530   0.845  0.1116  0.1055  0.1979
24244W        W39375  14.922  12.419  13.946  0.1937 -0.1117 -0.0770
24245W        W39376   6.775  16.273  12.536  0.1395  0.0546  0.0025
24246W        W39377   0.825  13.576   2.612 -0.2590 -0.0050 -0.0049
24247W        W39378  13.969   7.485  11.627 -0.3996 -0.0272  0.3287
24248W        W39379   4.357  13.216   5.847 -0.1502  0.2967 -0.0110
24249W        W39380  15.884   1.861   2.823 -0.1266  0.0322  0.0001
24250W        W39381   0.447   7.337   3.520 -0.2756  0.1536  0.0350
24251W        W39382   7.475  12.371  13.170  0.1345 -0.0288  0.0642
24252W        W39383   6.395  11.833  13.772  0.3687  0.0988  0.2580
24253W        W39384   0.731   7.853  13.807 -0.0429 -0.1053  0.1515
24254W        W39385   6.529   6.714   3.987 -0.3480 -0.3355  0.2281
24255W        W39386   5.260  17.972   4.578  0.1703 -0.1014  0.1328
24256W        W39387  11.089  16.097  13.340  0.1180 -0.0772 -0.1924
24257W        W39388  10.123   6.159  16.007  0.1278  0.2512  0.2640
24258W        W39389  15.520  13.448  15.491 -0.2966 -0.1854  0.2071
24259W        W39390   5.844   6.973   1.564 -0.0599  0.3705 -0.1789
24260W        W39391  18.258  10.118  12.149 -0.0021  0.0949  0.1418
24261W        W39392  11.677  12.455   5.194  0.2063 -0.0645 -0.1848
24262W        W39393   4.259  17.812  11.881  0.3501 -0.0065  0.3723
24263W        W39394  12.387   5.064  14.058  0.1806  0.0210  0.3186
24264W        W39395   1.152  10.407  14.641 -0.1209 -0.1141 -0.1184
24265W        W39396   2.188   4.680   2.286  0.3163  0.1649 -0.1793
24266W        W39397  12.559  14.692  13.773  0.0980  0.0756  0.0990
24267W        W39398   2.970   3.641   2.310  0.0034  0.0893  0.0056
24268W        W39399  16.552   5.553   3.164 -0.1815  0.2256 -0.1442
24269W        W39400  15.503   6.911   5.469  0.0487 -0.0650  0.0064
24270W        W39401  12.521   0.562  13.121 -0.0151  0.1930 -0.1957
24271W        W39402  16.115   5.200   1.949 -0.3043 -0.0275  0.2084
24272W        W39403   5.689  14.048  10.539  0.0126  0.2489  0.0627
24273W        W39404   0.391   8.648   1.370  0.0245 -0.0503 -0.1261
24274W        W39405   4.543   4.244  11.783  0.1053  0.1287 -0.0046
24275W        W39406  12.289  11.532   5.323  0.0403  0.2078 -0.2116
24276W        W39407  14.370  18.033  13.006  0.2128 -0.0938  0.0181
24277W        W39408  10.378   8.561  10.946 -0.1189 -0.1216  0.0057
24278W        W39409  16.133  16.245  13.048 -0.4230 -0.0444 -0.0510
24279W        W39410   3.016   7.685  11.940 -0.2732 -0.0621  0.2161
24280W        W39411  16.176  12.778  15.291 -0.0679  0.0236 -0.0073
24281W        W39412  14.930   7.035  13.194 -0.2494 -0.0816  0.0111
24282W        W39413   9.627   9.045   4.502 -0.2569  0.0733  0.3948
24283W        W39414   8.035  16.854   1.633  0.4105 -0.2174 -0.2883
24284W        W39415   0.299   5.430   1.501 -0.0086  0.2697 -0.0162
24285W        W39416  18.333  16.126   3.944 -0.0639  0.0783 -0.0457
24286W        W39417   8.178   6.420  11.214  0.4735 -0.3291 -0.0247
24287W        W39418  18.322  16.578   3.691  0.0394  0.0610  0.0508
24288W        W39419   6.447   2.319   2.084 -0.0641  0.0416 -0.4219
24289W        W39420   6.914  10.433  12.423  0.0142  0.0321  0.2263
24290W        W39421  16.360  15.626  14.383  0.2104  0.1253 -0.1409
24291W        W39422  13.154  12.466  14.656  0.0742  0.0698  0.0125
24292W        W39423  13.172   9.420  13.485 -0.0301  0.1994 -0.1265
24293W        W39424  14.092  10.864   3.697  0.0574 -0.0638 -0.2670
24294W        W39425   8.887   0.046  11.544 -0.1924 -0.0154 -0.1167
24295W        W39426  10.539   4.315  12.546 -0.0180 -0.0512  0.4389
24296W        W39427  16.186  15.417  11.191 -0.2652 -0.0624 -0.0978
24297W        W39428  11.261   5.296  10.842 -0.0975 -0.1097 -0.3954
24298W        W39429  15.340   4.853   0.045  0.1906 -0.2627  0.0704
24299W        W39430  13.415  16.519  14.561 -0.2758 -0.0263 -0.4476
24300W        W39431   6.368   8.176  15.183 -0.0416 -0.1922  0.0535
24301W        W39432   6.537   4.294  13.862 -0.0748  0.1271  0.3081
24302W        W39433  17.408   5.394  11.613  0.0755  0.1871 -0.1072
24303W        W39434   7.573  11.202   3.055 -0.0728 -0.0260 -0.0304
24304W        W39435  14.286  14.153   5.151  0.1055  0.2829 -0.1126
24305W        W39436   8.342  18.170  15.577 -0.0676  0.2646 -0.0188
24306W        W39437   5.550  12.114   2.283  0.0765 -0.1129  0.0982
24307W        W39438  16.710   5.055  13.716  0.0036  0.1326  0.0780
24308W        W39439  18.045   3.404  15.526  0.2004  0.0667 -0.0421
24309W        W39440   0.346   5.293   5.651  0.1556 -0.1934  0.0037
24310W        W39441  18.078   8.879  11.361 -0.2109 -0.0818  0.1088
24311W        W39442   7.826  10.869   3.390  0.1413 -0.0922 -0.1677
24312W        W39443  16.074   1.324   2.729  0.1535 -0.4197 -0.1258
24313W        W39444  10.472   0.385  13.789  0.0263  0.0468 -0.4000
24314W        W39445   2.915  12.907   4.268 -0.2977  0.0845 -0.0625
24315W        W39446  15.945   8.640   1.164  0.0345 -0.0098  0.3209
24316W        W39447  10.077   5.764   3.242 -0.0189  0.2029  0.0445
24317W        W39448   7.900  15.670  15.428 -0.1492 -0.0800  0.0924
24318W        W39449  14.652  18.034   2.285 -0.0166 -0.1628 -0.1232
24319W        W39450  10.505  15.594   4.482  0.0863  0.1525  0.2725
24320W        W39451   9.523  13.608   5.343 -0.4186  0.1142  0.0699
24321W        W39452  12.839   4.276   5.741 -0.1502 -0.0347 -0.0317
24322W        W39453   2.183   5.757  11.669  0.2262  0.3555 -0.2727
24323W        W39454  13.110  13.211   2.349  0.0594 -0.1903  0.3708
24324W        W39455  10.934   0.139   5.188  0.0626 -0.1839 -0.1272
24325W        W39456   7.872  11.440  14.769  0.0061 -0.1833 -0.3309
24326W        W39457  13.087  10.098   0.455  0.0583 -0.0178  0.0289
24327W        W39458  10.260  10.863   0.239  0.0592 -0.1628  0.1255
24328W        W39459   2.080  18.107   2.448 -0.1174  0.5196  0.1567
24329W        W39460   7.567  15.894   0.678 -0.0234 -0.4057 -0.0784
24330W        W39461  16.052  13.155  14.118 -0.2284  0.0961 -0.1621
24331W        W39462   9.936   0.343   3.402 -0.0567  0.3569  0.2826
24332W        W39463  11.620   8.858  14.454 -0.0650 -0.0821  0.1749
24333W        W39464   3.485   9.360   4.940  0.1658  0.0725  0.2481
24334W        W39465   0.790   5.362   4.952 -0.1979 -0.0963  0.0514
24335W        W39466  12.340   7.842   5.104  0.1502 -0.1955 -0.1055
24336W        W39467   9.521   4.581   4.097  0.2110 -0.0820  0.0619
24337W        W39468   7.292  11.403  11.119 -0.0380  0.2237  0.2683
24338W        W39469  13.568  12.046  15.386  0.0118  0.3438  0.1832
24339W        W39470  15.178   0.961   5.324  0.0461  0.0571 -0.1838
24340W        W39471  10.643   0.151  12.855  0.1776  0.2714  0.0614
24341W        W39472   4.182   0.564  11.003  0.1090 -0.2358  0.1467
24342W        W39473   5.211  13.770  12.426  0.0111 -0.1957  0.0934
24343W        W39474   9.459   3.449   5.458 -0.5351  0.0442  0.0170
24344W        W39475  13.643  10.662  11.653 -0.1384  0.1893  0.2147
24345W        W39476   6.655  14.460  11.280  0.1610 -0.0400  0.2680
24346W        W39477  13.566   6.758   3.029 -0.1459 -0.1113 -0.2478
24347W        W39478   3.596   3.660  15.084  0.0379  0.0617  0.0686
24348W        W39479   1.111   9.718   2.976 -0.2619  0.0519  0.1790
24349W        W39480   1.538   3.880  15.095 -0.2461 -0.1479 -0.0111
24350W        W39481   9.980   1.933   5.545 -0.4042 -0.2238  0.2675
24351W        W39482   9.850   1.237  14.483  0.1142 -0.2416 -0.2752
24352W        W39483  17.463   3.215  13.183 -0.1045 -0.0500  0.1735
24353W        W39484  12.849  17.168   4.372 -0.2632 -0.0138 -0.1437
24354W        W39485   6.408   2.232  15.138  0.0036  0.0234  0.1399
24355W        W39486  15.766   9.895   2.225  0.1285 -0.0818  0.0795
24356W        W39487  12.946   3.516   4.023 -0.2177 -0.1788 -0.2802
24357W        W39488  16.948   3.970  15.535 -0.0921 -0.0026 -0.4484
24358W        W39489  13.690   8.686  12.229 -0.1511  0.0196 -0.0849
24359W        W39490   2.148   8.695   3.968 -0.3915  0.1851  0.0684
24360W        W39491   5.046  16.406  16.079 -0.1630  0.0568  0.3699
24361W        W39492   4.855   8.427  13.432  0.2478  0.0148  0.1072
24362W        W39493   1.595   9.520  15.271 -0.2142 -0.1233 -0.0297
24363W        W39494   1.092   8.063   4.965 -0.0432  0.3230 -0.0981
24364W        W39495  17.196   7.605   4.706 -0.0539 -0.3073  0.2208
24365W        W39496   6.789   1.195  13.264 -0.1951  0.1537 -0.3502
24366W        W39497   6.127   9.536   4.100 -0.0181 -0.0024  0.2623
24367W        W39498  17.088  18.198   1.332  0.3131  0.0691 -0.2037
24368W        W39499  15.903   6.830   2.767  0.2940  0.0677 -0.0903
24369W        W39500  17.444   4.103   2.962  0.3012 -0.0375  0.0055
24370W        W39501   2.994   2.262   2.962  0.1636  0.0935 -0.0725
24371W        W39502  11.527  14.482   3.836 -0.0096 -0.1344  0.0820
24372W        W39503  12.390  11.671  11.376  0.2241  0.0918  0.0307
24373W        W39504  18.019   4.154   4.196  0.2464  0.0118 -0.1000
24374W        W39505  18.094   3.665   0.865  0.1666  0.0551  0.1415
24375W        W39506   7.748   6.276   2.525 -0.0793  0.0019 -0.1177
24376W        W39507  17.815   3.588   3.741  0.2532  0.1930 -0.3278
24377W        W39508   6.026   7.689   2.404  0.0186  0.0607 -0.0359
24378W        W39509   9.547   1.311  12.943 -0.0320  0.1106 -0.0970
24379W        W39510   4.227   2.567   0.289 -0.0918 -0.0126  0.3175
24380W        W39511   9.645  10.886  12.493 -0.0257  0.1079  0.0636
24381W        W39512  18.250   9.011   1.694 -0.1735 -0.2786  0.1666
24382W        W39513  14.205  11.192  10.754 -0.0596 -0.1945  0.2271
24383W        W39514   1.598  17.800  13.991 -0.0530  0.3760  0.3438
24384W        W39515   8.962  10.592   0.870  0.3215  0.1030 -0.0005
24385W        W39516  10.822   8.640  14.778 -0.2899  0.2169  0.1032
24386W        W39517   2.424   5.287  12.911  0.0131 -0.1749 -0.0836
24387W        W39518   1.255  11.163  10.746 -0.0335 -0.0769  0.2591
24388W        W39519   7.050   8.273   1.161  0.0592  0.1601 -0.0252
24389W        W39520  14.766   3.709  12.180  0.1504  0.0084 -0.0088
24390W        W39521   0.021   5.127   3.852  0.0978 -0.0047  0.0371
24391W        W39522   9.923   4.671   3.381  0.0836 -0.1028 -0.1274
24392W        W39523   7.292  13.612  11.891  0.0124 -0.7099  0.2234
24393W        W39524  12.319  13.621  15.945 -0.0123 -0.0777 -0.1165
24394W        W39525  15.393  12.725   5.286 -0.2580  0.0096 -0.0101
24395W        W39526  16.207  17.318  15.862 -0.0917  0.0752 -0.1444
24396W        W39527   9.435  13.429  12.292 -0.0919  0.0374 -0.2282
24397W        W39528   2.790  17.316   5.554  0.0293 -0.1975 -0.2255
24398W        W39529   9.028   0.402   0.421 -0.2024  0.1033  0.2910
24399W        W39530   0.986  15.912  12.409 -0.2801 -0.2003  0.0317
24400W        W39531   7.992   3.598  13.248 -0.2725 -0.0504 -0.1926
24401W        W39532  15.130   5.774  15.131  0.2015  0.1018  0.1650
24402W        W39533  14.946   8.160   4.967  0.3896 -0.0620  0.0600
24403W        W39534   5.660  16.240  11.000  0.0090 -0.0838 -0.2068
24404W        W39535   6.022  13.158   0.496 -0.2166  0.1133 -0.1785
24405W        W39536  13.425  14.639   5.526 -0.1831  0.3632 -0.0904
24406W        W39537   5.856   7.922  11.026  0.2914  0.0925  0.2067
24407W        W39538  17.438   8.971   4.153 -0.0295  0.0747  0.2311
24408W        W39539  11.687  10.726  14.445 -0.1256 -0.0280  0.1749
24409W        W39540   2.827  16.952   4.406 -0.0403 -0.2221  0.1171
24410W        W39541   2.755   8.327  14.845 -0.0591 -0.2587 -0.1791
24411W        W39542   9.074  16.711   4.870 -0.2221  0.1981 -0.1708
24412W        W39543   4.797   5.849  11.634  0.1613  0.1171 -0.0065
24413W        W39544   5.499  14.495  15.705 -0.0131 -0.1905  0.1168
24414W        W39545   4.887  16.245  15.085  0.2313  0.0225  0.0231
24415W        W39546  17.526   8.041   3.482 -0.0483 -0.1796  0.3174
24416W        W39547  18.226   1.724  15.858 -0.0469  0.0315  0.0171
24417W        W39548  12.232   0.649  14.964  0.0402 -0.2334  0.2581
24418W        W39549   1.465   6.471  15.241 -0.2482 -0.0101 -0.0443
24419W        W39550  13.941  10.881   0.335  0.3371 -0.5731  0.0592
24420W        W39551   5.133   7.295  15.465  0.1902  0.1269  0.3623
24421W        W39552  12.580   1.305   4.840  0.2031  0.3845 -0.0061
24422W        W39553  13.442  15.362  11.180  0.0126 -0.0068 -0.1112
24423W        W39554   2.366   3.772   3.949  0.0975  0.0447  0.1928
24424W        W39555   3.423  15.594  11.746 -0.1220 -0.5040 -0.0403
24425W        W39556  17.638   3.380  16.092 -0.2349 -0.0006 -0.1077
24426W        W39557   0.599   6.560  14.543 -0.1012 -0.0160  0.0049
24427W        W39558  15.273   0.928   0.749  0.0247  0.0281 -0.2796
24428W        W39559  11.768  12.521  14.658  0.4444 -0.1491 -0.0212
24429W        W39560   3.980   9.533   1.936 -0.1248  0.1508 -0.0829
24430W        W39561   3.536  17.972   1.644  0.1082 -0.0009 -0.1884
24431W        W39562   6.775  11.586  12.991 -0.0679 -0.1994  0.0963
24432W        W39563   6.228   5.935   2.826  0.0151 -0.1846  0.3513
24433W        W39564  17.339   0.830   1.657 -0.1615  0.3512 -0.0458
24434W        W39565   1.200   5.225   2.373 -0.3494 -0.0859  0.0386
24435W        W39566  16.747   2.746  12.998 -0.0451  0.2051 -0.0464
24436W        W39567   3.003  10.497   3.103 -0.0288  0.4376  0.0062
24437W        W39568   5.143   1.141   5.109 -0.3243  0.1445  0.3671
24438W        W39569  14.941   1.666  11.811 -0.1290 -0.3685  0.0376
24439W        W39570   4.752  17.323  15.523 -0.4496 -0.0497 -0.1940
24440W        W39571   8.662   2.738   4.028  0.0408 -0.2336  0.2276
24441W        W39572   5.411  14.677   6.052 -0.2167  0.0463 -0.0945
24442W        W39573   0.520  12.167   1.355  0.3999  0.1277  0.2359
24443W        W39574  15.217  14.699  11.040 -0.2108 -0.0052 -0.1326
24444W        W39575   9.622  15.950  13.413 -0.0365  0.1043 -0.0475
24445W        W39576   0.089   0.444  14.751  0.0207  0.0690  0.1194
24446W        W39577  13.112  17.533   0.455 -0.0436 -0.1057 -0.1762
24447W        W39578  17.288   2.473   0.872  0.0650  0.0599 -0.2091
24448W        W39579  14.251   6.918  10.048  0.3451 -0.2860  0.0702
24449W        W39580   8.708   9.779  14.944  0.0584 -0.2583 -0.2965
24450W        W39581   0.002  10.796   0.732  0.1558  0.5008  0.2650
24451W        W39582   8.377   7.838   5.876  0.0603  0.0817  0.1416
24452W        W39583  13.669  15.551   2.172 -0.0361  0.1345 -0.0226
24453W        W39584   2.990  10.872  13.859 -0.0094 -0.0191 -0.3717
24454W        W39585   6.572  16.963   2.977 -0.1434  0.2239 -0.2064
24455W        W39586   1.701  10.903  13.499  0.0517  0.0530  0.2237
24456W        W39587   8.219   6.880   2.365  0.3074 -0.0438  0.2318
24457W        W39588   8.077   4.508  11.146  0.1272 -0.1664 -0.2532
24458W        W39589  11.368  11.343   4.347  0.3697 -0.1605 -0.2009
24459W        W39590  10.318   7.211   4.016  0.1384 -0.1449  0.1352
24460W        W39591   0.013   5.633   3.630  0.1393 -0.5510  0.2444
24461W        W39592   2.398   7.203  14.433 -0.2922  0.1458  0.2279
24462W        W39593  11.301   0.465  14.842 -0.1706 -0.1212 -0.1585
24463W        W39594   1.739   1.296   5.030  0.1603  0.0941  0.1752
24464W        W39595   4.221   6.598   3.287 -0.0975 -0.2633  0.1930
24465W        W39596  15.126  16.544  13.299  0.0637 -0.0554 -0.0374
24466W        W39597  11.049  15.108  12.699 -0.1156 -0.3035  0.1772
24467W        W39598  13.589   2.300   1.049  0.1867 -0.4285 -0.0510
24468W        W39599   6.282  17.355   3.822  0.1138 -0.0704 -0.3774
24469W        W39600   8.053  10.289  13.402 -0.2627 -0.2832 -0.0225
24470W        W39601  15.065   4.974  14.501 -0.0532 -0.1049  0.1732
24471W        W39602   2.049  18.155   0.405  0.1379 -0.0713 -0.1851
24472W        W39603   9.176   9.794   3.961 -0.0091  0.0429 -0.0970
24473W        W39604   2.498   9.592  13.621  0.0283  0.1712  0.0624
24474W        W39605   9.210   9.944  15.873 -0.0492  0.0116 -0.1115
24475W        W39606   7.914   5.930   0.087  0.1641  0.1210 -0.3779
24476W        W39607   4.544  10.310   0.383 -0.1337 -0.0097  0.0188
24477W        W39608  10.923  14.565   2.428  0.1210  0.0662 -0.3930
24478W        W39609   1.593   5.106   1.296 -0.0182  0.3887  0.1168
24479W        W39610   6.103  10.168   0.367  0.0351 -0.0397 -0.2946
24480W        W39611   2.649   6.169   4.074  0.0250 -0.0514  0.1433
24481W        W39612   5.153   9.227  13.150 -0.2700 -0.0225  0.1381
24482W        W39613  15.197   8.438  16.036  0.2261  0.0428 -0.4614
24483W        W39614   5.191   1.742  11.648 -0.0785  0.3481 -0.1982
24484W        W39615   6.962   6.596   4.309  0.0361 -0.4053  0.0534
24485W        W39616   2.496   4.790  12.795 -0.3775  0.2557 -0.1057
24486W        W39617  17.778   6.115   2.544 -0.0789 -0.2831  0.3572
24487W        W39618  11.693   6.469   0.024  0.2087 -0.0304 -0.3120
24488W        W39619  14.916   6.300   1.955 -0.1181 -0.0061  0.1689
24489W        W39620   5.366  11.212  14.388  0.0160  0.6620 -0.3728
24490W        W39621  12.352   6.343   6.299  0.3311  0.3435  0.2444
24491W        W39622  16.168  18.357   1.836  0.0515  0.2161  0.0831
24492W        W39623   6.702  10.641   2.653  0.1215 -0.1039 -0.0232
24493W        W39624   7.422  15.880  13.085  0.3380  0.0945  0.5687
24494W        W39625   0.830   5.297  12.808 -0.3094  0.1164 -0.0355
24495W        W39626  16.717   7.598  15.201  0.2088  0.1493 -0.0027
24496W        W39627   3.552   3.612   2.410 -0.2065 -0.2666  0.2783
24497W        W39628  10.841   4.826   2.571 -0.2070  0.3203 -0.0744
24498W        W39629  15.637  14.074   2.132 -0.1997  0.1448 -0.3519
24499W        W39630   1.740  14.435  14.351 -0.0772  0.0989  0.0551
24500W        W39631  13.112   9.263   3.551  0.0685 -0.0785 -0.3465
24501W        W39632  15.936   5.409   3.114  0.7351  0.1008  0.0225
24502W        W39633   8.317  11.028  12.882  0.0281  0.0506 -0.1916
24503W        W39634  12.439   1.053  15.342 -0.1156 -0.1224  0.1927
24504W        W39635  10.256   7.904  12.517 -0.0062  0.1652  0.0913
24505W        W39636   1.213   0.947  13.126  0.0468  0.0075  0.1150
24506W        W39637   8.251   8.321   3.935 -0.2089 -0.2091 -0.1970
24507W        W39638   9.464   7.821  11.610 -0.2017 -0.3482 -0.0868
24508W        W39639   5.782   1.361   9.818 -0.0516  0.1061 -0.1854
24509W        W39640  13.261   7.925  12.571  0.1249 -0.0392 -0.2616
24510W        W39641  10.731  18.171   2.018 -0.0708 -0.2880 -0.1747
24511W        W39642  12.106  13.476   5.115 -0.1743  0.1500  0.1792
24512W        W39643  14.346   6.257  12.196 -0.2248 -0.1715  0.0899
24513W        W39644  18.302   6.208  14.968 -0.1226  0.2520  0.1295
24514W        W39645  12.352  12.862   0.392 -0.2117  0.0974  0.1032
24515W        W39646   3.932  17.176   2.370  0.0137 -0.1498  0.2797
24516W        W39647   4.786  17.448  11.844  0.1517  0.2388 -0.4248
24517W        W39648  10.946  18.191  11.836  0.4417 -0.3198  0.1598
24518W        W39649   3.098  15.896   4.900  0.0858 -0.1014 -0.0152
24519W        W39650   6.948   1.127   2.344 -0.1462 -0.0290  0.2095
24520W        W39651   4.091   8.019   3.806  0.0558  0.0488  0.0736
24521W        W39652   5.555  16.033  13.491 -0.1710 -0.2338  0.2151
24522W        W39653   4.794   5.799   1.765 -0.0676 -0.4965  0.1954
24523W        W39654   9.430   9.572  11.434 -0.0281 -0.2427 -0.0972
24524W        W39655   5.546   6.166  14.799 -0.0344 -0.3896 -0.1219
24525W        W39656   9.909  11.489  14.737 -0.1808  0.2072  0.1233
24526W        W39657   8.319  15.798  15.152  0.0006 -0.0100 -0.3283
24527W        W39658  16.129  14.210   5.826 -0.0713 -0.0567  0.2331
24528W        W39659  13.540   0.482   5.027  0.0939 -0.1785 -0.1224
24529W        W39660   1.362  10.122  11.114  0.1940 -0.0532 -0.3259
24530W        W39661   5.507   4.361   0.063 -0.1946  0.3771  0.1946
24531W        W39662   0.941  11.092   0.701  0.2102 -0.1034  0.0683
24532W        W39663   8.989   5.613  12.134 -0.0745  0.1502  0.1437
24533W        W39664  10.417   7.460   2.075 -0.1484 -0.0767 -0.0617
24534W        W39665   4.788  10.023   1.664  0.1194  0.1988  0.0203
24535W        W39666   0.688  12.223  15.407  0.1997 -0.0444 -0.2040
24536W        W39667   8.445   7.757  15.104 -0.0169 -0.0613 -0.1014
24537W        W39668   4.201  12.728   4.217 -0.4568 -0.0079  0.0248
24538W        W39669   7.597  14.019  12.236 -0.1044 -0.1291  0.0301
24539W        W39670   1.994  15.242  13.112  0.1294 -0.3794 -0.0804
24540W        W39671  17.296   4.771  12.868  0.3175 -0.0200  0.0453
24541W        W39672   5.936  13.180  13.874 -0.0171  0.2437  0.2216
24542W        W39673   7.684   5.252   2.889 -0.1399  0.2999 -0.2630
24543W        W39674  10.073   4.146   3.382  0.2010  0.4179 -0.0088
24544W        W39675  12.067   5.496   6.246  0.0460  0.1704  0.0401
24545W        W39676  17.496  17.168  10.604  0.0256  0.0666  0.1713
24546W        W39677  15.375   2.211   4.058 -0.0997  0.0380 -0.0963
24547W        W39678   6.342   7.697  15.035  0.0551 -0.3534 -0.0334
24548W        W39679  15.331   6.421  14.256  0.1324  0.3040 -0.0644
24549W        W39680  16.139   4.947  13.526  0.5681 -0.3637 -0.0025
24550W        W39681   1.266  10.080  13.300 -0.2663 -0.0844 -0.0306
24551W        W39682  13.383  16.713   2.613 -0.0375  0.1864 -0.1274
24552W        W39683   3.018  13.191   2.064  0.0647 -0.1843  0.1932
24553W        W39684   5.357  10.222   3.467  0.5656  0.2792 -0.2878
24554W        W39685   0.231   5.526   4.780 -0.1909 -0.0811  0.1989
24555W        W39686   8.826   5.023  11.185 -0.0373  0.0286  0.1141
24556W        W39687   9.326   8.736   5.453  0.2277 -0.5593 -0.1095
24557W        W39688  10.309  16.399   3.265 -0.0715  0.2230  0.1700
24558W        W39689   5.478   1.017  16.108  0.2638 -0.0421  0.1450
24559W        W39690  17.250   1.122  15.121 -0.0941  0.1191 -0.1421
24560W        W39691  17.654   2.704  11.907 -0.2390 -0.1112 -0.0078
24561W        W39692   9.527  15.415  14.726 -0.1556 -0.0728  0.0356
24562W        W39693   2.960   0.642   3.273 -0.2490  0.0787 -0.2216
24563W        W39694  11.922   3.536   6.230 -0.2336  0.0013 -0.2508
24564W        W39695  16.767   9.185   2.136  0.0400 -0.0398  0.1823
24565W        W39696   7.630   3.763   3.894  0.3962 -0.4460  0.0380
24566W        W39697   2.893   7.274   5.468 -0.0113 -0.1282  0.1839
24567W        W39698   8.321   9.456  13.550 -0.0276  0.1502 -0.2200
24568W        W39699  13.794  15.720   2.997 -0.0143  0.0929 -0.0925
24569W        W39700  17.788  11.289   2.053 -0.1605 -0.3517  0.1736
24570W        W39701  15.945   7.767  13.244  0.2085  0.2153  0.1725
24571W        W39702   2.161   6.909  14.727  0.1920  0.1451  0.0562
24572W        W39703   7.778   9.869  12.011 -0.2522  0.1917 -0.2836
24573W        W39704   9.290   2.675   2.213 -0.1601  0.1653  0.0442
24574W        W39705   3.416  16.551  16.106 -0.4231  0.0793  0.3616
24575W        W39706  14.448   5.965  13.212  0.0811  0.0845 -0.0137
24576W        W39707  13.542  13.384   0.666  0.3233 -0.0467 -0.0894
24577W        W39708   8.808  15.876   0.092 -0.4093 -0.2693 -0.1851
24578W        W39709  18.000   6.629  15.699  0.0448  0.0550  0.2033
24579W        W39710   7.744  14.458  11.477  0.0947 -0.2354  0.0312
24580W        W39711  11.775  11.993   2.986  0.0904  0.1610  0.0743
24581W        W39712  15.758  12.128  15.819 -0.1512 -0.1329 -0.2036
24582W        W39713   3.103   8.508  12.692 -0.1765  0.3209 -0.2506
24583W        W39714   5.698   5.163   4.050  0.0562  0.1281 -0.2837
24584W        W39715  17.153  18.135   2.365 -0.1324  0.2396  0.1121
24585W        W39716   5.798  16.065   5.402 -0.1692  0.2784 -0.1435
24586W        W39717  14.049   5.090   0.683  0.0759 -0.3748  0.3507
24587W        W39718  16.420   4.145   3.340 -0.0353  0.1194 -0.1069
24588W        W39719   1.837  13.024   5.094 -0.1718 -0.1097 -0.0308
24589W        W39720  16.451  12.407  15.207  0.0595  0.0328  0.1401
24590W        W39721  13.793   3.184   4.285  0.0537  0.0851  0.2720
24591W        W39722   1.099   3.736  16.131  0.2009 -0.0470  0.1487
24592W        W39723   9.097   6.634  13.931  0.1321 -0.1474  0.1739
24593W        W39724   1.207   4.871   0.446  0.1850  0.0484 -0.0097
24594W        W39725  15.696  12.643  12.853  0.0081  0.1880 -0.1340
24595W        W39726   9.038  13.109  12.174  0.1172 -0.2298 -0.0180
24596W        W39727   7.176  16.210   4.862  0.0161  0.0440  0.1426
24597W        W39728  11.040   6.197   0.615  0.1008 -0.1770 -0.0779
24598W        W39729   8.632  13.107   0.258 -0.1206 -0.0678  0.1631
24599W        W39730  12.795  10.275  13.416 -0.2167 -0.1072 -0.1629
24600W        W39731  18.242  15.621  15.945  0.2118  0.1330 -0.0825
24601W        W39732   6.162  10.104  15.166 -0.3127 -0.1644  0.1744
24602W        W39733   0.596  13.930  13.844 -0.2408 -0.1993 -0.0326
24603W        W39734  11.330  11.127  13.260 -0.3688 -0.2238  0.0500
24604W        W39735   3.297   8.495   2.490  0.0094  0.0718 -0.0755
24605W        W39736   9.394   2.651   3.310 -0.1562  0.2457 -0.2838
24606W        W39737   2.296  12.300   0.161 -0.2528 -0.1176  0.0277
24607W        W39738   1.870  13.615   3.290  0.0385  0.2451 -0.1999
24608W        W39739  15.840   2.770  11.924 -0.1755 -0.2122 -0.2776
24609W        W39740   5.770   1.604  13.090 -0.0148  0.2191  0.1284
24610W        W39741   1.298   0.916   4.167  0.0071  0.2452 -0.1398
24611W        W39742  10.209   3.261   4.953  0.1627 -0.1873  0.3514
24612W        W39743   0.412   1.585   4.376 -0.0340  0.1594 -0.1174
24613W        W39744  18.061   1.397  12.853  0.0268 -0.0589  0.0215
24614W        W39745   2.020   0.562  12.410 -0.1656 -0.2870  0.0647
24615W        W39746  16.243  11.650   3.035 -0.2020  0.1152  0.0473
24616W        W39747  16.159  14.130   4.425 -0.1098 -0.1816  0.1456
24617W        W39748  12.325   2.653  13.597  0.1639  0.2419 -0.0814
24618W        W39749   0.204   9.878  11.376  0.3756 -0.2375  0.0988
24619W        W39750  17.502  10.536  10.986  0.0306  0.0303 -0.1037
24620W        W39751  17.947   1.120   6.236 -0.1217  0.3296  0.0411
24621W        W39752   2.777   1.994  15.103  0.1737 -0.0574 -0.0141
24622W        W39753  18.242   2.528   4.502  0.3098 -0.3950  0.1422
24623W        W39754  17.752  11.811   0.462  0.2497  0.1701 -0.4256
24624W        W39755  17.454   8.059   2.547 -0.0520  0.2548  0.0223
24625W        W39756  11.901   4.814   4.139 -0.0532  0.3430  0.0998
24626W        W39757  10.792  17.453   4.455  0.1420  0.0117 -0.4107
24627W        W39758   1.136  16.463   2.681  0.4038 -0.3535  0.3435
24628W        W39759   7.356  17.166  15.114 -0.0887  0.0262 -0.2745
24629W        W39760  11.783   6.352  14.181  0.0137  0.0005 -0.3928
24630W        W39761   3.765   2.438   3.468 -0.1147 -0.2247  0.4258
24631W        W39762  13.766  11.153   2.256  0.1793  0.2495 -0.2089
24632W        W39763  11.870  13.384  10.715  0.5731 -0.0533 -0.0548
24633W        W39764   7.585  15.314   0.441  0.1405  0.0829 -0.2038
24634W        W39765  14.389   4.756  12.469  0.3480  0.0066  0.3445
24635W        W39766   1.286  17.943  15.891  0.1814  0.1689 -0.3570
24636W        W39767   4.183   8.352  14.776 -0.4022  0.1418  0.1209
24637W        W39768  11.536  15.137  12.014 -0.1583  0.0927  0.0309
24638W        W39769   3.696   6.780  15.135  0.0401 -0.1305 -0.0529
24639W        W39770   2.488  15.210   4.307 -0.2625  0.0479  0.0448
24640W        W39771  12.371   6.482   1.715  0.0913  0.2210 -0.1651
24641W        W39772   3.006   6.031  11.959  0.0663  0.1834  0.1794
24642W        W39773   7.520   1.135   0.022  0.1507  0.1144 -0.1165
24643W        W39774   4.273  13.106  11.670 -0.3313 -0.1072  0.2422
24644W        W39775   5.596   2.408  14.471  0.0609 -0.0641  0.1058
24645W        W39776   3.282   0.611  12.142 -0.0844  0.0360 -0.1023
24646W        W39777  16.914  10.554   2.679  0.2727  0.1858  0.1290
24647W        W39778   3.275   1.137  15.995 -0.0390 -0.2817  0.1929
24648W        W39779   9.479   0.560  12.105 -0.0521 -0.2939 -0.2524
24649W        W39780  17.957  14.360   4.253 -0.0371  0.1233 -0.0617
24650W        W39781  11.249   8.867   0.830  0.3327 -0.2386 -0.0819
24651W        W39782  14.590  14.134  12.656 -0.0531  0.3851  0.1818
24652W        W39783   2.741   1.165  11.181  0.0020  0.1430  0.2273
24653W        W39784   9.091  11.631  11.352  0.1173 -0.2167  0.3480
24654W        W39785  10.472  13.805   1.780 -0.1493 -0.0997  0.4382
24655W        W39786   9.853   3.714   1.322 -0.1011 -0.0706 -0.0172
24656W        W39787  10.679  18.296   3.138 -0.0187  0.3431 -0.3431
24657W        W39788   3.009   1.987   4.595  0.1535 -0.3627  0.0085
24658W        W39789   4.273  13.671  13.176 -0.2118 -0.0337 -0.3216
24659W        W39790   2.249   2.142  11.011 -0.2667 -0.0580 -0.2406
24660W        W39791  12.603   7.395   1.400  0.0730  0.0173 -0.3373
24661W        W39792  10.123   9.010  14.283 -0.0701  0.0002 -0.1858
24662W        W39793   3.622  17.095  13.789 -0.2056 -0.1600  0.2258
24663W        W39794   8.951   5.620  14.300 -0.2362 -0.1731  0.0770
24664W        W39795  18.258  12.972  11.528 -0.3636  0.3008 -0.0672
24665W        W39796   7.317  14.997   9.478 -0.1716  0.0833 -0.2082
24666W        W39797  16.504   0.831  13.199 -0.1053 -0.0503 -0.3034
24667W        W39798  17.667   1.537  11.376 -0.2106 -0.2046  0.0207
24668W        W39799  17.818   4.490   2.806  0.1043  0.0665 -0.2095
24669W        W39800   3.187   8.256  14.613  0.2726  0.1325 -0.0295
24670W        W39801  17.159   4.959  14.672 -0.2165  0.3034 -0.2711
24671W        W39802  16.709   1.365   3.326 -0.0237 -0.3012 -0.0721
24672W        W39803   2.515   0.965  11.591 -0.2317  0.1026  0.1300
24673W        W39804   7.593   5.860  13.850  0.1170 -0.3848 -0.2477
24674W        W39805   1.290  16.418  14.219  0.1570 -0.2141  0.2232
24675W        W39806  18.317   2.677  14.574  0.4380  0.1720  0.2223
24676W        W39807   7.947  14.435   3.914  0.2120  0.3779  0.0024
24677W        W39808   4.707  15.656   3.220  0.0101 -0.0291  0.2358
24678W        W39809   3.327   2.363  11.734  0.0073 -0.1076 -0.1584
24679W        W39810   7.740   4.017   4.309 -0.2488 -0.0352  0.1797
24680W        W39811  16.440  17.283   0.379  0.2276 -0.0908 -0.0095
24681W        W39812  14.473   7.524  14.934 -0.0367 -0.0353 -0.3031
24682W        W39813  13.825  11.179  14.209 -0.1279  0.1421  0.1499
24683W        W39814   1.877  10.074   5.523 -0.0274  0.3648  0.1267
24684W        W39815   8.044  14.872   3.615  0.1248  0.2118 -0.2221
24685W        W39816  12.965   7.614  15.552 -0.3349  0.1026 -0.0101
24686W        W39817   9.830   5.704  12.621 -0.1325  0.0356  0.1816
24687W        W39818  12.838  16.539  11.145  0.0250 -0.1799 -0.1152
24688W        W39819  17.862  17.436  13.608  0.1069 -0.0425 -0.0850
24689W        W39820  13.153   2.077  12.902 -0.1615 -0.3429 -0.3141
24690W        W39821   7.606  16.340  13.963 -0.0349 -0.0913 -0.0931
24691W        W39822  13.853   0.756   3.173 -0.4704  0.1330 -0.2161
24692W        W39823  15.382   9.185   2.718 -0.0367 -0.3163  0.2061
24693W        W39824  10.817  15.121   1.682  0.2110 -0.0804  0.0962
24694W        W39825   8.419   0.765  13.153 -0.2482 -0.0303  0.1537
24695W        W39826   8.065  15.412   0.666  0.1217 -0.2141  0.2494
24696W        W39827  17.367  13.503   1.518 -0.1962  0.0926 -0.0231
24697W        W39828  11.666   4.093  13.455 -0.1470  0.1103  0.0605
24698W        W39829  13.621  18.328   5.425 -0.3413  0.1057  0.0569
24699W        W39830   7.279   8.053   5.215  0.0945  0.0206 -0.1826
24700W        W39831   1.732  16.572  13.973  0.2226  0.2366  0.0376
24701W        W39832  14.280   1.098  11.790 -0.0292  0.1846 -0.0206
24702W        W39833  11.323  17.343   1.735 -0.1813 -0.3020 -0.1766
24703W        W39834  16.436  13.306   4.570 -0.0477  0.2495  0.1398
24704W        W39835  16.574   2.210  15.425  0.1672  0.0790 -0.1824
24705W        W39836  15.637  14.785  13.747 -0.1083 -0.2721 -0.0470
24706W        W39837  13.853   3.998   4.843 -0.0125  0.0530  0.2620
24707W        W39838   0.320  16.609   2.247 -0.0761 -0.1773 -0.1975
24708W        W39839  17.205  13.360   0.568 -0.0054  0.1305 -0.0961
24709W        W39840   7.747   9.797   5.169  0.2554 -0.0227 -0.3706
24710W        W39841  14.195  17.169  15.064 -0.1835 -0.0531 -0.3592
24711W        W39842   8.261   3.614  14.032 -0.0636 -0.0066 -0.0205
24712W        W39843   9.838  12.686   4.272  0.2563  0.1649  0.0823
24713W        W39844   1.815   6.104   3.678 -0.0776 -0.0835  0.1589
24714W        W39845  17.715   4.584  14.530  0.0714  0.0407 -0.0173
24715W        W39846   0.297   7.009  11.364  0.0150  0.0944  0.1205
24716W        W39847  10.096  12.089   1.844 -0.1246  0.3100  0.3343
24717W        W39848   5.394  10.898  13.425  0.1440 -0.3177  0.0484
24718W        W39849   9.352   6.540   3.201 -0.1893 -0.1972 -0.0215
24719W        W39850  11.752   3.174   2.432 -0.1505  0.1168  0.0952
24720W        W39851   4.111   8.295  12.889  0.0069 -0.3694  0.0096
24721W        W39852   4.596   8.410  14.495 -0.1071  0.0045 -0.0688
24722W        W39853  10.510   6.937   1.873  0.0474  0.3152 -0.1364
24723W        W39854   5.265  13.153   4.596 -0.0445 -0.0459 -0.2998
24724W        W39855   1.851  17.536  15.363  0.0370 -0.2325 -0.0946
24725W        W39856  14.562   9.806   1.082 -0.0986 -0.0743 -0.1157
24726W        W39857  11.256   7.351  12.200 -0.0438  0.0263 -0.0070
24727W        W39858  13.025  12.884  14.406  0.0098 -0.0440 -0.0108
24728W        W39859   8.022   1.765   2.128  0.2384  0.0079 -0.2535
24729W        W39860  11.049  13.552  15.421 -0.3189 -0.1665 -0.0782
24730W        W39861  14.613   7.189   1.694  0.2590  0.1897  0.0834
24731W        W39862   5.076  12.483   3.734 -0.1207 -0.1552 -0.0905
24732W        W39863   3.160  17.387   0.075  0.0042 -0.2569  0.1134
24733W        W39864  13.881  14.181  11.374  0.1598 -0.0519  0.1746
24734W        W39865  15.979  14.739  12.240  0.2377 -0.0404  0.0597
24735W        W39866   1.809  16.383   2.913 -0.0275  0.0799 -0.0505
24736W        W39867   6.040  10.127  13.551  0.1837 -0.1322  0.2062
24737W        W39868  13.025   9.390   0.798 -0.0445 -0.0329  0.1806
24738W        W39869  15.824  11.459   3.840 -0.2132 -0.0322 -0.1378
24739W        W39870  12.392   3.093  13.212 -0.1305 -0.3454  0.0837
24740W        W39871   2.007  11.050  12.622 -0.1064 -0.0114  0.3031
24741W        W39872  14.399  12.805  12.229 -0.5907 -0.2087 -0.0674
24742W        W39873   0.427   1.193   0.205  0.1119  0.3275  0.3476
24743W        W39874  13.142   1.435   2.239  0.1142 -0.1419  0.2046
24744W        W39875   5.045  16.169  13.345  0.1305  0.0024  0.2514
24745W        W39876   1.604  15.279   2.381  0.1233 -0.3757  0.0916
24746W        W39877   9.183  10.722  12.457  0.0327 -0.2772  0.2442
24747W        W39878   0.545  16.694   1.706  0.0112 -0.0433 -0.0679
24748W        W39879  10.694   0.686   0.948 -0.2023  0.4262 -0.1161
24749W        W39880  12.304  15.590   2.360  0.0191  0.2771  0.3783
24750W        W39881   8.091   2.214   3.550 -0.0657  0.1548  0.2211
24751W        W39882  14.172  14.689   0.470 -0.0708  0.1223  0.0322
24752W        W39883  16.073  14.374   5.322  0.1215 -0.1759 -0.0163
24753W        W39884   4.457   9.342   1.259 -0.2911  0.1649 -0.1234
24754W        W39885   2.560  15.196   4.872  0.0057 -0.2482  0.1880
24755W        W39886  11.663  12.780  15.985 -0.0924  0.2406 -0.0209
24756W        W39887  10.200  14.852  14.240  0.3300 -0.1509  0.0298
24757W        W39888   5.758   5.153   2.705 -0.1033  0.1302  0.4098
24758W        W39889  13.436   2.853   5.179  0.3285 -0.0471 -0.2361
24759W        W39890  14.587  11.017   3.939 -0.1116  0.0544  0.0918
24760W        W39891  14.922  12.282  11.166  0.2477 -0.2732  0.0373
24761W        W39892  11.979  12.554   5.610 -0.2302 -0.1222  0.0390
24762W        W39893  11.923   1.166   0.420  0.0872  0.0671 -0.0469
24763W        W39894   8.004  15.795   4.764 -0.0020 -0.1773  0.1574
24764W        W39895  16.733   7.397   2.430  0.0817  0.2919  0.4272
24765W        W39896   6.622   0.624  14.463 -0.1935  0.1307 -0.1939
24766W        W39897  14.496   4.894   4.820  0.1878  0.2314  0.2844
24767W        W39898  13.500  12.639   4.327  0.1095 -0.2767  0.1929
24768W        W39899   2.490   3.105  12.192 -0.0167  0.4577 -0.1731
24769W        W39900   7.080   9.448  14.064  0.1331  0.1238  0.0907
24770W        W39901   7.223   3.177   5.239  0.0850 -0.1826 -0.0112
24771W        W39902   6.180  16.082   2.529  0.3154 -0.1776 -0.0146
24772W        W39903   6.518  14.685   4.872  0.1137  0.0148  0.4911
24773W        W39904   1.206  17.134  12.592  0.0212  0.2802 -0.0062
24774W        W39905  14.563  11.447  13.626  0.0412 -0.0055  0.0627
24775W        W39906   7.672   5.282   3.468  0.1952  0.0710 -0.2094
24776W        W39907   5.664   2.219   2.583 -0.0149  0.1352 -0.1321
24777W        W39908   1.101  10.875  11.574  0.1923 -0.4127 -0.1057
24778W        W39909  17.469   3.981  13.442 -0.2181  0.2045  0.1754
24779W        W39910  12.611  17.231  14.548  0.2306  0.2340  0.4338
24780W        W39911  14.055  11.410   1.960 -0.1408  0.2248  0.4582
24781W        W39912  16.686  13.348  11.753 -0.0706  0.1135 -0.0886
24782W        W39913  17.820  11.814   4.713  0.0666 -0.4010 -0.0848
24783W        W39914  17.689   0.436   1.894  0.1044  0.0185 -0.1551
24784W        W39915  16.190  14.194  14.427 -0.2250 -0.2397  0.0255
24785W        W39916   9.115   1.188  15.910  0.0514  0.1814 -0.1154
24786W        W39917  18.023   9.450  13.137 -0.0230  0.3833  0.2135
24787W        W39918   1.852   5.115   1.695 -0.0177  0.1387  0.1270
24788W        W39919   7.144   0.657   2.256  0.1202 -0.4378  0.0622
24789W        W39920  11.015   4.058   2.861 -0.2187  0.1005  0.0446
24790W        W39921   3.797  15.023   3.241  0.0834  0.1015 -0.1894
24791W        W39922  14.344  11.848  11.776 -0.3527 -0.0430  0.0841
24792W        W39923  10.776  10.887   1.706 -0.0975 -0.1551  0.4742
24793W        W39924   2.067   6.292   2.701  0.1572  0.1444  0.0789
24794W        W39925   0.553   7.518   0.074  0.0521  0.0612 -0.0840
24795W        W39926  11.831   1.627  16.028  0.3333  0.3861  0.0624
24796W        W39927   1.491  10.562  11.812 -0.1695 -0.0587 -0.2461
24797W        W39928  10.206  15.393   4.122 -0.2266  0.2049 -0.0947
24798W        W39929   5.610   5.353  14.559  0.2621 -0.2078 -0.1044
24799W        W39930   4.627   5.855  11.116  0.0312 -0.2530 -0.1383
24800W        W39931   8.200   6.799  14.300 -0.0325 -0.1811 -0.4115
24801W        W39932   5.406  18.356   4.262 -0.4187  0.4863 -0.1165
24802W        W39933   6.317   5.175   2.718  0.1046 -0.1840  0.0787
24803W        W39934  16.613   3.673  13.257 -0.3129 -0.1415 -0.3532
24804W        W39935   7.642   0.196  15.064 -0.1586 -0.1579 -0.2148
24805W        W39936  15.148   7.962  13.914 -0.0055  0.1480 -0.2244
24806W        W39937   0.942  14.955  12.928  0.2633  0.0746 -0.1505
24807W        W39938  17.814   9.705   2.879 -0.1083  0.2501  0.2731
24808W        W39939   9.845   1.046   1.035  0.2092 -0.0107  0.2398
24809W        W39940  15.344  13.059   0.372 -0.2196 -0.0664 -0.0069
24810W        W39941  17.107   3.889   2.630  0.0199 -0.2358 -0.1927
24811W        W39942  16.601  16.027  15.605 -0.2596 -0.2187  0.1427
24812W        W39943   8.777  11.152   3.496 -0.1002 -0.0139  0.0064
24813W        W39944  13.480   5.920  11.203 -0.0624  0.0217  0.3772
24814W        W39945   2.868   9.374   1.696  0.1603 -0.3123 -0.0185
24815W        W39946  12.032  12.997   2.556  0.1356 -0.1140 -0.0041
24816W        W39947  12.012  10.794   2.104 -0.1844 -0.0534  0.2651
24817W        W39948   2.065   7.869  11.470  0.0145 -0.2206  0.0566
24818W        W39949  13.730   4.202  15.749 -0.1372  0.0850 -0.0298
24819W        W39950   2.758  10.618  11.242  0.2532 -0.0485  0.0108
24820W        W39951   4.661   4.181  15.687 -0.1141  0.1713 -0.1675
24821W        W39952  11.350   9.274  13.144  0.1829  0.0671  0.0374
24822W        W39953   7.939  17.755  12.327 -0.2448  0.1952  0.0442
24823W        W39954  10.613  10.111   3.243 -0.2760  0.2421  0.1403
24824W        W39955   2.271  16.038   4.629  0.1236  0.1344  0.1631
24825W        W39956  11.421   2.438  11.590 -0.0916 -0.0107  0.4359
24826W        W39957   8.823  14.769  13.781 -0.1273  0.1030 -0.1573
24827W        W39958   8.520  15.156  12.052  0.0721  0.0776  0.1178
24828W        W39959  18.335   5.912   4.920  0.0793  0.2015 -0.1027
24829W        W39960  15.154   2.185   1.102  0.2827  0.0696  0.0829
24830W        W39961  14.292   4.828  10.966 -0.2834  0.1036 -0.0725
24831W        W39962   2.158  16.091   3.244 -0.1930 -0.2722  0.3656
24832W        W39963  17.482  11.203   4.546  0.0096  0.2356  0.0353
24833W        W39964   8.101  17.056   2.564 -0.0008  0.4152 -0.0856
24834W        W39965   7.809  12.229   1.742  0.0714 -0.1089 -0.1134
24835W        W39966  10.159  11.430   3.685  0.0859  0.0367  0.0970
24836W        W39967   5.682   1.808   3.399 -0.3686 -0.0101 -0.0042
24837W        W39968  10.018   2.779  12.110 -0.1125 -0.2437 -0.4863
24838W        W39969  14.825  12.316   2.261 -0.1823 -0.2038  0.1217
24839W        W39970   9.171  13.263  15.378 -0.2030  0.0918  0.3741
24840W        W39971   9.081   1.813   1.065 -0.0982  0.0738  0.2283
24841W        W39972   1.528  17.732  14.878  0.3361 -0.0227 -0.2932
24842W        W39973   2.376  14.383   1.876  0.3136 -0.0315 -0.2124
24843W        W39974   7.455   6.534   5.169 -0.0850 -0.0280  0.1114
24844W        W39975  15.826  14.843   0.481  0.0943 -0.2191 -0.1414
24845W        W39976   3.464   6.035  15.060  0.0226 -0.2989 -0.2532
24846W        W39977   6.283   6.129   0.478  0.1007  0.0449 -0.1067
24847W        W39978   5.573  10.684  14.254  0.0052  0.1291 -0.1739
24848W        W39979  10.803  13.638   2.983  0.0815 -0.0521  0.2272
24849W        W39980   1.229   8.071  11.310 -0.0679 -0.3901  0.0034
24850W        W39981   9.650   8.758   2.912 -0.0133  0.3094  0.1556
24851W        W39982  18.350   1.376   2.952 -0.1387 -0.0118  0.3207
24852W        W39983   2.771   7.732  13.149  0.0151 -0.0569 -0.0443
24853W        W39984  14.264   7.146  11.384  0.0332 -0.2671  0.0328
24854W        W39985  13.991  15.506  12.257 -0.2578 -0.0394  0.3561
24855W        W39986   4.515  13.953   1.428 -0.1245 -0.3613 -0.0010
24856W        W39987   0.373   4.513  14.529 -0.1665  0.1117  0.1564
24857W        W39988   7.124   8.527   0.642  0.1537 -0.1821 -0.1299
24858W        W39989   5.008  12.381   0.398 -0.1145  0.3153 -0.0795
24859W        W39990  10.075  10.380   3.308 -0.1086 -0.0581  0.0999
24860W        W39991  18.031  13.555  12.023  0.2378  0.2484  0.0799
24861W        W39992   5.513  17.594  12.417  0.3890  0.3033 -0.0878
24862W        W39993   7.785   6.566  15.510  0.0253  0.0105  0.1741
24863W        W39994   4.214  13.997   0.012 -0.1542  0.1627  0.0256
24864W        W39995   8.423   3.781  13.566  0.0924 -0.1910 -0.1691
24865W        W39996   2.603   1.329   1.824 -0.1951 -0.1205 -0.1285
24866W        W39997   5.022  14.798  14.769  0.1492 -0.0462 -0.0947
24867W        W39998  13.660   9.193   2.505 -0.2365 -0.0630  0.0038
24868W        W39999  17.473   9.661   4.984  0.1149 -0.3240  0.3557
24869W        W40000  14.253   9.359   4.692 -0.1753  0.3540  0.0386
24870W        W40001  17.562  13.235  10.727 -0.3859 -0.3614 -0.1432
24871W        W40002   7.585  10.565   2.080 -0.2936  0.3014  0.1266
24872W        W40003   2.116   7.535  10.529  0.2880  0.0933  0.1864
24873W        W40004  17.130   0.658   4.451  0.1961  0.0043 -0.0591
24874W        W40005   5.944  15.068  12.102 -0.3887 -0.1762  0.1835
24875W        W40006   8.263   2.791  15.936  0.2152  0.0331 -0.2319
24876W        W40007   5.745   5.639  15.690  0.0703  0.0694  0.0027
24877W        W40008  15.036  14.041  16.033  0.1101  0.0978  0.2127
24878W        W40009   4.174  12.773   4.733 -0.1388  0.2571  0.0968
24879W        W40010   6.013   7.078  12.955 -0.0539 -0.1420 -0.0983
24880W        W40011  14.548   3.653   3.121 -0.3170  0.0125  0.1757
24881W        W40012   7.644   2.439  11.000  0.1402  0.0055  0.1750
24882W        W40013  15.055   8.100  11.165 -0.2601 -0.0253 -0.3541
24883W        W40014   9.165   6.471   2.081 -0.1343  0.1281  0.0204
24884W        W40015   5.371   6.006   2.373  0.1793  0.3850 -0.2173
24885W        W40016  11.939  15.209   4.609 -0.1215  0.1769 -0.2536
24886W        W40017   5.056   5.140   4.747  0.0892  0.0569 -0.0403
24887W        W40018  16.427  13.947   1.742  0.1066 -0.0730  0.0954
24888W        W40019   9.730   7.578   5.263 -0.1476  0.2300  0.1093
24889W        W40020   9.344   3.644  15.069 -0.1455  0.1433  0.0412
24890W        W40021  17.779  11.521  11.201 -0.1716 -0.0485  0.4859
24891W        W40022  13.009  10.749   0.800 -0.0940 -0.0184 -0.0458
24892W        W40023   2.617  14.235  11.891 -0.0487 -0.1269  0.0135
24893W        W40024   3.620  18.292  15.559  0.1240 -0.3519 -0.0505
24894W        W40025   0.512  11.063   5.035  0.0574 -0.3440  0.0589
24895W        W40026   8.662   9.385  11.883 -0.2449 -0.1218  0.2247
24896W        W40027  11.352  16.386  15.253 -0.0251 -0.0941  0.1138
24897W        W40028   8.024   9.046   3.327 -0.0674 -0.0125 -0.0029
24898W        W40029  17.189  13.066  15.873 -0.2579 -0.1084  0.0808
24899W        W40030   1.116   1.146  11.159 -0.1360 -0.0083 -0.0871
24900W        W40031   6.662   3.438  12.613  0.1045  0.1631  0.2332
24901W        W40032  14.712  16.359  13.467  0.0124  0.0589  0.0872
24902W        W40033   2.352  16.577  11.253  0.1787 -0.0499  0.0465
24903W        W40034  15.706   6.892  15.634  0.4005  0.0922  0.0596
24904W        W40035  11.714  13.918  11.905  0.0625 -0.7956 -0.0646
24905W        W40036   7.257   0.013  13.841  0.1824 -0.1419 -0.1072
24906W        W40037  11.445   5.174  14.993  0.1120  0.1736 -0.2576
24907W        W40038  16.928  17.014  15.395 -0.1182 -0.0021 -0.1344
24908W        W40039  11.108  13.962  10.053 -0.0859 -0.0130 -0.0882
24909W        W40040  13.229   8.524  10.865 -0.0720 -0.3012 -0.0166
24910W        W40041   6.758  13.850   0.691 -0.1876  0.5157  0.0376
24911W        W40042   0.921   9.356   3.783  0.0385 -0.1252  0.2727
24912W        W40043   1.776  14.347   0.501  0.2190 -0.3126 -0.0160
24913W        W40044  13.799  12.983   4.043 -0.3018 -0.2569  0.0524
24914W        W40045   0.936  12.650  15.521  0.0949 -0.1068 -0.0504
24915W        W40046  10.919   7.457  11.227 -0.0440 -0.0268  0.3005
24916W        W40047   7.415   6.105  15.543  0.1712  0.2638  0.4122
24917W        W40048  11.931   5.283  13.346 -0.0674  0.2140 -0.0861
24918W        W40049   2.332  10.020  12.372  0.0751 -0.0993  0.0066
24919W        W40050   8.593  11.898  12.357  0.0001 -0.2295 -0.4070
24920W        W40051  12.087   1.518  12.976  0.1203  0.1751  0.2262
24921W        W40052  16.026  11.493  11.427 -0.2652  0.2245 -0.0176
24922W        W40053   0.049   3.304   4.216  0.0392 -0.2579  0.2550
24923W        W40054  17.496   9.538  16.035 -0.2298  0.1245 -0.0479
24924W        W40055   8.500   3.699   2.039  0.0539 -0.0016 -0.0978
24925W        W40056  15.551  17.872  14.460 -0.1048  0.0783 -0.0610
24926W        W40057   2.853   6.491   1.757 -0.0846 -0.0245 -0.1298
24927W        W40058   3.867   7.358  11.552  0.2277  0.0141  0.1147
24928W        W40059  18.178   2.211  10.271  0.1111 -0.1104  0.2081
24929W        W40060  15.622   6.577  11.072  0.2366 -0.0326  0.0131
24930W        W40061   2.547  10.561   5.659  0.4394 -0.1431  0.1817
24931W        W40062   8.570   6.517   1.259  0.2881  0.0026 -0.0780
24932W        W40063  14.898  13.136   1.373  0.1640  0.1269  0.0185
24933W        W40064   2.002   8.595  14.963 -0.0478  0.1395 -0.0803
24934W        W40065   8.458  18.001   2.855 -0.0762  0.1403  0.0998
24935W        W40066   8.814  14.058  11.786 -0.0250 -0.2038  0.6539
24936W        W40067   3.094   6.321   2.180 -0.0870  0.1346  0.1340
24937W        W40068   1.729  11.619   5.309 -0.0108 -0.0370 -0.3533
24938W        W40069   2.507  12.437   1.541 -0.0260  0.0061 -0.2381
24939W        W40070   2.687   8.311  12.975 -0.1787  0.1390 -0.1532
24940W        W40071  12.232   2.014   0.821  0.3646 -0.0861  0.0989
24941W        W40072   5.293  15.772   0.741 -0.1070  0.0391 -0.1139
24942W        W40073   6.713  14.224  15.254 -0.3097 -0.2114  0.2243
24943W        W40074   6.677   5.596   2.762 -0.1495  0.3968  0.2582
24944W        W40075   3.230   4.995  11.521  0.1764  0.0479 -0.0940
24945W        W40076   1.397  17.364  11.867  0.2196  0.3496 -0.0748
24946W        W40077   5.054   3.240  12.321  0.4730  0.1489  0.1265
24947W        W40078   0.903   5.560   1.113  0.2141 -0.0187  0.0488
24948W        W40079  14.579  16.823   4.570 -0.1839  0.1785 -0.0896
24949W        W40080  13.427  15.863   0.117  0.1848  0.2449 -0.0023
24950W        W40081   0.645  13.576  12.841  0.0950  0.2443 -0.0911
24951W        W40082  18.206  14.307   5.422  0.1960 -0.2403  0.0801
24952W        W40083   5.619   8.186   3.017 -0.1168 -0.1036  0.1520
24953W        W40084   6.842   4.969   5.348  0.0682  0.0225  0.1862
24954W        W40085   7.977   5.842   2.357 -0.1559 -0.1115 -0.1286
24955W        W40086   5.356   6.861   2.439 -0.0403  0.3466 -0.0387
24956W        W40087   8.691   1.745  15.337  0.2077 -0.0359 -0.0222
24957W        W40088   5.721  18.277   3.474  0.1500 -0.1371 -0.3623
24958W        W40089  11.087  12.723   3.945 -0.2160 -0.0120  0.1205
24959W        W40090  10.052  18.231  14.135  0.0783  0.3143 -0.0873
24960W        W40091   3.555   5.139   2.877 -0.2043 -0.0029 -0.1680
24961W        W40092  14.675   0.706  15.605  0.1941 -0.0261 -0.4830
24962W        W40093  13.037  16.718   3.270 -0.0757 -0.0861  0.2017
24963W        W40094  10.468  12.397   1.788 -0.2967  0.1672  0.0219
24964W        W40095  11.338   0.847   1.739  0.0397 -0.1976 -0.2816
24965W        W40096  11.423   8.479   5.245  0.0044 -0.2141 -0.0591
24966W        W40097  12.150   9.263  11.726 -0.0142  0.1240  0.2888
24967W        W40098  12.315  12.160   5.561  0.1673  0.0451  0.2500
24968W        W40099   8.297   0.578   5.659  0.3473  0.2025 -0.0651
24969W        W40100   8.351  12.198   1.657 -0.0476 -0.2549  0.0861
24970W        W40101  17.096   1.065   3.179  0.3425  0.1401 -0.1565
24971W        W40102   4.149   6.835  13.715  0.0071  0.0067 -0.0452
24972W        W40103   4.381   4.037   4.204 -0.2238  0.2325 -0.2991
24973W        W40104  17.542  13.200   1.038  0.0309 -0.0507 -0.1650
24974W        W40105   2.199  10.737  15.582  0.0115 -0.0969 -0.0557
24975W        W40106   1.138   6.651  10.633 -0.2398  0.0120  0.1290
24976W        W40107   6.497   9.483  14.042  0.1278  0.1345 -0.0329
24977W        W40108   7.268   7.984  11.992 -0.0715  0.3273  0.0065
24978W        W40109   7.014  17.357  14.715 -0.0372 -0.0642  0.1838
24979W        W40110   6.510  13.463   1.535 -0.1008  0.0442  0.0577
24980W        W40111   5.645   1.904   1.071 -0.0287  0.1368  0.1526
24981W        W40112   7.843   2.494  12.018 -0.2655 -0.0069  0.1801
24982W        W40113  16.020  11.300  12.441 -0.0794  0.4144 -0.0071
24983W        W40114   6.745   3.868  12.950 -0.1751  0.1908  0.1938
24984W        W40115   6.088   1.635   5.528 -0.0817  0.0741  0.2677
24985W        W40116  14.385  10.542   3.435  0.1922  0.0712  0.1463
24986W        W40117  10.759  18.293  14.401  0.0259 -0.4340 -0.1359
24987W        W40118  10.399  11.665   0.903  0.2717 -0.3760  0.1170
24988W        W40119   9.451   4.094   4.498 -0.4726 -0.1687  0.2900
24989W        W40120  14.682   6.871  15.485  0.2650 -0.0800  0.1788
24990W        W40121   5.048   8.280  13.888  0.1576  0.0236  0.2179
24991W        W40122  10.206  12.236  15.642  0.1599 -0.3977  0.2750
24992W        W40123  18.169  16.733  11.181  0.1559  0.0760  0.0454
24993W        W40124   9.707  15.056   4.729  0.0671  0.1047  0.0791
24994W        W40125  11.886  10.114   3.202  0.1987 -0.1101 -0.1011
24995W        W40126   5.509  13.048   1.688  0.3023 -0.0506  0.0836
24996W        W40127  14.932  15.948   3.566 -0.0630 -0.3071  0.2085
24997W        W40128  15.281  13.018  15.362  0.1239  0.0076 -0.0927
24998W        W40129  10.888  10.784   3.865  0.1441  0.1419  0.2384
24999W        W40130   7.905  16.914   2.091  0.3550 -0.0247 -0.1433
25000W        W40131  17.199   0.120  15.931 -0.0460 -0.1425  0.0840
25001W        W40132   7.322   9.075  12.188 -0.2374  0.1641 -0.0340
25002W        W40133   7.951   2.966  13.024 -0.5096 -0.1372  0.0907
25003W        W40134   1.632  10.030  13.588 -0.0046  0.1493  0.1108
25004W        W40135  10.719   9.013  14.460 -0.2515 -0.2429 -0.0414
25005W        W40136   1.155  14.494  14.379  0.2239 -0.1321  0.2104
25006W        W40137  16.126  16.070  12.611  0.4446 -0.0270 -0.1856
25007W        W40138  14.968   2.395  11.246  0.4648 -0.0071  0.0729
25008W        W40139   8.731  15.927  15.452 -0.3008 -0.1502 -0.2578
25009W        W40140   3.106  15.890  12.988 -0.0063 -0.1288 -0.0962
25010W        W40141  15.206  11.940  15.587  0.1634 -0.2119  0.3599
25011W        W40142   1.242   6.424   1.917 -0.1808  0.1716 -0.1069
25012W        W40143   7.272  11.545  12.102 -0.0062 -0.0711  0.0619
25013W        W40144   8.868  15.825   1.666  0.2291 -0.0874  0.1170
25014W        W40145   7.250   6.802   1.977 -0.1772 -0.1540  0.0101
25015W        W40146   4.138   1.420   5.208 -0.0561 -0.2230 -0.1997
25016W        W40147  13.789   1.629  13.566  0.2091 -0.2802  0.0853
25017W        W40148  13.657   7.497  12.502  0.1438 -0.1468  0.0477
25018W        W40149   6.390  13.167  12.520  0.2566  0.1575 -0.0787
25019W        W40150   7.921   2.779   0.313 -0.0984 -0.2527  0.2577
25020W        W40151   9.751   1.505  15.306  0.3516  0.1493 -0.0254
25021W        W40152   1.199   7.241   1.036  0.2994 -0.0931  0.3049
25022W        W40153   2.370   6.496  12.374  0.0824 -0.0493 -0.1079
25023W        W40154  11.585   4.252  12.581 -0.1833  0.1250 -0.1875
25024W        W40155   5.632  10.234   1.554 -0.0340  0.1990  0.1028
25025W        W40156   0.041  16.677  11.735 -0.0528 -0.2623 -0.2338
25026W        W40157   3.956   4.377  11.629  0.0850 -0.0581 -0.0006
25027W        W40158   7.964  14.767  12.442  0.2425 -0.1199 -0.1403
25028W        W40159  14.693  15.114  14.238 -0.2042 -0.0896 -0.1490
25029W        W40160  17.342  16.716   2.405 -0.0560 -0.1023 -0.3974
25030W        W40161   8.474   9.726   3.293 -0.2517  0.0374  0.3561
25031W        W40162  14.388   2.788  10.734 -0.2773 -0.1513  0.0851
25032W        W40163   6.862   6.049  10.789 -0.1989  0.1268  0.1018
25033W        W40164  15.311  13.900  15.597 -0.2419 -0.1564  0.0872
25034W        W40165   2.709  13.807   3.827 -0.3119  0.0737  0.2046
25035W        W40166  11.593   3.555  15.149 -0.3355  0.1628 -0.1575
25036W        W40167   5.638  13.857   5.958  0.2581 -0.1965  0.0223
25037W        W40168   1.079   1.864   2.795 -0.1130  0.1631  0.1558
25038W        W40169  11.412   7.250   1.506 -0.2048  0.2881  0.1711
25039W        W40170   2.209   8.132   4.429  0.1158  0.0875  0.1727
25040W        W40171  16.728  12.896  10.995  0.1591 -0.0081  0.2026
25041W        W40172   5.792   7.380  11.256 -0.0197 -0.0753 -0.4189
25042W        W40173   9.379  17.018   0.879  0.1116 -0.4119  0.3997
25043W        W40174   8.923  15.813   4.580 -0.0385 -0.1445 -0.3835
25044W        W40175   2.865   9.848   1.173  0.0618 -0.0130  0.0928
25045W        W40176   9.630   5.578   2.497 -0.2495  0.0093 -0.0546
25046W        W40177  17.629   3.638  12.819  0.0589  0.0663 -0.3660
25047W        W40178   4.803   9.152   3.738  0.1802  0.0057 -0.3310
25048W        W40179   6.392  14.763  15.740  0.2376  0.0987  0.1038
25049W        W40180   6.830   3.759  15.060 -0.1111 -0.0510  0.1816
25050W        W40181   6.857   8.718   1.045 -0.0856  0.0102 -0.2538
25051W        W40182  17.956   3.050   4.339 -0.0916 -0.1732  0.1037
25052W        W40183   6.575  11.469   1.525  0.2216  0.2596 -0.1475
25053W        W40184   7.127   0.557  14.318  0.0433  0.1055  0.0998
25054W        W40185  17.585   7.454   4.458 -0.1612  0.2613 -0.0945
25055W        W40186   8.090  11.041   2.972 -0.2372 -0.2904 -0.2673
25056W        W40187   6.614   1.696   4.297 -0.1957  0.2012 -0.1410
25057W        W40188   3.378   6.616   3.365  0.2778 -0.3845 -0.1315
25058W        W40189  10.652   6.504   1.067  0.1016  0.0878  0.1617
25059W        W40190  13.796  17.538  12.069  0.0758 -0.1628  0.2085
25060W        W40191   7.442   8.225   3.775 -0.2647  0.3911 -0.0671
25061W        W40192   4.531  16.518   3.213 -0.1423 -0.0942  0.1604
25062W        W40193   0.619  11.007  14.808  0.0370 -0.0645 -0.1503
25063W        W40194   2.500  17.406  12.756 -0.2025  0.1639  0.0422
25064W        W40195   2.810   5.951  12.960 -0.1574  0.2239  0.0455
25065W        W40196  17.560   5.044   0.826 -0.1110  0.0368 -0.2807
25066W        W40197  12.196   1.646  11.479  0.1458  0.1308 -0.0355
25067W        W40198  12.147   7.986   3.229 -0.4225 -0.3053  0.3114
25068W        W40199  11.732   4.585   0.887 -0.1910  0.2111 -0.4595
25069W        W40200  10.699   7.763   5.006 -0.3321 -0.1866 -0.3942
25070W        W40201   8.946  15.636   3.718  0.2690 -0.0029  0.1308
25071W        W40202  15.595  13.536   1.496  0.0952 -0.2178 -0.0380
25072W        W40203   1.829  16.567  13.446 -0.1678 -0.1175 -0.1856
25073W        W40204   5.344  14.405  11.264  0.0154  0.3181  0.1811
25074W        W40205   9.913   9.000  10.931 -0.0671  0.2037 -0.0947
25075W        W40206   1.287  17.630   5.049  0.2984 -0.1271 -0.0924
25076W        W40207   6.248  13.757   4.727  0.2054 -0.0138  0.1942
25077W        W40208   9.464   3.689   4.887 -0.2402  0.1048  0.1322
25078W        W40209  12.456   6.134   4.912  0.0741 -0.1298 -0.0818
25079W        W40210   5.414  13.230  10.735 -0.1297  0.2644  0.4678
25080W        W40211   9.457   7.343  10.166 -0.0067 -0.2705  0.0287
25081W        W40212  17.298  11.020  13.328 -0.1623  0.2921  0.2701
25082W        W40213   5.093   9.758  15.008  0.1866  0.1031  0.2527
25083W        W40214  18.237  12.063   1.348 -0.0581  0.2160 -0.2322
25084W        W40215  13.445   3.045   0.654 -0.1427 -0.1453 -0.2696
25085W        W40216  17.743  11.973   3.365  0.0358  0.2824 -0.3514
25086W        W40217  14.348   1.108  13.176 -0.3582 -0.1721  0.0131
25087W        W40218   4.238   4.754  11.769  0.1514  0.0715 -0.3634
25088W        W40219   5.288  10.238  12.190  0.2272 -0.3394  0.2691
25089W        W40220  12.201  13.976   1.802  0.0028  0.1111  0.1768
25090W        W40221  14.015   1.708   0.310  0.2362  0.0258  0.0592
25091W        W40222  14.416   1.919  16.120 -0.2876  0.0124  0.0434
25092W        W40223   5.513   7.895   5.797  0.4679 -0.2282 -0.0723
25093W        W40224  14.467  18.294  10.106 -0.1663  0.0094  0.0241
25094W        W40225   4.082  10.948  14.031 -0.3297 -0.0022  0.0573
25095W        W40226  14.485  14.414  13.793  0.1750  0.0523 -0.0839
25096W        W40227  10.537   1.852   5.549 -0.2533  0.2653  0.0280
25097W        W40228   7.988   5.080  14.790  0.1804 -0.0662  0.1578
25098W        W40229  11.405   1.358  15.753  0.1628 -0.2872  0.2350
25099W        W40230  13.344  18.344   2.143  0.7145 -0.0842  0.3215
25100W        W40231   6.840   0.128  14.612  0.2573 -0.0912 -0.0166
25101W        W40232  11.236   4.471   3.768 -0.0160 -0.0422 -0.1589
25102W        W40233   3.962   4.815  15.826  0.2947 -0.0339  0.0294
25103W        W40234   7.644   7.752   2.301 -0.1748  0.0720  0.2839
25104W        W40235   1.887   9.715   5.918 -0.0091 -0.1102 -0.3825
25105W        W40236  14.704   1.295  12.077  0.1610 -0.0935 -0.0425
25106W        W40237  14.316  10.255  12.626  0.2848 -0.1330 -0.0714
25107W        W40238   6.019   1.415  14.607 -0.0086  0.2588  0.2009
25108W        W40239   1.451   8.049   1.688 -0.4604 -0.0026  0.0796
25109W        W40240  12.923   4.164  14.199  0.1771 -0.0983 -0.0235
25110W        W40241   8.729   0.558   1.353  0.0532  0.0299  0.0074
25111W        W40242   1.240  14.420  10.691  0.4031  0.1176 -0.2107
25112W        W40243   8.760   8.084   4.169 -0.4130 -0.2907  0.1429
25113W        W40244  12.111  14.511   0.019 -0.1096  0.1483 -0.0877
25114W        W40245  10.222  17.047  10.206 -0.1237 -0.2562 -0.0721
25115W        W40246  15.419  15.416  15.912 -0.3725 -0.0407 -0.1136
25116W        W40247   6.516  11.676  14.734  0.0390  0.0409  0.0542
25117W        W40248  15.663   1.188  12.305 -0.1836  0.1644 -0.2650
25118W        W40249  17.014  12.103  11.633  0.3121  0.3209  0.3686
25119W        W40250  13.408  17.903   0.608 -0.1354  0.1856 -0.3015
25120W        W40251  11.271   4.975  11.697  0.0511 -0.0930  0.2577
25121W        W40252  11.918   4.701  10.697  0.3332 -0.1317 -0.3239
25122W        W40253  17.293  14.064  14.654 -0.1656 -0.1694 -0.5353
25123W        W40254  17.200  17.795   3.562  0.2879 -0.4733 -0.3143
25124W        W40255  12.691   2.711  11.432 -0.2628 -0.0828  0.0161
25125W        W40256   8.831   9.436   3.751 -0.4188 -0.2228 -0.1800
25126W        W40257   5.712  18.030   2.984  0.0234 -0.2466  0.2336
25127W        W40258  13.835   5.176   4.198  0.1831 -0.1345  0.1193
25128W        W40259   0.248   7.533  11.574 -0.0511  0.2173 -0.3031
25129W        W40260   0.357   5.603  10.698  0.0387 -0.2268  0.1990
25130W        W40261  15.985   2.756   0.466  0.1588 -0.1951  0.0316
25131W        W40262   7.860   6.458  12.499  0.3031  0.2356  0.2219
25132W        W40263  13.985  18.344  12.970  0.2230 -0.0293  0.1764
25133W        W40264  15.031   5.066  15.839 -0.4236 -0.5490 -0.1516
25134W        W40265  17.710  14.097   3.947  0.2762  0.1226 -0.0361
25135W        W40266   2.938  12.403  15.735 -0.5451  0.1936  0.1103
25136W        W40267   2.002  14.479  11.116 -0.2505 -0.1047  0.0746
25137W        W40268  10.945  10.651   1.174 -0.0768 -0.0385  0.0871
25138W        W40269   6.851  10.571   4.554 -0.0232 -0.0141  0.2456
25139W        W40270   7.723  14.488   0.779 -0.6557  0.3316  0.4094
25140W        W40271  12.461   2.080  14.891  0.0752 -0.0665 -0.0026
25141W        W40272  10.290   2.592  12.498  0.1221  0.1933  0.1112
25142W        W40273   1.446  17.577  12.324  0.4165  0.2685 -0.0918
25143W        W40274   8.695  13.211  14.990 -0.1083 -0.3775  0.3149
25144W        W40275  10.590  17.032   0.652 -0.1252 -0.0073 -0.1500
25145W        W40276  18.049   5.536   3.937 -0.1451 -0.2397  0.1267
25146W        W40277   5.339   7.013  13.920  0.0642  0.1500  0.0686
25147W        W40278  15.935  10.278   1.786  0.2121 -0.0257  0.2423
25148W        W40279   0.835  16.367   0.323 -0.0323  0.1936 -0.0743
25149W        W40280  16.906   1.802   1.818 -0.1482  0.2955 -0.2061
25150W        W40281   7.036   7.904   2.222 -0.0403 -0.1952 -0.1238
25151W        W40282  14.473  12.392   5.371  0.1515  0.3196  0.0273
25152W        W40283   2.426   8.527   0.660  0.1994 -0.0860  0.0510
25153W        W40284  11.046  13.250   2.729 -0.1202  0.0772  0.2083
25154W        W40285  15.008   4.449   5.380 -0.2984 -0.1243 -0.2412
25155W        W40286  12.562  16.778   0.775  0.0922 -0.1708  0.0311
25156W        W40287   8.851  12.615  10.321  0.0268  0.1606 -0.2191
25157W        W40288   3.343  17.391  15.239 -0.1357 -0.0511 -0.1293
25158W        W40289  16.344   2.615   2.564 -0.1132 -0.0363 -0.0172
25159W        W40290  14.631   1.673  10.896  0.1211  0.1626 -0.2319
25160W        W40291  13.987   6.046   4.532 -0.0982 -0.0525 -0.1027
25161W        W40292  14.864  11.286  16.141 -0.1708  0.0854  0.1974
25162W        W40293  13.507   9.341   1.609  0.1236 -0.2488 -0.1167
25163W        W40294  10.630  11.699  13.584 -0.3025 -0.2067 -0.1281
25164W        W40295   7.679  10.966  10.904 -0.0406 -0.0840  0.0035
25165W        W40296   6.877   6.337   3.310  0.0194  0.0091  0.0449
25166W        W40297   8.605  11.096  12.098 -0.0238 -0.0713  0.0452
25167W        W40298   3.378  11.460   2.946  0.1323  0.0052  0.3536
25168W        W40299   1.722   0.749  14.947 -0.2759 -0.1807 -0.1018
25169W        W40300   3.548  12.566  14.214  0.0450 -0.1369  0.3902
25170W        W40301   7.587  13.063  13.283 -0.2803  0.0090 -0.0454
25171W        W40302   8.581  18.235   2.044 -0.0717  0.2386  0.1051
25172W        W40303  10.684   2.024  13.807 -0.3671 -0.3474  0.2551
25173W        W40304  13.339   6.740   1.560 -0.0641 -0.2883  0.2683
25174W        W40305  11.011   2.790  11.864  0.2120  0.0895 -0.0030
25175W        W40306   6.270  11.870  11.706  0.0961 -0.1236  0.2487
25176W        W40307   4.399   7.837   4.732 -0.1787  0.0259  0.2347
25177W        W40308   9.996  17.270  14.501  0.3074  0.4449 -0.1531
25178W        W40309   2.114   1.786  11.454  0.3154  0.0668  0.1193
25179W        W40310  13.221   8.729  11.363 -0.2016  0.1308 -0.0680
25180W        W40311   8.691   5.409   3.348 -0.0493  0.2419 -0.1254
25181W        W40312   7.881   6.622  13.750 -0.1752 -0.0476 -0.0318
25182W        W40313  15.032   6.708   5.424  0.2673 -0.1653 -0.0071
25183W        W40314   8.635   3.755   2.620 -0.0521 -0.2881  0.1692
25184W        W40315   2.661   6.310   0.428 -0.0302  0.0771 -0.0585
25185W        W40316   8.111  17.422  14.476 -0.0477  0.0143 -0.1482
25186W        W40317  13.426   4.578  11.469 -0.2765  0.0361  0.0461
25187W        W40318   4.950   4.629   0.960 -0.3268  0.0853 -0.2229
25188W        W40319   2.479  16.847   6.259 -0.0112 -0.0488  0.2247
25189W        W40320   4.548   1.770  12.277 -0.0184  0.1429  0.0319
25190W        W40321  13.285   7.187   3.082 -0.4226  0.2862 -0.1125
25191W        W40322   1.470   7.573   3.716 -0.2713  0.3655 -0.0411
25192W        W40323  16.743   3.788   4.607 -0.3231 -0.4331 -0.0494
25193W        W40324  10.626   4.139   0.403  0.2006 -0.3046 -0.0668
25194W        W40325  15.042   8.467  11.591 -0.0197  0.2322  0.0908
25195W        W40326   1.379  11.779   0.301  0.1823  0.1779 -0.2214
25196W        W40327  18.317  16.911   2.400 -0.0880 -0.4156  0.0696
25197W        W40328   4.981  17.925   3.403  0.0687 -0.2275  0.1579
25198W        W40329   5.064  16.041   1.534 -0.1162 -0.0048 -0.2045
25199W        W40330   3.604   3.210  15.253 -0.0480 -0.0244  0.0285
25200W        W40331   3.319   2.077  13.291  0.2773  0.0263 -0.3829
25201W        W40332  12.087   5.107  11.060 -0.2582  0.0219 -0.1480
25202W        W40333   0.164   6.208   1.882  0.0088 -0.0841 -0.2169
25203W        W40334   7.359  15.512  12.295 -0.1968 -0.2108  0.2144
25204W        W40335  16.065   3.533  12.687 -0.0230  0.1371 -0.3065
25205W        W40336  14.615   7.347  15.561  0.2623 -0.0571 -0.1009
25206W        W40337  18.261  11.615  13.115  0.2100  0.1580  0.0641
25207W        W40338  12.601   0.768   0.976  0.1288 -0.1893 -0.0267
25208W        W40339   6.667  11.944  11.405  0.0103 -0.3116  0.0160
25209W        W40340   2.985  13.481  11.390 -0.1338 -0.0613 -0.2362
25210W        W40341  15.025   6.461   3.379  0.1460  0.0670 -0.1829
25211W        W40342   8.066   5.188   4.823  0.0822  0.3849  0.1667
25212W        W40343  11.971   3.308  15.405 -0.1360 -0.1295 -0.1771
25213W        W40344   0.353   4.088   3.893  0.0387 -0.0749 -0.0003
25214W        W40345   4.582   0.837  14.616 -0.2076 -0.0677 -0.0242
25215W        W40346   3.853  17.433   1.941  0.0451 -0.1283  0.1050
25216W        W40347  15.565   8.684  13.042 -0.0712 -0.0144 -0.2416
25217W        W40348   8.617   8.557  16.007  0.1152 -0.0706  0.0066
25218W        W40349   3.304   0.143   5.158 -0.0001  0.0647 -0.4059
25219W        W40350   2.350  12.828  13.215  0.0461 -0.1702  0.1112
25220W        W40351  18.276  16.169  11.724 -0.4036  0.1665 -0.0687
25221W        W40352   9.914  18.050   2.772  0.3360 -0.4530 -0.2186
25222W        W40353   5.936   2.261  11.744 -0.3307 -0.3736 -0.0456
25223W        W40354   1.689   6.055   2.956  0.0445 -0.2252 -0.1694
25224W        W40355   8.011   7.555   0.078  0.0761  0.1809  0.3064
25225W        W40356  13.151  12.585  13.418  0.1246  0.0621  0.0161
25226W        W40357  13.171   4.227   0.273 -0.0214  0.1750 -0.2620
25227W        W40358   7.198   4.389   1.947 -0.1511 -0.0666 -0.2320
25228W        W40359  12.778   8.105  11.899  0.0684  0.1380  0.1438
25229W        W40360   8.138  14.956   2.215  0.2279  0.1373 -0.4023
25230W        W40361  13.277   1.764  14.438 -0.2496 -0.0359 -0.3418
25231W        W40362   3.736  11.112  14.442  0.2572  0.1011 -0.1586
25232W        W40363  16.203  10.842   4.505 -0.0306 -0.1533 -0.0313
25233W        W40364   9.988   2.826  10.246 -0.1227  0.2011  0.1152
25234W        W40365  11.298   7.555  15.176 -0.1054  0.2772  0.0872
25235W        W40366   4.802   4.383  13.089 -0.1904  0.0802  0.1171
25236W        W40367  14.731   4.426   4.976  0.1194 -0.3478 -0.1025
25237W        W40368   9.991  16.610   0.134 -0.1636  0.4282 -0.0454
25238W        W40369  11.308  11.003   3.221 -0.0805 -0.2940  0.0841
25239W        W40370   4.596  14.965  14.485 -0.1934  0.0157 -0.0210
25240W        W40371   1.536   4.931  13.824  0.0737  0.1761 -0.0044
25241W        W40372  15.534  14.846  11.740  0.3501  0.0703  0.2658
25242W        W40373   1.856   7.901  14.597 -0.1292 -0.1944  0.0862
25243W        W40374   7.732  12.838   2.427 -0.3530  0.1635 -0.0430
25244W        W40375  13.144   9.490  11.916 -0.0778  0.0513 -0.0990
25245W        W40376   1.671   8.985   2.545 -0.0080 -0.0716 -0.0972
25246W        W40377   2.374  11.200   4.575  0.1808 -0.3865  0.1975
25247W        W40378   2.377  17.668  13.956 -0.0491 -0.1505 -0.3127
25248W        W40379  17.542   9.685  11.410 -0.2685 -0.1639 -0.0589
25249W        W40380   8.001   5.185  13.674  0.2550  0.1879 -0.1591
25250W        W40381   3.521   8.577  13.550 -0.4936  0.3147  0.1169
25251W        W40382   3.924  13.708   3.515  0.1570 -0.2910 -0.1109
25252W        W40383   9.367   7.873  13.631  0.1617  0.1800  0.2098
25253W        W40384   8.692  10.885  12.550  0.1327  0.1881  0.3733
25254W        W40385   0.824   1.132   0.961  0.3549 -0.4641  0.2877
25255W        W40386   8.033   1.137  12.539  0.1823  0.1586  0.3371
25256W        W40387   1.270   0.797   1.683  0.2620 -0.1868  0.2605
25257W        W40388  15.664   9.627   3.446  0.2982  0.2651  0.2729
25258W        W40389   4.849   3.259   2.752 -0.0702  0.0522  0.0961
25259W        W40390  12.503  16.008   3.737 -0.0268 -0.0153 -0.1305
25260W        W40391   9.133   4.968   2.112 -0.1083 -0.0602  0.1185
25261W        W40392   2.847   0.209  11.121  0.0595  0.1763 -0.2911
25262W        W40393  13.194   3.792  11.153 -0.0131 -0.2020  0.1039
25263W        W40394  15.323   5.534   1.774  0.1348 -0.0121 -0.0187
25264W        W40395   7.208   4.182  11.160  0.0909  0.0272  0.0147
25265W        W40396   7.007  12.213  11.079 -0.1353  0.1185  0.0411
25266W        W40397   6.144   0.136  11.008 -0.2854 -0.3151  0.0136
25267W        W40398  12.612   8.247   5.173 -0.1081 -0.1528 -0.2267
25268W        W40399   4.765   6.913  11.251 -0.0114  0.1421  0.4920
25269W        W40400  14.129   5.856  11.924  0.0856 -0.0597  0.1630
25270W        W40401  15.476   6.758   3.519  0.0713 -0.4712  0.1394
25271W        W40402  16.099  10.357  14.445 -0.1765 -0.0935  0.2954
25272W        W40403   0.237  14.798   1.621 -0.1575  0.0258  0.0310
25273W        W40404  14.372   4.016   4.058  0.0744  0.1526  0.0372
25274W        W40405  10.195   0.170  13.122  0.2155  0.1378 -0.2252
25275W        W40406   1.478   3.252  15.346  0.3241 -0.2544  0.2184
25276W        W40407   0.764   9.484   3.231  0.2451  0.0789  0.0698
25277W        W40408  16.094  14.863  14.998  0.2198 -0.6068  0.0433
25278W        W40409   9.657   9.358  14.936  0.0923 -0.1718 -0.2327
25279W        W40410   4.896   4.799   5.145 -0.3555 -0.1092  0.0304
25280W        W40411  15.005  13.222   4.766 -0.1623  0.3279 -0.0889
25281W        W40412  13.614   5.368  11.180  0.1398 -0.2980  0.1007
25282W        W40413  14.316   5.639  14.330  0.2116  0.2204  0.1397
25283W        W40414   6.105   2.318   1.717  0.1285 -0.2803 -0.0475
25284W        W40415  14.067  15.960  11.933  0.0033  0.1619 -0.1091
25285W        W40416   3.445   3.090   2.575 -0.2623  0.2044  0.0153
25286W        W40417  12.783   7.266  11.336 -0.0459  0.2455 -0.0765
25287W        W40418   5.189  16.893  14.449 -0.2175 -0.0235  0.0405
25288W        W40419  13.944   4.723  12.699 -0.1835 -0.2486  0.0463
25289W        W40420  10.002  10.744  15.894  0.1122 -0.2685 -0.2781
25290W        W40421   2.005  12.298  10.057 -0.0817  0.2269 -0.0183
25291W        W40422   2.211  12.027   1.427 -0.0419  0.1745 -0.1814
25292W        W40423   9.191   5.436  13.415 -0.2117  0.3811  0.3766
25293W        W40424   3.102  17.679   9.809 -0.1498  0.2083  0.2989
25294W        W40425   9.792   1.006  12.590 -0.0849 -0.2936  0.1068
25295W        W40426  17.633  11.779   5.262  0.0325  0.1482  0.8061
25296W        W40427  10.371  11.402   4.285 -0.2565  0.2664 -0.0870
25297W        W40428   5.905  11.183   3.691 -0.3636 -0.0429  0.0044
25298W        W40429  18.308   0.615  14.273  0.0477  0.4551 -0.4506
25299W        W40430   8.758  10.310  12.497  0.1556  0.0787  0.5204
25300W        W40431   8.585  13.126   3.666  0.1457  0.3228  0.0807
25301W        W40432  11.692  13.690   2.795 -0.0857 -0.2282  0.2305
25302W        W40433   0.721  17.426  13.912 -0.2085 -0.1657 -0.5655
25303W        W40434   3.480  14.541   0.262 -0.0361  0.2283 -0.0013
25304W        W40435  13.937   5.569  12.762  0.0894  0.0681 -0.0780
25305W        W40436   0.808   6.692   1.700 -0.1102  0.4035  0.1177
25306W        W40437  10.332  14.030   2.597 -0.3673  0.1032 -0.1416
25307W        W40438  14.666   4.104  12.576 -0.3129  0.1084 -0.2875
25308W        W40439  17.292  14.937  11.796 -0.2943 -0.1289  0.0010
25309W        W40440   1.076  11.961   5.902 -0.3971  0.0355  0.0634
25310W        W40441   5.679   3.085  15.433 -0.3147  0.0978 -0.2631
25311W        W40442  10.291   6.623  10.040 -0.3016 -0.0620 -0.2152
25312W        W40443   5.548   2.828  13.967 -0.1528  0.0951  0.0126
25313W        W40444  12.650  13.000  14.774 -0.0214  0.2192  0.1093
25314W        W40445  13.608  10.400   5.463  0.3800 -0.1804 -0.2004
25315W        W40446   1.836  12.146   2.469  0.0063 -0.1245 -0.1335
25316W        W40447   1.293   0.677  11.055  0.0766  0.1514  0.0295
25317W        W40448   9.411  11.146  15.991 -0.0697 -0.1448  0.0347
25318W        W40449  15.109  12.009   4.283  0.2079 -0.3404  0.2276
25319W        W40450   6.953   6.227  12.611 -0.1572 -0.2828  0.0113
25320W        W40451   3.059   1.849   3.963  0.2403 -0.0503 -0.1407
25321W        W40452  13.827   5.923   0.008  0.0337 -0.1513  0.0154
25322W        W40453   0.263  10.769  14.286 -0.0374  0.6061 -0.0447
25323W        W40454   5.744   0.983   1.796 -0.0161  0.1623 -0.0013
25324W        W40455   1.264   9.637   0.863 -0.1631 -0.1863 -0.1907
25325W        W40456  14.864   5.632   0.509 -0.1185  0.1668 -0.1524
25326W        W40457  14.205  17.769   0.550  0.0025 -0.2418  0.0385
25327W        W40458   6.535   7.916   4.471 -0.2148 -0.2201 -0.3290
25328W        W40459  17.061   7.232  12.263 -0.1650  0.0342 -0.2214
25329W        W40460  13.388  17.445   0.043  0.0678  0.1862 -0.2579
25330W        W40461   0.164   0.805   3.305 -0.0867  0.3492  0.0535
25331W        W40462   3.897  14.164  12.406 -0.1531 -0.0533 -0.2440
25332W        W40463   5.889  11.017  11.714  0.0079  0.2545  0.0154
25333W        W40464  11.729   8.148  13.913 -0.0256 -0.1048  0.0412
25334W        W40465   3.181  17.777   5.234  0.0647  0.3730 -0.1049
25335W        W40466   2.932  13.648   3.364 -0.1720  0.3198  0.3588
25336W        W40467  12.699  15.764  13.192 -0.0890 -0.2008  0.0720
25337W        W40468  11.451  13.372  11.645 -0.1012 -0.0553  0.3904
25338W        W40469   0.977  15.900  12.994 -0.0929  0.3749  0.2918
25339W        W40470   9.682   9.888   1.974 -0.0516 -0.2697  0.1881
25340W        W40471   5.193   8.612   0.350 -0.3011  0.1118  0.3036
25341W        W40472   6.206   3.975  11.612  0.0354 -0.0007 -0.1639
25342W        W40473   4.859  10.128  15.901  0.2548 -0.3862  0.0956
25343W        W40474  11.385   3.841  11.710 -0.1076  0.0691 -0.1642
25344W        W40475  16.179   2.670  12.361  0.0828  0.4144 -0.4361
25345W        W40476   4.939   2.542   2.266  0.3878 -0.5122  0.1538
25346W        W40477   8.500  11.931   2.928  0.2170  0.1763  0.4387
25347W        W40478   7.770   7.044   0.914 -0.0342  0.1437  0.0664
25348W        W40479   0.981   8.710   1.000  0.0693  0.2553  0.2855
25349W        W40480  12.453   7.126   0.488 -0.1593  0.2215 -0.1212
25350W        W40481   4.035   5.244  10.479  0.0305 -0.0834  0.1947
25351W        W40482  12.096  10.992  13.950  0.2906 -0.3520  0.0046
25352W        W40483   6.382   1.710   3.256  0.0822  0.3261 -0.1792
25353W        W40484   4.528   4.554  15.447 -0.1955  0.0713 -0.0465
25354W        W40485   6.446   9.290   0.217 -0.1548 -0.4527  0.0454
25355W        W40486   6.351  14.909   3.114 -0.1226  0.1677 -0.3981
25356W        W40487  17.301   6.163  12.047 -0.3371 -0.0163 -0.1201
25357W        W40488  11.400   4.803   4.206 -0.0015  0.2714 -0.0999
25358W        W40489  15.561   9.753   4.663 -0.0835 -0.3477  0.2409
25359W        W40490   8.052   6.575  12.996  0.0198 -0.2546  0.0865
25360W        W40491  12.646  10.904   0.441 -0.0593 -0.1977 -0.1714
25361W        W40492  13.902   7.529   1.827 -0.2227  0.2591 -0.1108
25362W        W40493  10.852  16.037   1.000 -0.2984  0.3387 -0.1488
25363W        W40494  10.009  18.239   5.122  0.2338 -0.0102 -0.2195
25364W        W40495  13.297   0.693  12.993  0.0712  0.2321  0.1221
25365W        W40496   8.516   9.157   4.537  0.3181 -0.0529  0.3434
25366W        W40497   5.336   6.240  13.143 -0.2516 -0.1204  0.1207
25367W        W40498  14.564   7.831  15.890  0.0119  0.2077 -0.2498
25368W        W40499  17.606  18.187   0.536  0.0643  0.0528 -0.0285
25369W        W40500   9.761   4.828   5.687  0.1173  0.1109 -0.0522
25370W        W40501   0.882   8.681  14.209 -0.0127  0.0655 -0.1625
25371W        W40502   4.290   4.157  11.341  0.1253 -0.0440  0.0990
25372W        W40503   3.782  13.088  14.465 -0.3615  0.1077  0.4344
25373W        W40504   6.202  14.934   3.762  0.2572 -0.0550  0.0093
25374W        W40505   3.221  12.598  11.805  0.1722  0.1539  0.0475
25375W        W40506   7.180   7.242   4.878  0.2055  0.0829  0.2820
25376W        W40507   8.806   1.884   2.428 -0.0431 -0.0605  0.3590
25377W        W40508   3.803  14.795  11.296 -0.1463  0.1186  0.5034
25378W        W40509  18.103   6.031   2.147 -0.1307 -0.4396 -0.2825
25379W        W40510  12.732   3.801  14.553  0.0740  0.3326 -0.1434
25380W        W40511  16.559  15.102   1.121 -0.4582 -0.1502 -0.2055
25381W        W40512   3.453   8.235   2.047 -0.1556  0.1198 -0.4923
25382W        W40513  11.607   4.677   2.872 -0.2795  0.0482 -0.3065
25383W        W40514   0.131  11.005  10.807  0.0926 -0.0739  0.0569
25384W        W40515  10.036   5.903   3.833 -0.1036 -0.2436 -0.1114
25385W        W40516   9.783  11.591  13.644  0.1479 -0.0220  0.0277
25386W        W40517   2.148   9.061  13.993  0.0884  0.1835  0.4865
25387W        W40518  11.102  14.003  14.694  0.0491 -0.1560 -0.2267
25388W        W40519   0.296   8.759   0.430 -0.0098  0.1774  0.2634
25389W        W40520  17.587  10.094   3.007 -0.2206 -0.1506 -0.0598
25390W        W40521   1.116   9.367  12.585  0.1716  0.0105  0.2309
25391W        W40522  11.647  13.901   1.246  0.0553 -0.2021  0.1265
25392W        W40523   2.920   7.771   3.306 -0.0151 -0.1457  0.0989
25393W        W40524   8.441   6.202  14.977 -0.0378 -0.1119  0.1311
25394W        W40525   4.495  15.930   0.115 -0.2892  0.1704 -0.1235
25395W        W40526   8.570  13.994  13.839 -0.2321  0.1846 -0.0611
25396W        W40527   9.664   2.419   4.850  0.0930 -0.3613 -0.0549
25397W        W40528  16.948  15.965   2.107 -0.1574  0.4247 -0.1454
25398W        W40529   4.654  17.374  10.755 -0.1772 -0.3258  0.1773
25399W        W40530  13.533   1.389  10.986 -0.0769  0.1560 -0.4594
25400W        W40531   3.881   8.599   5.058  0.2353  0.0766  0.4028
25401W        W40532   5.526   6.436   2.146  0.2053  0.1488  0.1502
25402W        W40533  16.400  17.385   2.262 -0.0787 -0.1584  0.2087
25403W        W40534   4.137  10.972   4.226 -0.0387  0.2619 -0.1377
25404W        W40535   3.066   1.594  11.049  0.0324  0.2012  0.1021
25405W        W40536   4.661  11.579  12.341 -0.0343 -0.1309  0.2483
25406W        W40537  17.959   0.202   0.480  0.2039 -0.2874  0.0403
25407W        W40538  10.537  14.265   1.208 -0.0936 -0.2680  0.0739
25408W        W40539   4.816   7.486   1.007  0.3973 -0.2486 -0.2162
25409W        W40540   4.331   6.927  11.963 -0.1872 -0.0737 -0.3037
25410W        W40541  17.439  15.756  15.054 -0.2329 -0.1848 -0.0957
25411W        W40542  10.384   5.745   4.210 -0.0312  0.2698 -0.1575
25412W        W40543  12.831   9.619  12.255  0.2163  0.2520  0.1484
25413W        W40544  15.213   1.105   3.076  0.2085 -0.3132 -0.1035
25414W        W40545   2.097   6.964   1.533  0.0669 -0.2098 -0.2663
25415W        W40546   8.259   1.303  11.187  0.1258  0.1579 -0.0739
25416W        W40547   1.843  16.305  16.074 -0.0023  0.2078 -0.1954
25417W        W40548  11.626   9.933   4.919  0.1841  0.1164  0.2126
25418W        W40549   0.697   9.025  11.400  0.1442  0.0306 -0.2850
25419W        W40550   6.778   7.162  10.370 -0.1631 -0.0215 -0.3441
25420W        W40551  12.831   9.021  12.088 -0.1506  0.0015 -0.0340
25421W        W40552   7.426  18.107   3.929 -0.4596  0.0790 -0.2984
25422W        W40553   5.686  13.306   2.222 -0.0347 -0.1918  0.0451
25423W        W40554   6.927  13.180   1.988 -0.3185 -0.0555 -0.0807
25424W        W40555   1.551   6.083   0.489 -0.0417  0.2861  0.0224
25425W        W40556   3.155  12.166   1.007  0.1443  0.2360  0.0436
25426W        W40557  11.824  11.650  11.217 -0.0333  0.0084  0.2111
25427W        W40558   5.792  10.831   5.142  0.4810 -0.0179 -0.0036
25428W        W40559  10.919  10.222   0.748 -0.3435  0.0332  0.0794
25429W        W40560  13.048   5.370  12.991  0.0034  0.0463  0.2277
25430W        W40561   0.761  14.789  14.166  0.2377  0.0093 -0.2674
25431W        W40562  17.871  11.240   4.200  0.2243 -0.0874  0.0525
25432W        W40563   4.467   2.655  13.219  0.0139  0.2062 -0.1904
25433W        W40564   0.831   8.057   2.479  0.1005  0.1500  0.0904
25434W        W40565   9.256   5.146  14.878 -0.0843  0.1969  0.0490
25435W        W40566  10.857   4.970  15.975  0.1075 -0.0771  0.1378
25436W        W40567   9.083  12.423   2.014  0.0272  0.0420 -0.0422
25437W        W40568  13.013  16.776   3.808  0.1209 -0.1886 -0.3547
25438W        W40569   1.695  12.272   5.421 -0.3821 -0.0969 -0.4777
25439W        W40570   6.205   9.027   4.875 -0.0948  0.0675 -0.1410
25440W        W40571  15.654   4.537  14.520  0.2406  0.1469  0.2471
25441W        W40572  11.913  14.394  14.468 -0.2578  0.2997 -0.0889
25442W        W40573   0.166   3.409   4.769 -0.0908 -0.1555 -0.1123
25443W        W40574  11.451  12.865  13.789 -0.0291  0.0307 -0.1584
25444W        W40575   0.494   6.281  15.573 -0.3163  0.4309  0.1157
25445W        W40576   8.267   4.480   5.394 -0.0326 -0.2049 -0.0068
25446W        W40577   4.987   7.867   3.670  0.2173  0.1085  0.2024
25447W        W40578   4.824   1.548   3.673  0.0073  0.0681 -0.1778
25448W        W40579   9.311   8.089  14.409  0.0368  0.1429 -0.2909
25449W        W40580   3.314   3.886   2.098  0.0136  0.1378  0.3910
25450W        W40581  13.613   2.038  12.890  0.0422  0.2254 -0.2215
25451W        W40582  11.193   8.152  12.850  0.2047  0.2851  0.1152
25452W        W40583   2.646  15.639  11.195  0.2192 -0.0232  0.0163
25453W        W40584  14.440   2.478  10.326 -0.0483  0.0417  0.0172
25454W        W40585   5.634  14.554   2.900  0.0502  0.0988  0.0197
25455W        W40586   3.993  10.914  10.831  0.2740 -0.2252  0.1944
25456W        W40587  16.857  15.262   0.417  0.1886  0.0181  0.1009
25457W        W40588  17.795  15.495  12.682 -0.3740 -0.0717 -0.2358
25458W        W40589   2.373   2.104  14.737 -0.1308 -0.0267  0.1834
25459W        W40590   9.831   8.067  12.227  0.1204  0.0575  0.2204
25460W        W40591   5.550  10.521  11.759 -0.3017 -0.2103  0.4354
25461W        W40592   3.157  10.080   2.908  0.3072  0.0965  0.2131
25462W        W40593  14.452   4.949   3.102 -0.3110 -0.3001 -0.0121
25463W        W40594   4.842   7.606   3.221  0.0347  0.1419 -0.1757
25464W        W40595  17.961   4.852  10.240 -0.2173 -0.0562 -0.2220
25465W        W40596   6.724  16.064  10.845  0.3315  0.1130  0.0050
25466W        W40597  13.882   1.864   4.577 -0.0429  0.4613  0.5416
25467W        W40598   6.376   3.602  13.228  0.0407 -0.1041  0.2542
25468W        W40599   7.568  10.581   3.034 -0.3688 -0.1411 -0.0766
25469W        W40600  10.375   6.487  12.364  0.0311  0.1720 -0.4573
25470W        W40601   5.329  12.502  11.385 -0.2366  0.1345 -0.1871
25471W        W40602   7.504  14.075  11.777  0.4045  0.2323 -0.1076
25472W        W40603   4.951  14.132   1.530 -0.0221  0.1652  0.0216
25473W        W40604  16.965  17.145  14.880 -0.0719 -0.0220 -0.2022
25474W        W40605   0.191   1.440   4.842 -0.4065  0.0644 -0.2683
25475W        W40606   0.421  12.247   3.081  0.0315 -0.3851  0.0665
25476W        W40607   9.358   4.409   0.622  0.1673 -0.1230 -0.1238
25477W        W40608   9.332   2.019   2.618  0.0051  0.0169 -0.0765
25478W        W40609   5.314   2.632  15.332  0.1781 -0.4766 -0.0518
25479W        W40610  11.324   6.553   6.305 -0.0276  0.0100 -0.3438
25480W        W40611   2.687  14.166  13.729  0.2064  0.5039  0.3089
25481W        W40612   4.488   8.477   2.282 -0.0118 -0.1536 -0.3085
25482W        W40613  18.045   8.258   2.640  0.0929  0.0888  0.2058
25483W        W40614  17.462   1.669   3.676 -0.2213  0.0861  0.0071
25484W        W40615   6.728   5.294  12.239  0.1976 -0.0791  0.2697
25485W        W40616   1.428   8.231  12.167  0.1378 -0.1052  0.1258
25486W        W40617  13.932  12.961   3.488  0.0598  0.4350  0.0070
25487W        W40618  17.000   5.265  12.039 -0.1871 -0.1322 -0.4432
25488W        W40619   7.982  13.664  10.542  0.0953  0.0511 -0.3945
25489W        W40620   5.161   2.066   2.325 -0.2388 -0.1311 -0.2987
25490W        W40621   8.440  13.659   1.657  0.0352 -0.0114  0.1225
25491W        W40622   4.857  14.277   5.566 -0.3449  0.3228  0.0670
25492W        W40623  14.542   5.169  15.117  0.2538 -0.0894 -0.4263
25493W        W40624  16.508   0.054   3.956  0.2254  0.2749 -0.1708
25494W        W40625  16.504  16.159  13.333 -0.2011  0.4352  0.0876
25495W        W40626  11.443  13.873   5.100 -0.0934 -0.1165 -0.3792
25496W        W40627  14.949  15.296   1.252  0.1188  0.0670 -0.1700
25497W        W40628  17.689  15.701  12.239 -0.2951 -0.1058 -0.0243
25498W        W40629   9.954   8.037  10.169  0.3440 -0.1142 -0.2967
25499W        W40630  10.067   2.166   3.049 -0.0546  0.0974  0.0106
25500W        W40631   1.399  12.677  14.387 -0.1416 -0.3215  0.2256
25501W        W40632  11.231  13.603   1.291 -0.1915 -0.1654  0.0531
25502W        W40633  10.278   9.767   2.458 -0.0379  0.2470 -0.3026
25503W        W40634   7.555  12.281  11.553  0.2098 -0.2166  0.2161
25504W        W40635   6.763   2.901   5.333  0.5098 -0.1032  0.0866
25505W        W40636   6.416   3.257   5.299  0.2818 -0.1103 -0.3112
25506W        W40637   5.319  16.369   2.075 -0.4976 -0.0107 -0.0819
25507W        W40638   5.575   6.272   4.553 -0.0403 -0.1547 -0.5351
25508W        W40639   9.856  10.857   3.085 -0.0570 -0.0139  0.0336
25509W        W40640  14.927   5.588  11.417 -0.3971  0.2267  0.1169
25510W        W40641   2.858   2.538   4.491  0.0133 -0.2018  0.0985
25511W        W40642  11.977  16.860   1.886 -0.2624 -0.0500  0.4554
25512W        W40643  12.764   9.341  13.095 -0.1822 -0.3152  0.0149
25513W        W40644  18.203  17.993  15.768 -0.2323  0.1421  0.1413
25514W        W40645   4.112   8.163   3.219 -0.0131  0.1538  0.0943
25515W        W40646   5.353   1.657   9.986 -0.2492  0.1058  0.0431
25516W        W40647  13.005  10.070   4.004 -0.1542 -0.1005 -0.0777
25517W        W40648   0.521  17.965  13.929  0.0886  0.0284 -0.3294
25518W        W40649   5.748   3.205   5.108  0.1345 -0.1327  0.1663
25519W        W40650   9.359   7.335  13.935 -0.1507  0.0576 -0.2558
25520W        W40651  16.587   4.904  14.891 -0.0703  0.2015  0.0611
25521W        W40652   8.416   4.889  15.581  0.0808 -0.0471 -0.0295
25522W        W40653   5.925  14.950   2.845 -0.0523 -0.0855  0.2527
25523W        W40654   3.057  10.107  15.329  0.0423  0.0273  0.1948
25524W        W40655   1.972  14.582  15.523  0.1026  0.2989  0.0173
25525W        W40656  14.781  17.919  12.665 -0.4855  0.0975  0.0334
25526W        W40657   9.360  17.895   3.874  0.1895  0.0684  0.1412
25527W        W40658   5.282  12.028  14.008 -0.0195 -0.2981  0.1388
25528W        W40659  17.989   6.279  11.681 -0.2534  0.0623  0.0718
25529W        W40660  14.738  13.998   3.370  0.3035  0.2434 -0.3011
25530W        W40661   6.803   6.565  12.222  0.0796 -0.0606  0.2789
25531W        W40662   0.933   8.162  15.061 -0.0705  0.0986 -0.4598
25532W        W40663   1.470  14.486   3.859 -0.0984  0.2709  0.0651
25533W        W40664  13.847   9.920  15.573  0.0750 -0.2180  0.1600
25534W        W40665   3.238  15.746   5.632 -0.2286 -0.1669  0.0625
25535W        W40666   3.235  16.221  10.611 -0.0709  0.1660 -0.0582
25536W        W40667  16.605   1.628  12.993  0.2005 -0.3165 -0.3196
25537W        W40668   1.176   1.069  12.159 -0.0346  0.2450 -0.3100
25538W        W40669  14.842   2.112  12.085  0.2551  0.2363  0.1052
25539W        W40670   3.378  15.640  12.222  0.2722 -0.0642  0.0261
25540W        W40671  13.867  14.596   0.884  0.0096  0.0699  0.0082
25541W        W40672  12.386   8.625   2.039  0.0155  0.1334  0.1094
25542W        W40673  14.256  11.812   2.250 -0.2432 -0.2823 -0.1700
25543W        W40674   6.435   5.146  11.210 -0.2348 -0.2453  0.2468
25544W        W40675  15.800   0.359   3.149  0.2780 -0.0876 -0.2018
25545W        W40676  10.651  12.089  15.321  0.0858 -0.1159 -0.0234
25546W        W40677   7.338  16.055   5.297  0.0385  0.1600  0.1268
25547W        W40678   5.444   7.005   0.403  0.1067 -0.0634 -0.1446
25548W        W40679   6.429  11.391  10.795 -0.3234  0.0293 -0.0927
25549W        W40680  11.419   3.175   5.674 -0.0608  0.2520 -0.3894
25550W        W40681  13.550   8.377  14.842  0.5264  0.1526 -0.1402
25551W        W40682   2.656   7.633   0.596  0.3141  0.0788  0.1901
25552W        W40683   5.481  14.024   3.600  0.3218 -0.1783 -0.0848
25553W        W40684   9.327   0.049  10.866 -0.2930 -0.0557 -0.2821
25554W        W40685   0.175   6.341   5.681 -0.0081 -0.1883  0.1586
25555W        W40686  10.660   0.818   5.862 -0.3179  0.1634 -0.2022
25556W        W40687   0.677  13.601  11.900  0.1260 -0.2184 -0.1895
25557W        W40688   0.655  13.962  14.349 -0.2116 -0.1298  0.0390
25558W        W40689   5.818   3.214  15.866  0.3159 -0.1034  0.0834
25559W        W40690   8.220   6.260  14.432  0.1518 -0.0251  0.2197
25560W        W40691   2.218  17.076   5.878  0.0511  0.1293  0.1465
25561W        W40692  17.659   6.070   5.280 -0.3246 -0.0707 -0.1344
25562W        W40693   4.432  17.372   1.476 -0.1950 -0.3452 -0.0074
25563W        W40694   7.407   3.716   2.991  0.1900  0.1091  0.1324
25564W        W40695  17.510  16.173  10.955 -0.2905 -0.1141  0.2457
25565W        W40696   1.341   3.811   2.175 -0.1027  0.0586 -0.2362
25566W        W40697   6.469   5.066  13.044 -0.2784 -0.0355 -0.0743
25567W        W40698  13.123   1.621   1.320  0.7416  0.0053  0.1825
25568W        W40699  17.003   8.172  11.101  0.0773 -0.0509  0.2500
25569W        W40700   2.438  16.529  11.752 -0.0627 -0.0573  0.0227
25570W        W40701  17.403  18.320   5.022  0.0420 -0.0996  0.1576
25571W        W40702   3.336  11.489  11.549 -0.2245 -0.2551 -0.2833
25572W        W40703  11.017   3.840   0.247 -0.0777 -0.0736 -0.0373
25573W        W40704   5.070   1.575   2.045 -0.1251  0.0279 -0.0287
25574W        W40705  15.031  14.367  12.897  0.2181 -0.2742  0.0428
25575W        W40706   1.325  10.484  13.603 -0.0443 -0.1556  0.1096
25576W        W40707  16.603   9.446   4.122  0.0074 -0.0119 -0.0352
25577W        W40708   1.620   8.729  12.360 -0.3593 -0.1967  0.1362
25578W        W40709   7.638  18.265   2.543  0.0310 -0.2464  0.1352
25579W        W40710   0.851  18.263   4.698 -0.1068  0.0038  0.2215
25580W        W40711  14.092   0.353   5.440  0.1513 -0.0296 -0.1220
25581W        W40712   9.649  13.922   1.327 -0.1542  0.2335 -0.2078
25582W        W40713   1.956  15.936   1.547  0.2411  0.0119 -0.2801
25583W        W40714   6.541  16.286   2.903  0.2960 -0.1216  0.0640
25584W        W40715   6.244   7.318   5.787  0.0519 -0.0495  0.4349
25585W        W40716   2.341  18.157   4.180 -0.0482  0.1592  0.0443
25586W        W40717  14.438  13.677  14.267  0.0535 -0.2120  0.0952
25587W        W40718  13.129   1.721  12.299  0.0042  0.0206 -0.0057
25588W        W40719  10.813  13.767   2.203 -0.0945 -0.0387  0.2006
25589W        W40720   5.272  13.517  11.176 -0.1065 -0.1429  0.0254
25590W        W40721  11.200   1.161  11.453 -0.0202 -0.2479  0.1916
25591W        W40722   2.296   2.894   3.746 -0.4093  0.0438 -0.3164
25592W        W40723  17.184  13.544  10.589 -0.0511 -0.0138  0.2845
25593W        W40724   7.048  11.993   9.503  0.1582  0.0641 -0.1452
25594W        W40725  14.041  14.684  13.394 -0.1179  0.0323  0.2942
25595W        W40726  13.817   3.779   1.299  0.2416 -0.0120 -0.2318
25596W        W40727   5.093  10.515  16.112 -0.3349 -0.0599  0.0728
25597W        W40728  16.067  10.758   1.449 -0.0206  0.2717 -0.2979
25598W        W40729   3.882   0.721  13.926 -0.0928  0.1491 -0.1848
25599W        W40730  13.934   5.923  14.181  0.3752  0.0104 -0.1126
25600W        W40731   6.881   1.541   2.551 -0.0896 -0.3386  0.1130
25601W        W40732  13.175   5.086   2.570  0.1625  0.1547  0.0842
25602W        W40733   6.846   7.923  14.454  0.2516 -0.1440 -0.0991
25603W        W40734   2.021  16.746  10.274 -0.1472  0.0323 -0.1480
25604W        W40735  17.114   4.486   1.134  0.0028  0.1720 -0.0408
25605W        W40736  11.826   5.056  11.569 -0.0021  0.2992 -0.0484
25606W        W40737  14.955   4.302  13.945  0.0539 -0.1867 -0.0008
25607W        W40738  17.627  14.412  14.453  0.0427 -0.2838  0.0032
25608W        W40739   5.388  18.359   5.899 -0.0375  0.1376 -0.2925
25609W        W40740  10.456   4.057   2.134  0.0533 -0.2760 -0.0966
25610W        W40741  14.858  10.614  13.519 -0.0463 -0.0744 -0.0618
25611W        W40742   8.987   0.072  15.606  0.1125 -0.0973  0.3581
25612W        W40743  17.422   7.418  13.941 -0.2260 -0.1480  0.2050
25613W        W40744   2.370   6.501   0.788 -0.0897  0.0403 -0.2121
25614W        W40745  12.462  13.217   6.117  0.1512 -0.3737 -0.0162
25615W        W40746  11.297   7.205  11.549  0.0782 -0.2347 -0.2498
25616W        W40747   0.651   7.453  10.261 -0.1255  0.2109  0.3382
25617W        W40748  17.611   4.119   5.682 -0.2446  0.1955  0.2978
25618W        W40749  11.086   3.180  13.263 -0.2142 -0.2526 -0.3787
25619W        W40750   5.879   4.803   3.486 -0.1391  0.1204  0.0835
25620W        W40751   8.799  12.607  12.881 -0.1518  0.0253 -0.3732
25621W        W40752  16.196   9.321   1.926  0.2240 -0.0732 -0.2468
25622W        W40753  11.406  11.153   5.282  0.0051  0.0600 -0.1800
25623W        W40754   6.633   2.917  14.078 -0.1304  0.1587 -0.0174
25624W        W40755  12.091   7.385  14.479  0.0608  0.0058 -0.1685
25625W        W40756   8.591  10.790   5.614  0.0180  0.0841  0.2658
25626W        W40757   6.424  17.887   0.261  0.2778 -0.2670  0.2860
25627W        W40758  12.757  12.773   3.032  0.2523 -0.0848  0.1249
25628W        W40759   8.242  10.800  14.199  0.0194  0.0423 -0.0603
25629W        W40760   6.079   5.172  15.348 -0.0154 -0.0769 -0.1495
25630W        W40761   2.590  14.444  15.038  0.1608  0.0847 -0.1244
25631W        W40762   5.146  15.602   2.197  0.2180 -0.3811 -0.2947
25632W        W40763   6.272   7.653   2.023  0.2967 -0.0640 -0.1955
25633W        W40764   4.210  13.529  15.780  0.2729  0.1840 -0.0654
25634W        W40765   5.343  18.332  12.856 -0.4626  0.1773 -0.0430
25635W        W40766   1.701  10.405  15.462  0.1085 -0.1350 -0.1014
25636W        W40767   3.598   9.725  12.432  0.2182 -0.3500  0.2463
25637W        W40768  11.370   4.115  15.118  0.3803  0.0124  0.0308
25638W        W40769   3.691  17.691  12.976  0.0516 -0.2142 -0.1533
25639W        W40770   1.851  16.368   5.063 -0.0245 -0.0329  0.4612
25640W        W40771   3.047  16.868   2.455  0.0427  0.1710 -0.0908
25641W        W40772  12.350  15.204  15.702 -0.0237  0.2214 -0.0621
25642W        W40773   7.194   7.269  15.835 -0.0155 -0.0191  0.0514
25643W        W40774  12.329   2.492   1.305 -0.2686  0.0427  0.1342
25644W        W40775  11.962   2.894  13.238 -0.0930 -0.0870  0.1901
25645W        W40776   7.963   3.692   1.273  0.1264 -0.0645  0.2132
25646W        W40777   1.759   8.672  11.881  0.2533 -0.0773  0.1107
25647W        W40778  10.263   9.512   0.621  0.0116 -0.0145  0.4784
25648W        W40779  15.087   2.908   2.624 -0.3220 -0.0252  0.1690
25649W        W40780   1.563   0.793   0.670 -0.1977  0.1146 -0.2260
25650W        W40781  13.505   9.494   5.152  0.0428  0.0189 -0.2623
25651W        W40782  11.176   1.119   4.349  0.0590 -0.0111  0.1015
25652W        W40783   0.566   3.069   6.006  0.0404  0.0119 -0.2738
25653W        W40784   0.057  14.931  10.861  0.0434  0.0064  0.0774
25654W        W40785  14.448   5.859   0.235 -0.0236  0.2770  0.0260
25655W        W40786   8.998  11.801  14.136  0.1256 -0.2712 -0.0215
25656W        W40787   3.185   8.069  12.927 -0.0017  0.1651 -0.0261
25657W        W40788  13.641  11.322  13.116 -0.3555  0.2078 -0.0159
25658W        W40789   0.491  16.342   4.006  0.1365  0.0472 -0.0400
25659W        W40790  12.529  16.832  13.704  0.0110 -0.2006 -0.1597
25660W        W40791  13.080   4.906  11.672 -0.1836  0.0810 -0.1295
25661W        W40792  15.913  11.982  12.199  0.2722 -0.2441 -0.0602
25662W        W40793   5.448   3.099  12.716  0.0533  0.1280  0.2787
25663W        W40794   7.762   2.502  15.236 -0.1823 -0.0257  0.0364
25664W        W40795  10.354  12.296   4.719  0.2914  0.3252  0.4199
25665W        W40796   8.932   3.758   5.134 -0.1168  0.0678  0.2728
25666W        W40797  16.531  15.293  12.261  0.0261  0.2786  0.1066
25667W        W40798  18.106   2.887  13.457  0.2602  0.0134 -0.1503
25668W        W40799   5.122  15.961  15.411 -0.1689 -0.3937 -0.0855
25669W        W40800   7.826   0.673   5.612 -0.0759 -0.0328 -0.0438
25670W        W40801  12.701  11.528  12.288 -0.1904 -0.0981  0.2436
25671W        W40802  12.601  10.373   0.692  0.0171  0.0452 -0.0751
25672W        W40803   7.454   5.036  11.366  0.0650 -0.1313  0.1084
25673W        W40804   5.491  12.678   2.222 -0.0186  0.2796 -0.0750
25674W        W40805  14.210  14.838   5.046 -0.0868  0.1287  0.2042
25675W        W40806  16.777   1.142  14.323  0.2189 -0.0480 -0.1609
25676W        W40807  11.530  15.241   4.304  0.1585  0.2796  0.3465
25677W        W40808  16.787   2.130  11.700 -0.3469 -0.0023  0.1308
25678W        W40809   2.003   8.255  12.237  0.0851 -0.4646  0.1061
25679W        W40810   2.075  15.610   0.753 -0.1368 -0.0067  0.3210
25680W        W40811   7.325   3.295   4.671  0.0495  0.1245 -0.2264
25681W        W40812   3.883   1.844   0.903  0.3095  0.1891 -0.4201
25682W        W40813  13.513   0.407   2.892  0.1482 -0.0807  0.0790
25683W        W40814  11.920  16.712   2.927 -0.0949  0.2637 -0.3045
25684W        W40815   8.789  10.873  11.683  0.0094 -0.1140 -0.0775
25685W        W40816  13.592   7.756  13.557 -0.1449  0.3280  0.2257
25686W        W40817  10.535   9.328   5.855 -0.0002  0.1635  0.1740
25687W        W40818  14.911  11.726   1.543 -0.1209 -0.1081  0.2500
25688W        W40819  10.324   4.802  15.935 -0.0714  0.0244 -0.0613
25689W        W40820   8.891   4.684   5.971 -0.1496  0.0760  0.0509
25690W        W40821   0.403  12.666   4.674  0.2082  0.0271 -0.0061
25691W        W40822   8.766  15.665   5.823 -0.1595 -0.3467  0.1212
25692W        W40823   2.168   0.903  15.779 -0.1399 -0.0660 -0.2745
25693W        W40824  14.199   8.245   3.619  0.1023 -0.0355  0.1094
25694W        W40825   5.545   7.690  13.209  0.1120 -0.2165  0.0394
25695W        W40826   8.140   8.774  14.000 -0.0875  0.0452 -0.3483
25696W        W40827   2.629   8.571   1.120  0.0582  0.0170 -0.1359
25697W        W40828   0.981   1.537  14.027  0.1783 -0.3432 -0.0632
25698W        W40829   2.443  10.321  12.025 -0.3363 -0.3500  0.2260
25699W        W40830   1.989   7.611  13.705  0.1809 -0.1336  0.3764
25700W        W40831  11.183  15.306   5.040  0.1645 -0.1959 -0.1209
25701W        W40832  16.571  16.104  10.901  0.0826 -0.1738 -0.2297
25702W        W40833  10.397  16.020   2.011 -0.1353 -0.0405  0.0889
25703W        W40834  11.929  16.613  11.395 -0.0823  0.0483 -0.1164
25704W        W40835  18.197  13.460  13.315  0.0850 -0.2537 -0.0045
25705W        W40836  16.973  10.211  15.991 -0.3824 -0.3555 -0.1028
25706W        W40837   8.155  14.665   1.729 -0.0578 -0.0336 -0.0007
25707W        W40838  14.243   2.167  12.520  0.1661  0.3250 -0.0067
25708W        W40839   5.835   9.141  13.268 -0.2551 -0.0625  0.1389
25709W        W40840  12.970   4.126   4.693 -0.3313 -0.0426  0.2353
25710W        W40841   6.383  11.433  16.068  0.1570 -0.0499 -0.2301
25711W        W40842  13.123   0.823  13.835 -0.0336 -0.1433  0.1928
25712W        W40843  16.410   7.529  14.088 -0.2426  0.0206 -0.0187
25713W        W40844  11.621  17.620  10.695  0.2412  0.4044 -0.0905
25714W        W40845   7.241  11.841  15.858 -0.0556 -0.1125  0.0306
25715W        W40846  14.444   7.398  13.969 -0.2038 -0.1652  0.0196
25716W        W40847  12.433   3.015   1.079 -0.1495 -0.0688 -0.0689
25717W        W40848   6.940   5.082   4.168 -0.0711 -0.1086  0.0212
25718W        W40849   3.118  10.204   4.439 -0.0289 -0.0969 -0.2196
25719W        W40850   3.005  11.664   3.253  0.0301  0.4349 -0.3568
25720W        W40851   4.177  12.812  12.960  0.1236 -0.1796  0.1394
25721W        W40852   4.754  13.079   5.457  0.2126 -0.3314 -0.0238
25722W        W40853   3.193  13.170   0.752  0.5347  0.1711  0.0860
25723W        W40854   2.806   9.075   2.697  0.0700 -0.3787 -0.0191
25724W        W40855  14.654  16.074  15.556  0.0631 -0.4176  0.0010
25725W        W40856   2.332   0.307  12.110  0.0527 -0.2683  0.1136
25726W        W40857  18.233   9.867   0.672  0.0307  0.2678  0.2567
25727W        W40858  12.611  12.779  15.960 -0.2340 -0.2386  0.1165
25728W        W40859   8.414   3.360  13.066  0.2366  0.3780  0.2348
25729W        W40860   0.164   0.836  12.271 -0.1167 -0.0747  0.0317
25730W        W40861  17.858   7.287   1.319  0.2134 -0.2284 -0.0465
25731W        W40862  14.039   1.677  10.849 -0.3936 -0.3828 -0.0947
25732W        W40863   1.629   5.760  12.360 -0.0521  0.2476 -0.0198
25733W        W40864   2.383   6.478  15.010  0.2649 -0.0601 -0.4230
25734W        W40865  10.889   2.693  13.125  0.0996  0.3556 -0.1662
25735W        W40866  17.554  14.814  10.805 -0.1706  0.1232 -0.2476
25736W        W40867  14.944   0.158  15.517  0.0770 -0.0224  0.3041
25737W        W40868   9.334   3.281  13.626  0.0288  0.1241  0.2286
25738W        W40869   9.530   6.811   1.920  0.1845  0.2643  0.1358
25739W        W40870  17.264   2.021  10.606 -0.0081  0.2143  0.0423
25740W        W40871   9.699  18.129   4.734 -0.4361 -0.0692 -0.1168
25741W        W40872   5.370   6.129   1.813  0.0056 -0.1849  0.4196
25742W        W40873  15.688  10.949  12.133 -0.0342  0.0605  0.1729
25743W        W40874  17.405  15.396  11.525  0.0554  0.3680  0.0248
25744W        W40875  11.477  13.922   0.106  0.4159  0.1036 -0.0320
25745W        W40876   8.897   4.588  15.499 -0.0137  0.0031  0.3371
25746W        W40877  16.684  16.104   4.536 -0.2476 -0.0780  0.1022
25747W        W40878  16.066   1.568   5.428 -0.2691 -0.1222  0.1626
25748W        W40879   9.585  12.885  10.937  0.1055 -0.3094 -0.1455
25749W        W40880  17.966   2.562   3.627  0.1005  0.0735 -0.0312
25750W        W40881  12.112  10.994   1.163 -0.1890  0.1480  0.1742
25751W        W40882  13.374   6.236  11.944 -0.1258 -0.0267 -0.0878
25752W        W40883  13.094  11.274   0.882  0.0179  0.1434  0.0717
25753W        W40884  17.265  16.020   3.498 -0.1010 -0.0554  0.0215
25754W        W40885   3.902  16.231  13.722 -0.3281  0.2794 -0.0694
25755W        W40886  11.732   3.830  12.311  0.0177  0.3084 -0.1378
25756W        W40887  10.719  12.500  13.348  0.0533 -0.2351  0.3535
25757W        W40888  11.718   2.424  14.207 -0.0411  0.2090  0.2904
25758W        W40889   1.926   0.276  14.726  0.0284 -0.1561 -0.1393
25759W        W40890  11.419   4.310   4.508  0.2108  0.2017 -0.2919
25760W        W40891   4.931  10.693  15.211 -0.1548  0.0648 -0.1764
25761W        W40892   0.302  17.486  14.240  0.3355 -0.0668  0.4036
25762W        W40893   4.901   4.233   1.491 -0.1231 -0.0195  0.1523
25763W        W40894  12.361   9.088   2.321  0.1453 -0.1351  0.0240
25764W        W40895   0.793  10.325  10.833 -0.2032 -0.1899 -0.0200
25765W        W40896  13.657   3.601   3.427 -0.0462 -0.0778 -0.2100
25766W        W40897   1.284   8.945   1.307  0.0064  0.0010  0.0533
25767W        W40898  11.500  13.148   2.471  0.0881 -0.0800  0.1172
25768W        W40899  11.548  16.075  13.425  0.0629 -0.1558 -0.2076
25769W        W40900  13.513  14.119   3.154  0.1869  0.0215 -0.3283
25770W        W40901  12.494   2.841  15.991 -0.1108  0.0803 -0.1489
25771W        W40902  16.314   3.189   3.115 -0.4295 -0.0482  0.1646
25772W        W40903   9.835   3.778   2.002 -0.4123 -0.0546  0.1075
25773W        W40904   5.883  12.755  15.837 -0.0403 -0.0792  0.4171
25774W        W40905  11.307  17.696  16.092 -0.1437  0.2216 -0.1325
25775W        W40906   4.260  13.815  12.713  0.0524  0.1330  0.1894
25776W        W40907  17.110  10.116   0.409  0.1588 -0.0162 -0.1029
25777W        W40908  18.060   9.527   1.958  0.4051  0.1971 -0.2388
25778W        W40909  16.170   0.560   6.452 -0.1450  0.0811  0.2779
25779W        W40910   1.972  12.036   4.875 -0.1931  0.0369 -0.1756
25780W        W40911   4.854   1.888  15.649  0.2025 -0.0488  0.2298
25781W        W40912   9.548   8.505   1.299 -0.2185  0.0239  0.0447
25782W        W40913   7.607   6.325   3.825 -0.1438 -0.0841 -0.0482
25783W        W40914  11.200  15.857   1.997  0.1581 -0.1263 -0.1262
25784W        W40915  17.576  16.713  14.827  0.2281 -0.1657  0.1314
25785W        W40916   3.842   4.559   3.595  0.0466 -0.2511 -0.0021
25786W        W40917   4.245  17.849  13.527 -0.0575 -0.0914  0.0557
25787W        W40918   0.126   7.428  12.152 -0.1868  0.2285 -0.1446
25788W        W40919   9.502   5.688  10.209  0.1705  0.2597 -0.0824
25789W        W40920   4.230   1.577  12.619  0.0081  0.1865  0.0125
25790W        W40921  17.991   5.467  13.013 -0.0571 -0.1933 -0.2448
25791W        W40922   0.369  12.254  14.255 -0.1261 -0.1261  0.0425
25792W        W40923  13.316   9.393  14.021  0.0116 -0.0371  0.0273
25793W        W40924  13.871  16.401  14.429  0.0519 -0.0736 -0.1209
25794W        W40925   6.227   0.687   6.640  0.0077 -0.0607  0.1932
25795W        W40926  16.291  16.075   0.729  0.2186 -0.2603  0.1433
25796W        W40927  16.104   3.605   2.757 -0.2420  0.1207  0.0896
25797W        W40928  10.928   0.664  13.669 -0.1974  0.1677 -0.1924
25798W        W40929   4.313  18.174   2.019  0.0880  0.2285 -0.1608
25799W        W40930   3.134   4.953  15.802 -0.1874 -0.2460  0.0070
25800W        W40931  14.726   1.708   4.744 -0.1640 -0.2679 -0.1890
25801W        W40932   1.762   3.386   0.112 -0.0217 -0.0463  0.2764
25802W        W40933   4.716   0.382  14.702  0.0872  0.0862 -0.1460
25803W        W40934  16.900   1.223   4.898  0.0537 -0.2469  0.0728
25804W        W40935  17.174   1.772   3.177  0.3124 -0.0006 -0.1720
25805W        W40936  16.834  17.735   2.139  0.2131 -0.3166 -0.3653
25806W        W40937  15.101   1.372   1.594 -0.0511  0.2231 -0.0869
25807W        W40938   9.424  15.380  10.527 -0.1428  0.3202 -0.0342
25808W        W40939   7.866  16.539  15.614 -0.0351 -0.1068 -0.1081
25809W        W40940   4.354  12.968  15.613  0.0805  0.1795 -0.2375
25810W        W40941   8.991   9.888   2.448 -0.0881 -0.1129  0.2884
25811W        W40942  14.886  16.416  11.914  0.0889  0.1242  0.0427
25812W        W40943   9.201   4.336  15.207 -0.0387  0.0026  0.0824
25813W        W40944   8.619   2.558   5.862 -0.1524  0.0367 -0.0401
25814W        W40945   9.096   8.425  13.681  0.2280  0.2579  0.2540
25815W        W40946   5.284   9.560   3.398  0.0038 -0.1193 -0.0074
25816W        W40947  14.364  14.867   4.535 -0.1583 -0.1716 -0.2024
25817W        W40948   6.277   4.893  10.747  0.0123 -0.1643  0.1026
25818W        W40949  14.175   8.488   1.864  0.0232  0.2067  0.0228
25819W        W40950   3.761   8.696  14.038 -0.2730 -0.0952 -0.0955
25820W        W40951   6.411   6.943  15.530  0.2443  0.1595  0.2005
25821W        W40952  14.053  13.177   1.363  0.3505  0.0473 -0.0231
25822W        W40953   8.759   0.002   3.245  0.2583  0.3815 -0.2018
25823W        W40954   1.274   0.390   3.316 -0.0318  0.3404 -0.1162
25824W        W40955  10.617   9.982  15.332 -0.0914  0.0362  0.1372
25825W        W40956  15.386   9.940  13.362  0.0735  0.0883 -0.4168
25826W        W40957   2.487  16.148   1.620 -0.0647  0.4229  0.2197
25827W        W40958   0.394  10.591  15.278  0.1307  0.1666  0.3988
25828W        W40959   0.124   6.275   3.059  0.1068  0.0925  0.1632
25829W        W40960  16.529   2.911   4.431 -0.0699  0.1446 -0.2881
25830W        W40961   7.542  10.630  11.356  0.0550 -0.0291  0.2438
25831W        W40962   2.545   8.235   5.262 -0.3578  0.0257 -0.3364
25832W        W40963   8.430   9.885   3.813  0.0299  0.0297 -0.0525
25833W        W40964   6.958  14.581   3.893  0.1119  0.2059  0.1722
25834W        W40965   5.065  17.666  15.298 -0.1575 -0.1183  0.2370
25835W        W40966  14.098   3.822   3.681 -0.1025  0.0324  0.1368
25836W        W40967   2.577   1.434  14.308 -0.2023  0.0438  0.0613
25837W        W40968   0.245  15.097   1.171  0.1958  0.1572  0.2149
25838W        W40969   5.184   4.639   4.084 -0.0926  0.1862 -0.0697
25839W        W40970   3.672  16.002  14.112 -0.1625 -0.0411  0.2826
25840W        W40971  17.977   6.203  12.447  0.1477 -0.2313  0.0980
25841W        W40972  14.043   8.467  11.424  0.0689 -0.1663 -0.1584
25842W        W40973  17.728  13.746  15.707 -0.0837  0.1317 -0.0229
25843W        W40974  16.770   6.707   4.487  0.1287 -0.2370  0.3038
25844W        W40975   6.705  14.187  13.826  0.2374 -0.1923 -0.3408
25845W        W40976  16.205   0.107   2.997  0.0921  0.2805 -0.1735
25846W        W40977   5.674  10.305  15.812  0.0107 -0.2530  0.3039
25847W        W40978  13.213   2.597  15.601  0.1240 -0.2382  0.1514
25848W        W40979  12.514   4.199  11.221 -0.1984 -0.0554 -0.1700
25849W        W40980   9.892  13.469   4.117  0.1968 -0.2219  0.0131
25850W        W40981   7.031   2.151   3.048 -0.3183  0.1727  0.3186
25851W        W40982  15.464  15.236   2.895 -0.0766 -0.0210  0.0718
25852W        W40983  15.836  10.772  11.174 -0.1847 -0.0991  0.3130
25853W        W40984   9.277  15.884  14.815  0.2479 -0.0668  0.0955
25854W        W40985   1.321   3.230  13.993 -0.0672  0.0087 -0.2244
25855W        W40986   1.430   1.698   0.552  0.1202 -0.2089  0.2148
25856W        W40987  13.530  17.777  13.568  0.0082  0.3414 -0.0375
25857W        W40988   3.727  15.772   1.596 -0.2767 -0.3535  0.0371
25858W        W40989   5.036  16.052   3.110 -0.0648 -0.1221  0.0205
25859W        W40990  15.510  11.786   2.858 -0.1517 -0.2727 -0.1974
25860W        W40991  17.738  13.570   4.235 -0.0554  0.1487 -0.1688
25861W        W40992  17.353   5.556  12.285 -0.0145 -0.0525 -0.0153
25862W        W40993  16.735   7.913   4.085  0.4807 -0.1079  0.1720
25863W        W40994   6.918   4.247  15.183  0.1799  0.0475  0.6115
25864W        W40995   0.147   3.422  16.128 -0.2658 -0.3661 -0.0009
25865W        W40996   0.673  12.090   0.140 -0.0843  0.0388 -0.2567
25866W        W40997  12.838   8.587  12.454 -0.0198 -0.1578  0.1643
25867W        W40998  11.042   1.062   3.867 -0.3153  0.1680 -0.0285
25868W        W40999  17.190  16.101   0.518 -0.2412  0.2043  0.1203
25869W        W41000  13.170   0.593  15.912  0.0924  0.0951 -0.0464
25870W        W41001   9.278   1.250   3.948 -0.1032 -0.0776 -0.3927
25871W        W41002   2.946  15.992   0.955  0.0937  0.2105  0.0009
25872W        W41003  12.574   6.877   4.232 -0.2274 -0.1258  0.2008
25873W        W41004  10.395   0.173  11.826 -0.2792  0.1306  0.0297
25874W        W41005   0.845   6.419  15.243  0.0502 -0.0843 -0.1227
25875W        W41006   6.839   5.553   3.263  0.2117  0.3038  0.1590
25876W        W41007   0.741   1.365  14.479  0.1153  0.0148 -0.1644
25877W        W41008   7.963   0.868   1.680  0.2158  0.2024  0.0862
25878W        W41009   7.286  14.524   2.222  0.0418 -0.3733 -0.0213
25879W        W41010  16.593   6.924  13.116  0.2530 -0.0196 -0.1712
25880W        W41011  17.346  13.403  14.877 -0.0907 -0.0338  0.1432
25881W        W41012   8.424   5.376  14.579  0.0441 -0.0847 -0.1403
25882W        W41013  14.141  13.168   5.679  0.3058 -0.0198  0.6850
25883W        W41014  16.796  11.625  11.414 -0.1500 -0.1942  0.0139
25884W        W41015   0.003   6.922   4.595  0.1248  0.1509  0.4481
25885W        W41016   0.917   5.001  10.397  0.2102  0.2578  0.1246
25886W        W41017  15.691   3.212   1.916 -0.0036 -0.1303  0.0511
25887W        W41018   3.575   0.436  12.616  0.0822  0.0752  0.0017
25888W        W41019   1.151  12.305  15.228 -0.2038  0.1427 -0.0389
25889W        W41020  14.698   8.585   0.657  0.0043  0.3592 -0.0661
25890W        W41021   5.451   4.901  14.510 -0.2882  0.1749 -0.0274
25891W        W41022   7.924  13.666   3.944 -0.0018 -0.2745 -0.0136
25892W        W41023  17.323  16.430   5.721 -0.0859 -0.1728  0.0585
25893W        W41024   4.041   8.711   9.573  0.0382 -0.0679 -0.3545
25894W        W41025  10.919  16.133   3.375 -0.0501 -0.0995 -0.0630
25895W        W41026   3.537  10.632  15.135  0.0690  0.3874 -0.1569
25896W        W41027   7.068   1.590   1.596 -0.0521 -0.2716  0.0769
25897W        W41028   3.535  15.294  14.788 -0.0943 -0.0959 -0.0366
25898W        W41029   8.796  10.034   9.669  0.2113 -0.0254  0.0438
25899W        W41030   5.472   4.672   3.684 -0.1651 -0.0530  0.1119
25900W        W41031  13.230   0.483  12.514  0.1496  0.0324  0.0598
25901W        W41032   2.535   0.349   5.187 -0.2283 -0.2571 -0.1310
25902W        W41033   0.365   1.752  13.169 -0.0073 -0.0399 -0.0424
25903W        W41034   6.373  11.737  15.242 -0.5776  0.0788 -0.0185
25904W        W41035  18.365   1.120   3.724 -0.2102 -0.0202 -0.1647
25905W        W41036  14.637   0.530  14.309 -0.0307  0.1457 -0.0244
25906W        W41037  15.333   8.265   2.217 -0.0340  0.1209 -0.1878
25907W        W41038   7.431   7.662   4.939 -0.1407 -0.0625 -0.0329
25908W        W41039  12.761   8.163  14.486  0.2042 -0.1233 -0.2133
25909W        W41040  10.450  17.028  12.649 -0.1574 -0.0878  0.2837
25910W        W41041  17.264   9.699   1.303 -0.1553 -0.3039  0.0961
25911W        W41042  17.557   6.056  11.062 -0.3249  0.1794  0.1093
25912W        W41043  17.736  10.838   0.897  0.1698 -0.3770 -0.3256
25913W        W41044   6.140   6.799  14.320  0.1034  0.2185  0.0011
25914W        W41045   3.336   4.741   1.055  0.2579 -0.3377  0.3437
25915W        W41046   9.062  12.775  10.746 -0.1129 -0.2426  0.0492
25916W        W41047   2.390  11.651   1.979  0.1276  0.0751  0.1487
25917W        W41048  16.920  10.324  11.875  0.1560 -0.0676 -0.0412
25918W        W41049   0.931   0.944   5.447  0.1065  0.2252 -0.0312
25919W        W41050  14.341   1.759  14.454  0.2889 -0.2684 -0.0096
25920W        W41051   9.003   8.280  15.181 -0.0799 -0.1181 -0.3259
25921W        W41052   5.055   6.936  11.693  0.3207 -0.0914  0.4709
25922W        W41053  13.123   9.605   5.699 -0.2377  0.3689 -0.3274
25923W        W41054   0.719   9.922  11.701  0.1577 -0.1937  0.0722
25924W        W41055  14.951   0.804   4.404  0.0897  0.1931 -0.0628
25925W        W41056   0.029   6.840  12.924  0.1362  0.3401  0.3252
25926W        W41057   8.825  17.632  10.944 -0.1782 -0.0548  0.1400
25927W        W41058   6.043  18.017  13.055  0.1721 -0.5832 -0.3295
25928W        W41059   1.860   3.208   3.284  0.0873  0.0464 -0.0512
25929W        W41060   5.992   4.824   2.420 -0.1042 -0.2487 -0.1183
25930W        W41061   5.007   4.034  13.975 -0.0107 -0.1771 -0.2047
25931W        W41062   0.955  15.601   1.458  0.0237  0.1402 -0.2240
25932W        W41063   9.650  18.333   6.011 -0.1815 -0.1485 -0.0102
25933W        W41064  12.468  10.526   3.194 -0.0995  0.0994 -0.0154
25934W        W41065   7.831   7.319  12.191  0.2729 -0.1482  0.1215
25935W        W41066   8.048   2.152  11.446  0.0754 -0.3501 -0.0985
25936W        W41067   8.803  11.628   9.652  0.1332 -0.2604 -0.1248
25937W        W41068   6.915  15.090  13.623  0.2199 -0.2650  0.0251
25938W        W41069   3.889   5.160  12.368 -0.0422 -0.0492  0.2465
25939W        W41070   0.431   9.362  12.496 -0.3665 -0.0047  0.0229
25940W        W41071  15.107  15.297  12.344 -0.0600  0.0566  0.2821
25941W        W41072  15.876  16.968  13.510  0.3920  0.2095 -0.0917
25942W        W41073   2.658  13.564   2.085 -0.0992  0.1573  0.1263
25943W        W41074   8.772  18.139  16.038  0.1829 -0.1936 -0.0277
25944W        W41075  15.237  16.786   4.638 -0.1256 -0.1910  0.0764
25945W        W41076  11.592  16.874  14.076  0.1430 -0.2234 -0.1899
25946W        W41077  14.494   7.583  14.439 -0.0671 -0.5566 -0.0483
25947W        W41078   9.957  16.675   5.866  0.1370 -0.0326  0.0018
25948W        W41079   6.507   1.472  11.244  0.0262 -0.1722  0.3255
25949W        W41080  16.913   3.702   0.086  0.0146  0.2197  0.0426
25950W        W41081   9.674   1.542   5.521 -0.1906 -0.1595 -0.1353
25951W        W41082  14.731   4.853  11.892 -0.0642  0.2311 -0.0798
25952W        W41083  12.652  12.099   4.658 -0.2546  0.2782  0.1050
25953W        W41084  14.751   7.093  14.231 -0.3137 -0.1246 -0.0552
25954W        W41085  10.755   7.304  11.978 -0.1965  0.0587 -0.1927
25955W        W41086  18.134   8.547   3.814  0.0258 -0.0833  0.4739
25956W        W41087  13.802  13.182  11.349 -0.1226  0.1731  0.1451
25957W        W41088  12.638   2.632   5.645 -0.1326  0.0495 -0.2343
25958W        W41089   0.527   9.791   3.793  0.1775 -0.2337 -0.1884
25959W        W41090  12.705  11.818  13.957  0.4805  0.1388 -0.1627
25960W        W41091   8.654  15.884   4.083 -0.1506 -0.0757 -0.3287
25961W        W41092   2.692   3.802   6.148  0.0591  0.2713  0.2009
25962W        W41093  16.467  16.126   2.253 -0.0297 -0.0075  0.0956
25963W        W41094  17.358  13.580   0.113 -0.1167  0.0192  0.0418
25964W        W41095  15.509  11.518   4.654  0.0722 -0.1698 -0.2283
25965W        W41096   5.660   8.702  16.123  0.0703 -0.2732  0.0644
25966W        W41097   6.637  16.592  14.016 -0.1130 -0.1388  0.2859
25967W        W41098  12.557   5.942   2.775  0.2338 -0.0283  0.5069
25968W        W41099  14.441   7.664   5.240  0.1090  0.0607  0.0452
25969W        W41100  17.443  10.560   2.817  0.1359 -0.2761  0.1035
25970W        W41101   0.265  12.563  13.886  0.1259 -0.0008 -0.0854
25971W        W41102  17.184   7.866   0.991 -0.0609 -0.0626 -0.0972
25972W        W41103   1.728  11.049   5.354 -0.2899  0.1067  0.2987
25973W        W41104  12.730   2.506   3.580  0.1817  0.0033  0.1633
25974W        W41105   4.599  10.300  10.827 -0.1265  0.0989  0.2580
25975W        W41106  12.064  12.598  11.442  0.0186 -0.0120 -0.1017
25976W        W41107  16.987  10.953   1.476 -0.0999 -0.0456  0.1800
25977W        W41108   6.442  14.715   1.495  0.1761 -0.2217 -0.3023
25978W        W41109   4.614   2.308  15.690  0.1856  0.0351 -0.0157
25979W        W41110  15.242   9.892   5.109  0.0439 -0.1516  0.1280
25980W        W41111   4.447   8.911  14.647 -0.1846  0.1271  0.4585
25981W        W41112  15.907  17.089  11.414 -0.1684 -0.0300 -0.2258
25982W        W41113  15.243  11.030   1.174  0.4670  0.0532 -0.2018
25983W        W41114   2.278  10.882   2.626  0.3927 -0.0112  0.3479
25984W        W41115   8.596   9.901  14.435  0.0376 -0.0496  0.0764
25985W        W41116   0.473   5.604  15.618  0.2538 -0.4071  0.2106
25986W        W41117   4.264   3.609   1.904 -0.1504 -0.0346 -0.0688
25987W        W41118  10.887   3.905  13.258 -0.0602  0.3329  0.0226
25988W        W41119  16.785  14.050   3.108  0.0099  0.0157 -0.0272
25989W        W41120   1.074  16.966  15.863 -0.0559  0.0879  0.1361
25990W        W41121   3.159   8.107   1.625  0.0213 -0.0242 -0.1186
25991W        W41122   0.603  12.963   3.557  0.1357  0.2256 -0.2303
25992W        W41123   2.888   3.727   1.627 -0.0932 -0.3077 -0.1821
25993W        W41124  18.092   8.057  14.268  0.1109  0.0737 -0.2158
25994W        W41125   3.244   2.828   2.172  0.0144  0.2197 -0.1880
25995W        W41126   1.646   4.625   1.489 -0.1001  0.4429  0.0937
25996W        W41127   8.711   1.490  11.360 -0.0223 -0.0904 -0.0020
25997W        W41128  13.002   9.313   5.288  0.2666  0.3125 -0.0716
25998W        W41129   9.755   8.696  11.676  0.2178  0.2222 -0.1305
25999W        W41130  12.385   4.377  15.207 -0.2847  0.3195  0.4730
26000W        W41131  11.457   9.495   0.704  0.0949 -0.1270  0.1706
26001W        W41132  16.582  17.043  14.128  0.0725  0.1071  0.2372
26002W        W41133   3.566   3.799  11.791 -0.1575  0.1640  0.1418
26003W        W41134   6.446  17.494   0.602  0.1014 -0.1316 -0.0616
26004W        W41135  17.447  17.041   3.375  0.1122  0.0364 -0.0272
26005W        W41136   6.015  17.795   4.702 -0.0205 -0.1593 -0.4002
26006W        W41137   1.245  15.584  13.231  0.1319  0.1224 -0.3048
26007W        W41138  16.757   3.289   0.792 -0.2732  0.0905 -0.4607
26008W        W41139  14.803   4.098  11.905 -0.0919 -0.1511 -0.4175
26009W        W41140   4.717  10.433   4.745  0.0871  0.1341 -0.0162
26010W        W41141   9.739  11.557  15.185  0.0490  0.0677  0.1302
26011W        W41142  15.549   5.408  12.440  0.2824 -0.0987  0.1841
26012W        W41143   1.554   1.247  14.951 -0.1685 -0.3125  0.2392
26013W        W41144   1.323  17.800   1.973 -0.2097 -0.2599  0.1104
26014W        W41145   3.809   5.345   4.623 -0.2405 -0.1223  0.0491
26015W        W41146  10.723  16.738  11.835 -0.3080 -0.1026 -0.1889
26016W        W41147  13.801   0.914   3.682  0.2507 -0.1962  0.2443
26017W        W41148  13.928  13.675  16.079  0.0168 -0.0698  0.1345
26018W        W41149   2.747   2.871  13.335 -0.1125  0.0620 -0.0761
26019W        W41150  11.214  17.598  15.505 -0.2166 -0.0725 -0.2334
26020W        W41151   6.842   1.278  14.949 -0.1516 -0.0508  0.0054
26021W        W41152   3.608   8.171  14.793  0.0018 -0.0567  0.1234
26022W        W41153  14.299  17.336  12.163 -0.2209  0.0656  0.0926
26023W        W41154  10.916   6.699  15.378 -0.3017  0.2959 -0.2040
26024W        W41155   9.842   7.137   5.408  0.3464 -0.0923 -0.1627
26025W        W41156  14.539   6.636  14.999  0.1050 -0.0224 -0.1038
26026W        W41157   3.603  12.515   3.552  0.0307 -0.0085  0.1377
26027W        W41158   0.874   3.557  13.988 -0.1805  0.1206 -0.0997
26028W        W41159  11.881  17.038  13.714  0.1393  0.0898 -0.0832
26029W        W41160  11.592   4.613  14.064 -0.0611 -0.0477 -0.0886
26030W        W41161  15.659   5.051  11.254 -0.1767 -0.1528  0.0376
26031W        W41162   0.100   7.778   3.914  0.1800 -0.1336 -0.1000
26032W        W41163  12.641  12.121  15.369 -0.2007 -0.3995 -0.0714
26033W        W41164  10.360  16.845  11.364 -0.1018  0.0486 -0.0717
26034W        W41165   5.469   6.002  15.954 -0.0419  0.1303  0.1330
26035W        W41166   2.509   5.693   0.219  0.0848 -0.3628 -0.1329
26036W        W41167   8.961   4.777  14.593  0.0269 -0.2833 -0.0654
26037W        W41168  17.800  17.233  14.888  0.2251  0.3896  0.0785
26038W        W41169  11.332   7.002   4.997 -0.3849  0.1932 -0.0921
26039W        W41170  13.650   1.352   1.479 -0.3947 -0.1430 -0.0675
26040W        W41171   8.910   2.740   3.540  0.3895  0.1198  0.0666
26041W        W41172  17.664  14.441   4.728  0.1386  0.0115 -0.1461
26042W        W41173   2.038   8.563  10.852  0.1568  0.2139 -0.0220
26043W        W41174   2.417   6.047   1.626 -0.0730  0.1577 -0.1780
26044W        W41175   6.825   0.141  11.728 -0.1971 -0.2300  0.0398
26045W        W41176  11.840   2.090   3.554 -0.2685  0.2760 -0.1856
26046W        W41177  15.025   3.760   5.307  0.2133  0.0721  0.2598
26047W        W41178   0.952   8.763  13.637 -0.0250  0.3314  0.2497
26048W        W41179  12.941  15.691   1.064 -0.0771  0.3600  0.0725
26049W        W41180  15.558   8.136  13.749 -0.0368 -0.0347  0.1804
26050W        W41181  12.716  14.554   0.733  0.0624 -0.1636 -0.1586
26051W        W41182  13.190  13.185   0.366 -0.0911 -0.3807 -0.0182
26052W        W41183   3.086   1.390   1.369  0.2208  0.0464  0.0279
26053W        W41184   6.201   3.303   1.846  0.0734  0.0560 -0.1834
26054W        W41185   5.674   5.680   3.017 -0.0967 -0.0695  0.1627
26055W        W41186   1.058  12.457  14.666  0.2102  0.0055  0.0525
26056W        W41187   1.014   2.846   2.980 -0.0365  0.1171 -0.2710
26057W        W41188   7.184  12.489  13.735  0.0466  0.2994 -0.3215
26058W        W41189   5.544  14.893   0.544 -0.0169  0.1383 -0.0680
26059W        W41190   0.159   4.430   5.658 -0.1387  0.2444  0.2828
26060W        W41191  10.663   4.629   0.149 -0.0903 -0.0742  0.1639
26061W        W41192   0.459  18.144  12.089 -0.2149 -0.2196  0.0678
26062W        W41193  11.558   7.275   3.215 -0.1276  0.0639  0.2158
26063W        W41194  11.633  14.752  14.044  0.1390  0.2011  0.0501
26064W        W41195  10.847   9.502   3.640  0.3499  0.0221 -0.2887
26065W        W41196  10.754   0.096  13.487  0.0425 -0.2039 -0.0956
26066W        W41197  13.181  18.297  13.331  0.2486 -0.1100 -0.1876
26067W        W41198  11.824  16.086   3.195 -0.1099  0.2358  0.0331
26068W        W41199  15.806  14.408  15.011  0.1817 -0.2473  0.1022
26069W        W41200   4.804  16.917  15.268  0.0342  0.1648 -0.0004
26070W        W41201  13.525   4.420  14.410  0.1288  0.2952  0.1494
26071W        W41202  11.342  10.199   4.493 -0.1938 -0.3615 -0.2451
26072W        W41203  10.906   6.086   1.665  0.2222 -0.1735 -0.0986
26073W        W41204   9.231   8.389   2.978  0.1039  0.0396  0.1478
26074W        W41205  15.657   0.653   0.508  0.0009  0.0821 -0.0816
26075W        W41206   4.916   6.196  13.865 -0.3137 -0.0119  0.0353
26076W        W41207  10.043  15.885   2.393 -0.0465 -0.3297  0.0800
26077W        W41208  10.900   4.626   5.733  0.1964 -0.2008 -0.2086
26078W        W41209   1.666  17.783   4.702 -0.0686 -0.1892  0.0389
26079W        W41210   5.282   0.510   1.331  0.0520 -0.2189  0.3574
26080W        W41211   9.920  12.243  11.652  0.4504  0.0867  0.3230
26081W        W41212  14.376  11.024  15.754  0.1617  0.0618 -0.0016
26082W        W41213   5.188   2.021   1.198 -0.3391 -0.0979 -0.2707
26083W        W41214  17.755   1.855   1.696 -0.0514 -0.0788 -0.1857
26084W        W41215   9.084  11.986   1.856 -0.1942 -0.1264  0.2643
26085W        W41216   0.783   5.909   3.781 -0.0772  0.3283  0.0018
26086W        W41217  12.884  14.807  12.044  0.0813  0.2607  0.1371
26087W        W41218  16.097   9.644  14.614 -0.1244 -0.0802  0.0176
26088W        W41219  11.536   6.871   5.828  0.3180  0.3371  0.0065
26089W        W41220  17.995   2.793  15.000 -0.0618 -0.1938  0.0269
26090W        W41221   3.829   8.416  15.497 -0.0288 -0.0549  0.1867
26091W        W41222  13.795   5.450  15.681 -0.1246  0.0777 -0.1155
26092W        W41223   3.864  14.151  14.164  0.1861 -0.0474 -0.1471
26093W        W41224   2.531  11.950   4.237 -0.5050  0.0365 -0.0950
26094W        W41225   5.536  16.454  16.041  0.2939 -0.0298 -0.3502
26095W        W41226   4.463   7.993  12.624 -0.0685  0.0979 -0.1014
26096W        W41227   1.969   1.744   2.443 -0.2021  0.0359 -0.2459
26097W        W41228   8.973   1.398   2.634 -0.0305 -0.0469 -0.3174
26098W        W41229  17.156   9.639   4.489 -0.1198 -0.0336  0.1302
26099W        W41230  16.429  15.860  16.023  0.2027  0.2217 -0.1700
26100W        W41231   7.033  12.813  14.242 -0.0166 -0.1845  0.1208
26101W        W41232  17.377  10.139  14.885 -0.2139 -0.1137 -0.0285
26102W        W41233   8.680  13.437  10.848  0.1352  0.2720  0.3433
26103W        W41234   6.931  11.312  14.810 -0.1591 -0.2105 -0.0325
26104W        W41235  12.691  10.106   4.405 -0.0344  0.0311 -0.2419
26105W        W41236   9.161   5.208  12.509  0.3405  0.1266  0.1401
26106W        W41237   3.715   6.826   1.847  0.0103  0.2512 -0.0054
26107W        W41238  14.197  18.164   0.884 -0.1379  0.3902 -0.0089
26108W        W41239   6.755   8.502  12.267 -0.0343  0.1631 -0.2842
26109W        W41240   9.699   5.878   0.512  0.0546 -0.1778 -0.2741
26110W        W41241  17.800   3.305   0.613 -0.0312  0.0123 -0.2169
26111W        W41242   6.467   1.777   0.978 -0.2216 -0.3006 -0.1366
26112W        W41243  12.575  16.204  10.882 -0.1837  0.2399  0.0305
26113W        W41244   4.591   3.724  11.501  0.1143  0.0844 -0.0708
26114W        W41245   9.810   9.340   0.773  0.3022 -0.2018 -0.0334
26115W        W41246  14.955   7.222   2.929 -0.3922  0.1582  0.0083
26116W        W41247  14.759  13.857   5.096 -0.1844 -0.1419  0.1039
26117W        W41248  17.321   9.903  15.781  0.3818  0.1628 -0.0279
26118W        W41249   7.106  17.758  15.894  0.4770  0.2475  0.0005
26119W        W41250   9.114   9.465  15.998 -0.3146  0.1403  0.0865
26120W        W41251  13.296  17.429   4.233 -0.4693 -0.3877  0.0102
26121W        W41252   3.650   3.789   1.094 -0.0148  0.1352 -0.1674
26122W        W41253   2.871   9.344   2.231  0.2959  0.2452 -0.0847
26123W        W41254  11.153   4.175  15.641  0.1433 -0.1076  0.0140
26124W        W41255  12.722  15.122  14.864 -0.2908 -0.0028 -0.2749
26125W        W41256   9.442  16.148   4.291  0.3250 -0.2045  0.2055
26126W        W41257  10.835  12.414   2.772 -0.0127  0.0915 -0.2846
26127W        W41258   4.915   6.539   2.452  0.1009  0.1022  0.1256
26128W        W41259   9.215   8.282  11.248  0.0874 -0.1613 -0.0293
26129W        W41260   6.264   1.901   0.377  0.1678  0.0031 -0.1453
26130W        W41261   2.616   2.090   4.272 -0.0013  0.2061 -0.0954
26131W        W41262   6.447   6.038  15.731 -0.0402 -0.0262 -0.1208
26132W        W41263  13.851  15.121   0.917  0.0227  0.1872  0.2671
26133W        W41264   1.167   8.340  12.636  0.1782 -0.0509  0.0552
26134W        W41265  14.808   9.894   2.596  0.2574  0.1478 -0.1633
26135W        W41266  10.672   8.010   1.124 -0.3525  0.1032 -0.1726
26136W        W41267   9.185  11.189  11.515  0.2385 -0.1967  0.1783
26137W        W41268  14.705   5.038   0.562 -0.0487  0.1025  0.3441
26138W        W41269  16.401  13.055  14.439  0.2385  0.2122  0.1124
26139W        W41270   3.255  17.936   2.013  0.1888  0.2866 -0.0711
26140W        W41271  13.023  12.409  12.136  0.1963 -0.0746  0.0265
26141W        W41272  15.876   4.765   0.951  0.0193  0.1656 -0.0172
26142W        W41273   7.401   4.199   2.962  0.0368 -0.2494  0.0340
26143W        W41274  17.616   3.864  10.223 -0.4274  0.0513 -0.0657
26144W        W41275  10.454   1.674  16.034 -0.0385 -0.0497  0.0691
26145W        W41276  15.152  10.193   3.101 -0.0574 -0.0025 -0.1170
26146W        W41277   1.841   2.725  14.600  0.2032 -0.0011  0.1241
26147W        W41278  14.333  12.029  11.314 -0.1576 -0.0295 -0.1355
26148W        W41279   7.710  12.202   0.849 -0.0216 -0.0909 -0.1625
26149W        W41280  12.310  12.195  13.013 -0.2310 -0.0998  0.2219
26150W        W41281  14.236   0.811   2.566 -0.5210 -0.3816 -0.2308
26151W        W41282  13.021   3.133  14.318  0.3547 -0.1253 -0.2062
26152W        W41283   5.478  15.871   2.470  0.0497 -0.2403 -0.0203
26153W        W41284  10.154   6.109  13.325  0.1681  0.1631  0.1292
26154W        W41285  13.575  16.683   1.793 -0.1713  0.0123  0.2286
26155W        W41286   4.139  18.204   3.780  0.0568 -0.1229  0.0369
26156W        W41287   2.573  10.277  14.844 -0.1710 -0.0726 -0.1491
26157W        W41288  11.021  15.439  11.044 -0.1706  0.0103  0.1171
26158W        W41289   7.877   9.595   3.956  0.2560  0.0030  0.0029
26159W        W41290  11.081   1.291  14.747  0.0896 -0.1325 -0.0817
26160W        W41291  15.105  12.410  14.732  0.0315  0.2879 -0.0198
26161W        W41292  16.894  12.646  10.248 -0.0348  0.1885 -0.2080
26162W        W41293   9.113   9.969   4.612  0.0347  0.2118 -0.1163
26163W        W41294  11.267   8.156   2.433 -0.2189 -0.0060  0.0926
26164W        W41295  12.456   6.055   5.399 -0.2767 -0.1051 -0.0556
26165W        W41296  16.706   0.071   1.569  0.1817  0.2965 -0.4977
26166W        W41297   6.964   8.637   3.852 -0.0939  0.1152 -0.2334
26167W        W41298  11.816   2.436  13.097  0.0452 -0.3715 -0.2782
26168W        W41299   4.845  12.812   1.140 -0.1443 -0.0405  0.0534
26169W        W41300   8.765   5.537   2.872 -0.0266 -0.0514  0.1711
26170W        W41301   5.749   4.368  15.688  0.0660 -0.0281 -0.0767
26171W        W41302   7.987  10.105  15.107 -0.0091 -0.0034  0.1315
26172W        W41303   8.350   8.532  14.472 -0.2164  0.2502  0.1186
26173W        W41304   1.423   1.612  12.231 -0.4931  0.1262 -0.0697
26174W        W41305   8.016   0.098   3.852 -0.2541 -0.0634  0.1285
26175W        W41306   2.569   3.474   1.247 -0.0780 -0.0073  0.1031
26176W        W41307  10.572  10.799  15.967  0.2366  0.1438 -0.2030
26177W        W41308   1.877  17.433  11.502 -0.2122 -0.0449 -0.1960
26178W        W41309   0.972   5.271   0.731 -0.1253  0.0413 -0.1012
26179W        W41310   6.330  16.080   0.310  0.1002 -0.3263  0.2584
26180W        W41311  18.327   2.000   2.871  0.0952 -0.0856 -0.1139
26181W        W41312  15.085   5.525   2.288  0.1636  0.0034 -0.0421
26182W        W41313   4.752  13.043  14.264 -0.1107 -0.3670  0.2560
26183W        W41314   8.570  11.738  11.317 -0.0167  0.3376 -0.0767
26184W        W41315   3.213  14.594   4.241 -0.2271 -0.1740  0.1278
26185W        W41316  11.137   6.411   1.258 -0.0887  0.0275 -0.0715
26186W        W41317   4.644   4.667  14.727  0.2619  0.2850 -0.0267
26187W        W41318   5.990   9.844   3.693  0.0780 -0.1505 -0.1540
26188W        W41319   8.218  17.331   2.963  0.1046  0.1003 -0.2259
26189W        W41320   9.006  12.342   3.330 -0.1039  0.2071 -0.1607
26190W        W41321   6.104   7.452   3.612  0.0433  0.1316 -0.2290
26191W        W41322   6.435   7.375   3.211  0.2856 -0.1238  0.0263
26192W        W41323  18.155   8.089   4.192 -0.0599 -0.0485 -0.3792
26193W        W41324  10.955  11.468  10.951 -0.0010 -0.0333 -0.0514
26194W        W41325   9.050   9.895  12.450  0.0533 -0.0175 -0.1105
26195W        W41326  14.754  15.629   2.749 -0.0768  0.2283  0.0148
26196W        W41327   2.116   1.800   1.178  0.3790  0.1564  0.1322
26197W        W41328  13.185  18.233   1.675  0.2626  0.0433  0.2237
26198W        W41329  13.507  15.169   1.684 -0.1559  0.0242  0.0674
26199W        W41330  12.279  13.443   4.458  0.1977  0.0249  0.1464
26200W        W41331   9.939  17.262   4.579 -0.1475 -0.0280  0.4843
26201W        W41332   5.037   3.742  12.274 -0.0284  0.0321 -0.2248
26202W        W41333  16.023  15.304  10.208  0.2304  0.0614  0.0195
26203W        W41334  16.332  10.305  15.422 -0.1400 -0.1926 -0.0282
26204W        W41335   2.167  11.765   0.967  0.3776 -0.3631 -0.0087
26205W        W41336   8.427  15.339  14.799  0.1931  0.0508  0.1100
26206W        W41337   5.762   3.160  11.753 -0.1656  0.1037  0.0430
26207W        W41338   9.210   0.408  11.495 -0.1084 -0.1097  0.6621
26208W        W41339   2.583   6.909   1.237  0.2564 -0.1702 -0.0811
26209W        W41340  17.102   6.616  11.942  0.1543  0.1240 -0.0934
26210W        W41341   9.583   0.497   2.460 -0.1282 -0.1479  0.1080
26211W        W41342   8.029   0.705   0.711 -0.1222 -0.1186  0.0933
26212W        W41343   5.811  10.178   4.004  0.0301 -0.0679  0.2741
26213W        W41344  11.675  18.327  12.297 -0.2820  0.2506  0.0547
26214W        W41345   7.686  17.592   3.917  0.2058 -0.0627  0.1622
26215W        W41346   6.613   6.644   5.027  0.0332  0.0655 -0.1689
26216W        W41347  17.847   8.674   0.665 -0.1762 -0.1108  0.2942
26217W        W41348   9.989   4.959   0.747 -0.1155  0.0943 -0.0349
26218W        W41349  11.045   1.020  15.603 -0.0334 -0.1648  0.0986
26219W        W41350   4.474  13.096   0.875  0.1041 -0.3069  0.0122
26220W        W41351   8.189  10.697   4.769 -0.3592 -0.1111  0.0861
26221W        W41352   1.847   3.234   1.548  0.1166  0.1094 -0.1297
26222W        W41353   9.949  17.153   2.698 -0.0843 -0.0205  0.0014
26223W        W41354   7.927   7.310   3.715  0.1175 -0.0560 -0.3228
26224W        W41355   7.482   4.083   0.128 -0.0614  0.0165  0.2599
26225W        W41356  14.540   5.729  15.018  0.0565  0.2639 -0.1128
26226W        W41357   0.311  13.376   2.568 -0.1166  0.0088  0.0973
26227W        W41358   8.569  14.871  11.661  0.1144  0.0602  0.0842
26228W        W41359  14.901   7.785  14.791  0.2047  0.2391  0.1706
26229W        W41360  10.407  10.544  10.866 -0.0183 -0.4417 -0.3789
26230W        W41361  17.434   8.170   4.889  0.1557 -0.4767  0.0017
26231W        W41362  16.389   1.266  11.962  0.1182 -0.0460  0.2365
26232W        W41363  17.584   0.391  15.589 -0.0708 -0.3210 -0.1209
26233W        W41364  16.574  16.179  12.405  0.0009 -0.2995 -0.2156
26234W        W41365   2.950   1.743   0.976  0.2678  0.2262  0.1602
26235W        W41366  15.338   4.872   4.403 -0.1499 -0.0413  0.0382
26236W        W41367  14.588   9.096  12.543  0.0108 -0.1137  0.0632
26237W        W41368  17.041  14.203   2.162 -0.1052  0.1128 -0.0385
26238W        W41369   0.587   5.162   0.393  0.0016 -0.4295 -0.0116
26239W        W41370  10.762  17.434   5.168 -0.2780  0.0462 -0.0191
26240W        W41371   5.754   4.827  15.458 -0.0674 -0.3875 -0.3055
26241W        W41372   7.294   0.511  13.770  0.1751  0.2199  0.2595
26242W        W41373  12.930   1.660   5.602 -0.1658  0.2445 -0.1806
26243W        W41374   2.686  17.753   4.312 -0.0805 -0.0366 -0.2012
26244W        W41375  17.641   1.363   4.848 -0.0076 -0.0224 -0.0424
26245W        W41376   8.154   3.549   2.731  0.0318  0.0049 -0.0075
26246W        W41377   6.891  14.939   1.506 -0.2245  0.1538  0.3438
26247W        W41378   0.576  12.012   3.554 -0.1839  0.2704  0.0442
26248W        W41379  14.553  12.712  13.527  0.4484  0.1532 -0.0226
26249W        W41380   9.990   7.340   4.904 -0.3846 -0.1701 -0.1573
26250W        W41381  10.710  12.325  12.069  0.1348 -0.3097  0.2772
26251W        W41382  11.155   0.912   4.932  0.1369 -0.1160 -0.1119
26252W        W41383  17.042  10.405   3.165  0.0177 -0.2020  0.1146
26253W        W41384   2.642   0.712   2.489 -0.0366 -0.0602 -0.1983
26254W        W41385   9.006  17.982   2.998 -0.1624  0.1513 -0.1488
26255W        W41386  12.768  12.072  13.102 -0.1530 -0.0800  0.0094
26256W        W41387   1.877  18.243  13.783  0.0144  0.1828 -0.1853
26257W        W41388   7.911   4.034  11.038  0.2275 -0.1426 -0.2984
26258W        W41389   0.019  18.032  15.277  0.2389  0.0615  0.3106
26259W        W41390   9.025   4.015   2.439 -0.2482 -0.2737 -0.2354
26260W        W41391  12.664   8.009   4.701  0.0176  0.0970  0.3324
26261W        W41392  12.293   9.695   0.930 -0.0013 -0.3383  0.0315
26262W        W41393  13.417   9.199   4.162 -0.0034 -0.1125 -0.1902
26263W        W41394  15.327  15.909   5.656 -0.0486  0.1532 -0.0790
26264W        W41395  16.689  11.370   1.296  0.0645  0.0102  0.0876
26265W        W41396   5.669   4.323   3.219 -0.1126  0.0398 -0.0558
26266W        W41397   2.379   7.410  11.580  0.1014  0.2075 -0.0875
26267W        W41398   9.345   0.532   4.906 -0.2869  0.1076  0.0696
26268W        W41399  15.802  10.132  11.675  0.3899  0.2271 -0.0923
26269W        W41400  10.917   2.259   1.854 -0.2351 -0.2774  0.0436
26270W        W41401   7.604   3.650  10.415  0.1527 -0.0128  0.0509
26271W        W41402   4.275  16.079   0.946 -0.1830  0.5441  0.0022
26272W        W41403   6.090  12.225   2.868 -0.2820 -0.1171  0.0413
26273W        W41404  13.759   6.411  15.311  0.3589  0.1530 -0.2033
26274W        W41405   2.223  12.633  11.531 -0.1525 -0.1734  0.1747
26275W        W41406  12.346  15.998   0.108 -0.1499 -0.1413 -0.2308
26276W        W41407  14.233  10.295  13.738  0.0226  0.1192  0.1977
26277W        W41408  18.141   4.803  11.857  0.0720  0.0253 -0.2320
26278W        W41409   2.574  14.892  14.603 -0.1417 -0.1263 -0.0094
26279W        W41410  13.735  15.300  10.742  0.1286 -0.0498 -0.2636
26280W        W41411   8.435   0.862   3.108  0.3755 -0.1682  0.1889
26281W        W41412  13.487  16.056  13.714 -0.0871 -0.2309  0.1406
26282W        W41413  16.358  15.951  15.135 -0.0358 -0.1063  0.2571
26283W        W41414   3.640  12.462  13.785  0.0449 -0.3173  0.2198
26284W        W41415  14.731   3.618  11.123  0.0039  0.0314  0.1882
26285W        W41416   3.270   3.241  14.199 -0.1841  0.1880  0.3796
26286W        W41417  13.838   2.958   5.459  0.0565  0.0991  0.0095
26287W        W41418  13.280   8.754   5.824  0.1163  0.1683 -0.2199
26288W        W41419   2.479  12.372   1.029 -0.3256 -0.1485 -0.1316
26289W        W41420   5.617  12.503   1.763  0.1779  0.1053  0.0449
26290W        W41421   1.514   4.156  14.194  0.2308  0.1332 -0.0961
26291W        W41422   1.012   7.591  15.047  0.1995  0.0842  0.0037
26292W        W41423  11.903  15.677  13.877  0.1958 -0.0196 -0.3175
26293W        W41424   0.975   9.810  12.807  0.1639  0.0392  0.0221
26294W        W41425   4.058   6.043   2.205  0.0580 -0.0315 -0.0882
26295W        W41426  13.424   5.406   1.510  0.0278 -0.2890  0.2605
26296W        W41427   6.487   5.217   3.920  0.0892  0.1415 -0.0088
26297W        W41428   2.072  10.019  11.904  0.4898  0.0088 -0.0311
26298W        W41429   1.254  17.150  10.637  0.0791  0.1029  0.1032
26299W        W41430  16.499  15.616   4.912  0.3403 -0.3033 -0.1853
26300W        W41431  15.963  15.749  14.904  0.1510 -0.1626 -0.0498
26301W        W41432  15.541   4.215  14.907 -0.1477 -0.2235 -0.1776
26302W        W41433   9.649   7.484   3.460 -0.3263  0.1832 -0.0530
26303W        W41434   8.008   4.575  13.200  0.2153  0.0808  0.4233
26304W        W41435  13.019   5.661   2.011  0.1290 -0.2172 -0.1912
26305W        W41436  15.739  17.784   3.555 -0.0801  0.0406  0.0215
26306W        W41437   9.558  12.464   0.228  0.2691  0.1150  0.1064
26307W        W41438   8.202  11.699   4.164 -0.0867  0.0923 -0.0901
26308W        W41439   5.762   2.716  15.092 -0.1813 -0.1480 -0.0264
26309W        W41440  11.683   7.397   1.096 -0.3216 -0.1156 -0.0678
26310W        W41441   9.745   4.884   3.817 -0.1490 -0.4125  0.1006
26311W        W41442   3.084   4.038  11.265  0.0270  0.1100  0.1542
26312W        W41443   5.941  16.522  11.826  0.0123 -0.0858 -0.2135
26313W        W41444   1.727  10.690   0.777 -0.1644  0.2066 -0.0123
26314W        W41445   9.179   9.743   1.965  0.0199 -0.0182  0.7007
26315W        W41446   3.367   0.206  11.904 -0.1076  0.0037  0.1166
26316W        W41447   3.847  12.130  14.178  0.0011  0.2748 -0.0311
26317W        W41448  10.631  12.767   5.532  0.0951 -0.0220 -0.0299
26318W        W41449  10.290  18.327  10.803 -0.2256 -0.4831 -0.0333
26319W        W41450  10.866  11.864   0.289  0.0515  0.3582  0.1402
26320W        W41451  13.248  14.181   2.707 -0.1634 -0.2598 -0.0757
26321W        W41452   0.912  14.630  11.023  0.2728 -0.3193  0.0715
26322W        W41453   0.990   7.641  14.539 -0.0532 -0.1094  0.0963
26323W        W41454   5.286   0.332   0.444 -0.1836 -0.1340  0.4140
26324W        W41455   2.481   2.468   2.973  0.2334  0.1371 -0.0686
26325W        W41456  15.461   1.850   6.477  0.0354  0.1291 -0.1181
26326W        W41457  16.000   1.263   1.611 -0.2161 -0.0295 -0.1723
26327W        W41458   9.128   7.367   2.071 -0.0994  0.2128 -0.0858
26328W        W41459   8.813  14.999  16.105  0.1458  0.1309  0.1184
26329W        W41460   8.815  17.153   5.081 -0.1647 -0.0475  0.1174
26330W        W41461  16.513  10.572  15.089 -0.1753  0.1900 -0.0917
26331W        W41462   5.517   1.620   4.042 -0.2157  0.0361 -0.1250
26332W        W41463   8.866   2.252   3.794 -0.1342 -0.1218  0.0085
26333W        W41464  14.523   3.003   1.281  0.1782  0.0494  0.0809
26334W        W41465  12.317   5.477   1.810 -0.0781  0.2044 -0.0854
26335W        W41466   7.127   4.283  14.021 -0.1875  0.1877  0.1074
26336W        W41467  12.893   4.393  12.544 -0.2792 -0.0458 -0.0601
26337W        W41468  16.414  14.380  13.825  0.1794 -0.1184 -0.2989
26338W        W41469   3.642  13.895   2.659 -0.4665 -0.1747 -0.2765
26339W        W41470   4.788   0.435  11.369  0.2265 -0.1621  0.2891
26340W        W41471  12.308   5.286  15.413  0.1466 -0.1707  0.0094
26341W        W41472   0.633  10.509   0.007  0.0694  0.0767  0.1195
26342W        W41473   2.682   3.496   2.908 -0.2786  0.2320 -0.1008
26343W        W41474   0.222   4.097  14.257 -0.0388 -0.0279 -0.4947
26344W        W41475   5.461  12.320   0.571  0.1381  0.1085  0.1337
26345W        W41476   5.121  14.157   3.954 -0.2192  0.2253  0.2262
26346W        W41477   4.117  12.392   3.812  0.0693 -0.2053  0.2067
26347W        W41478  17.776   6.228   1.268 -0.0103 -0.0520  0.0702
26348W        W41479  10.040   8.625   1.596 -0.6142  0.2100  0.1546
26349W        W41480   9.179  10.047  15.089 -0.1640  0.2574  0.2751
26350W        W41481  12.159  17.470   2.581  0.1636 -0.0978  0.0067
26351W        W41482   6.533  13.511   2.645 -0.0015 -0.1280  0.1317
26352W        W41483   5.914   5.240   1.652 -0.0434  0.2625 -0.0119
26353W        W41484   0.102   3.919   0.148 -0.0330 -0.0788 -0.1005
26354W        W41485   2.388  16.486   4.970  0.0778 -0.1346 -0.1493
26355W        W41486   5.999  10.241   1.237 -0.0677 -0.0749  0.1555
26356W        W41487  11.339  14.310   4.857 -0.1484 -0.2120  0.1846
26357W        W41488   3.870   5.563   5.482  0.1069  0.0358  0.1189
26358W        W41489   9.949   7.038  13.333 -0.1934  0.0444  0.2945
26359W        W41490   6.935  15.163   0.532  0.0619  0.1250  0.3457
26360W        W41491  17.270  15.454  14.748 -0.0943  0.0236 -0.1092
26361W        W41492  12.107   7.317   1.351 -0.0815  0.1314  0.1461
26362W        W41493  16.454   8.587   2.404  0.1259  0.2235  0.1001
26363W        W41494  10.427   4.460   1.395  0.0736 -0.2209 -0.1518
26364W        W41495   8.747   1.313  13.948 -0.2988 -0.0495 -0.5550
26365W        W41496  10.790  13.041  13.153  0.1783 -0.1578 -0.2430
26366W        W41497   0.863   0.953   3.883 -0.0914  0.0682 -0.1697
26367W        W41498  18.108  18.008   1.366  0.2677  0.0270 -0.1205
26368W        W41499  12.174   4.367   2.631  0.0603  0.0719 -0.1833
26369W        W41500  17.371  16.943   5.600  0.1174 -0.1003 -0.1000
26370W        W41501   7.588   5.123   1.150 -0.2077 -0.1774  0.0426
26371W        W41502  13.742   1.264  12.435 -0.0585  0.0849 -0.0443
26372W        W41503   0.920   4.777   3.747 -0.2290 -0.0672  0.1141
26373W        W41504   3.489  15.108  12.125  0.0052 -0.0599  0.0498
26374W        W41505   3.688   3.521  12.877  0.1732 -0.0125 -0.0560
26375W        W41506   0.149   2.362   0.101 -0.0461 -0.1301  0.2837
26376W        W41507  10.999  16.402  10.800 -0.0853 -0.1966  0.0155
26377W        W41508   3.200   8.901  10.206  0.0443  0.1332  0.0649
26378W        W41509  12.333   9.225  13.299  0.1716  0.0579  0.2854
26379W        W41510  12.337  14.913  12.817 -0.2594 -0.1337  0.1142
26380W        W41511  14.815   2.314  13.676  0.0869  0.0662 -0.2926
26381W        W41512  16.606   2.610   4.920 -0.0350  0.0427 -0.1411
26382W        W41513   3.512  15.094  15.707 -0.2223  0.5759  0.0276
26383W        W41514   6.402   1.073  10.976 -0.1918 -0.0072 -0.2145
26384W        W41515   0.969  16.755  13.039  0.1351 -0.7611  0.0093
26385W        W41516  14.702   2.023  12.764  0.0594  0.1007  0.0097
26386W        W41517   8.990   0.851  13.528  0.1010 -0.2560 -0.0442
26387W        W41518  13.828   9.158   4.940 -0.1716  0.2200  0.2002
26388W        W41519   0.233  11.633   0.536 -0.1991  0.0614  0.1353
26389W        W41520   5.217  12.651   0.818 -0.2222 -0.0922  0.1626
26390W        W41521   2.644   1.290  13.737 -0.2808  0.2067  0.0585
26391W        W41522   4.131  15.164  11.032 -0.1183 -0.0311 -0.0736
26392W        W41523   4.916  12.306  11.974  0.0159  0.1422  0.0913
26393W        W41524  16.121  12.219   2.310 -0.2336  0.2542 -0.0057
26394W        W41525   4.572  13.104  15.979  0.4826 -0.0483 -0.4278
26395W        W41526   5.974   2.061  13.383 -0.3486  0.0994  0.1321
26396W        W41527   3.894   8.129  16.014 -0.3546  0.2201  0.2336
26397W        W41528   3.505   3.254   0.879 -0.3490 -0.1664 -0.1477
26398W        W41529  15.448  12.821  11.343  0.1158 -0.2606 -0.0032
26399W        W41530  16.172   7.078   3.338 -0.2449 -0.0470  0.2073
26400W        W41531  15.651   9.847  11.282 -0.2100 -0.1478  0.1623
26401W        W41532   1.311   3.074  12.788 -0.1239  0.0317 -0.2910
26402W        W41533  13.614  16.953   3.442 -0.2420  0.0052  0.2323
26403W        W41534   9.502  13.969  14.789  0.2695  0.2027  0.1531
26404W        W41535  14.313   2.471  13.668  0.3819  0.1985  0.1067
26405W        W41536  13.081   9.729  12.691 -0.3166 -0.2130  0.2188
26406W        W41537  13.855  12.314   2.383 -0.1960  0.2116  0.1345
26407W        W41538   5.217   5.012  15.464  0.0839  0.0512 -0.2161
26408W        W41539  16.922  10.438   5.480 -0.1380 -0.0344  0.0992
26409W        W41540  12.186   7.773  15.582  0.2360 -0.1065  0.0553
26410W        W41541   2.629   1.425  10.746 -0.0978  0.0241 -0.2378
26411W        W41542   4.125   2.160   4.820  0.2922  0.0947 -0.0684
26412W        W41543  16.624  11.862  11.824  0.2390  0.0442 -0.0933
26413W        W41544  16.240   9.472  12.103  0.0249 -0.0338  0.0213
26414W        W41545   2.655  13.834  11.578 -0.2253  0.0421  0.0665
26415W        W41546   7.204  10.006  14.614 -0.0961  0.1521 -0.2477
26416W        W41547  14.264  17.148  13.616  0.1476 -0.0498 -0.0799
26417W        W41548   1.541  14.797   3.373 -0.0449  0.0267 -0.0671
26418W        W41549  16.901  17.372  14.260 -0.1261  0.0673 -0.1642
26419W        W41550  12.267  13.289   3.448 -0.1550 -0.2701 -0.0696
26420W        W41551   1.993   4.054   4.928 -0.0222  0.1165 -0.0999
26421W        W41552  15.840  10.154  13.221  0.1576 -0.0348  0.1984
26422W        W41553  16.188  10.763   3.346 -0.1065  0.0430 -0.1816
26423W        W41554  11.150  15.146  14.000 -0.1353  0.4123  0.1514
26424W        W41555  16.526  11.445   2.633  0.0006 -0.0215 -0.4662
26425W        W41556  17.365   2.603   3.956  0.1250 -0.0187 -0.1927
26426W        W41557   8.065  17.133  15.610 -0.1658 -0.0412  0.0090
26427W        W41558   5.290  16.788   0.916 -0.0572 -0.1638 -0.0290
26428W        W41559  14.236   6.509   1.415  0.1422 -0.0577  0.0641
26429W        W41560   5.201   6.635   4.487  0.0086  0.0127 -0.0110
26430W        W41561   7.025  15.102   9.857  0.1272  0.2428  0.1288
26431W        W41562   3.046   5.592  11.581  0.1468 -0.0722 -0.0001
26432W        W41563  11.961   2.706   2.455  0.0745 -0.1269  0.1568
26433W        W41564  13.988   1.224   2.753  0.0426 -0.1216  0.0197
26434W        W41565   3.995  16.306  16.128  0.0656 -0.1080  0.1014
26435W        W41566   8.471   3.284   2.358  0.0485 -0.0252 -0.4330
26436W        W41567   1.280   9.690   3.921  0.1590  0.0902 -0.1893
26437W        W41568   2.933   5.282  14.585 -0.1547  0.2265 -0.0619
26438W        W41569  13.287   6.563  12.377  0.0705 -0.0645  0.1848
26439W        W41570   5.067  11.613  11.983  0.1995 -0.2064  0.1090
26440W        W41571  11.371   6.192  11.107  0.0519  0.0929 -0.2343
26441W        W41572   1.397   3.893   3.020 -0.0285 -0.2205  0.2264
26442W        W41573  17.635   8.721   0.233 -0.0883 -0.3519 -0.1947
26443W        W41574   8.556   8.319   2.088 -0.3646 -0.2507  0.1381
26444W        W41575   9.413  14.086  16.045 -0.0847  0.3320  0.1707
26445W        W41576   6.976   4.471   2.888 -0.1532  0.3170 -0.4075
26446W        W41577   3.292   7.966   4.079  0.1042 -0.1866  0.2784
26447W        W41578  12.615  10.573  16.037 -0.1220 -0.0767 -0.2114
26448W        W41579  17.382   1.445  13.423 -0.1272 -0.0515 -0.1525
26449W        W41580  14.437   8.983  15.863 -0.0297  0.0360  0.2655
26450W        W41581  17.077   2.309   2.322 -0.0340  0.1454  0.1474
26451W        W41582   1.886  10.812   2.859  0.3170  0.0647  0.3024
26452W        W41583  14.853   1.814  11.331  0.4161 -0.2154 -0.1770
26453W        W41584   6.491   9.814   0.361 -0.2177  0.0100  0.1850
26454W        W41585  11.489  15.115  10.079 -0.2018  0.1365  0.1152
26455W        W41586  16.776   4.866  10.887  0.2261  0.2425 -0.0836
26456W        W41587   2.897   3.361   5.488  0.1676  0.1824 -0.2177
26457W        W41588   6.426   6.952  13.753 -0.1312  0.0778  0.0724
26458W        W41589   3.347  13.938  12.566 -0.1981  0.1830 -0.1821
26459W        W41590   1.959  17.656   0.774 -0.3813 -0.1951  0.1097
26460W        W41591   6.305   4.260  11.156  0.0017 -0.1363  0.2629
26461W        W41592   7.455   4.634   0.355 -0.2362 -0.3303 -0.0736
26462W        W41593  11.627   0.847   5.857  0.0814  0.0321  0.5241
26463W        W41594   5.035  15.755   2.727  0.0989  0.2241 -0.0763
26464W        W41595  10.134   1.848  12.957  0.1245  0.2185 -0.4704
26465W        W41596  12.409   9.746  15.793 -0.2515 -0.4653 -0.2877
26466W        W41597   6.905  13.847  14.140 -0.3631 -0.1689  0.0331
26467W        W41598   5.167  15.544  15.222  0.4622  0.2562 -0.0681
26468W        W41599  16.336   2.659   3.047 -0.0383  0.2752 -0.1519
26469W        W41600  18.217   3.780   5.034 -0.2776  0.0445 -0.1641
26470W        W41601   7.014   4.459  13.584 -0.0938 -0.2958  0.1683
26471W        W41602   4.609   5.763   2.298 -0.2680  0.1241 -0.1733
26472W        W41603  12.536   9.653   4.716 -0.0747  0.1463  0.2634
26473W        W41604  15.924  15.563  15.870  0.2409 -0.2863  0.1734
26474W        W41605  16.948   8.012  15.428  0.0623  0.1421 -0.0509
26475W        W41606  15.112  15.229   4.541 -0.0070  0.0045 -0.2967
26476W        W41607   3.375  16.641  10.247 -0.2978 -0.0108  0.0111
26477W        W41608   0.277   2.176  14.103  0.0114 -0.0598  0.0211
26478W        W41609   4.007  13.267   1.117 -0.2243  0.1219  0.0738
26479W        W41610   1.778  13.035  13.741  0.1714 -0.2586 -0.2023
26480W        W41611   4.463   1.519   2.088  0.0200 -0.2006 -0.2845
26481W        W41612  11.504   3.609   0.223  0.0393  0.1167  0.3149
26482W        W41613  12.147   0.999   4.782 -0.1014  0.1434 -0.0947
26483W        W41614   7.183  10.687  11.766 -0.2188 -0.0193  0.1220
26484W        W41615   5.325  13.890   0.905 -0.0982 -0.1229  0.0051
26485W        W41616  10.511   2.112  10.673  0.1945 -0.3431  0.1458
26486W        W41617   2.324   3.670  12.536 -0.0514 -0.0080 -0.1068
26487W        W41618  10.425   6.423  14.561  0.4600 -0.0447 -0.2389
26488W        W41619   4.679  18.049  15.017 -0.1537  0.0093 -0.0805
26489W        W41620   7.148  18.167  10.967 -0.0460  0.1663  0.0783
26490W        W41621   4.671   2.397   1.342 -0.1176 -0.1683  0.0194
26491W        W41622   8.897   0.764   2.578 -0.0567 -0.1533  0.3556
26492W        W41623  10.843  15.039   4.230  0.1863  0.0225  0.2516
26493W        W41624   2.291   0.366   1.285  0.0431 -0.1142 -0.1756
26494W        W41625  15.745   6.639   0.685 -0.0174 -0.1854 -0.0436
26495W        W41626  13.930   0.736  10.880 -0.1019 -0.0386 -0.0005
26496W        W41627  14.033   5.112   2.897  0.1984  0.0179 -0.2800
26497W        W41628  14.317  10.123  14.910  0.2295 -0.1171 -0.0379
26498W        W41629  10.635  12.366   3.307 -0.0185 -0.2107  0.2052
26499W        W41630   7.637   8.979   0.719 -0.1927  0.2340 -0.1982
26500W        W41631   7.627   2.001  11.610  0.2180 -0.0774 -0.1191
26501W        W41632   1.552   6.965   3.092 -0.1111 -0.0329  0.0852
26502W        W41633  14.282   6.688  13.398 -0.1627 -0.0302  0.0769
26503W        W41634   2.701   0.281   4.183  0.2475 -0.0173 -0.1715
26504W        W41635  13.048   4.491  12.086  0.0928 -0.2059  0.1559
26505W        W41636  13.543   5.095   1.143  0.2460  0.2836  0.3160
26506W        W41637   7.767   6.671   2.199  0.1705 -0.2489 -0.1577
26507W        W41638   5.942  16.959   2.467 -0.2401 -0.3464 -0.1916
26508W        W41639   9.944   9.475  14.396  0.3032  0.2363 -0.1868
26509W        W41640   1.250   4.424  11.714 -0.1739  0.1744  0.0976
26510W        W41641   2.651   0.655  11.129  0.0707 -0.1434  0.2274
26511W        W41642   6.810   7.451   0.769  0.1515  0.0571 -0.3049
26512W        W41643   2.380   1.683  13.935 -0.0355 -0.1667  0.2929
26513W        W41644  16.535   7.802  11.096  0.1595 -0.0487  0.2779
26514W        W41645   6.662   6.873   3.136 -0.2419 -0.0122  0.2800
26515W        W41646  14.497   0.675   4.707  0.1439  0.0966  0.1049
26516W        W41647  10.631  12.396   3.853  0.2346 -0.2906 -0.0329
26517W        W41648   2.429  14.216  15.445  0.0176 -0.2009 -0.1377
26518W        W41649   4.903  16.100   2.027 -0.0403 -0.0335 -0.3011
26519W        W41650  15.457  17.351  12.125  0.0420 -0.1680 -0.1865
26520W        W41651   3.405  10.964  15.843 -0.2903  0.0850 -0.0214
26521W        W41652   2.504   7.446  12.606 -0.0078  0.1035  0.0304
26522W        W41653   8.593   9.074  14.106 -0.0152 -0.2126 -0.1013
26523W        W41654   8.143   4.993   1.077 -0.0764 -0.0315  0.0263
26524W        W41655  12.449   1.596  10.624 -0.2881  0.2056  0.1424
26525W        W41656  14.457   8.210   1.485 -0.0352  0.1626 -0.1548
26526W        W41657   6.329  11.259   3.364 -0.3012 -0.0225 -0.0304
26527W        W41658   3.682   1.729   2.861 -0.1143 -0.1542  0.0975
26528W        W41659   1.616   2.725  11.246  0.0758 -0.1695  0.1905
26529W        W41660   5.767  16.470   2.548  0.0750  0.0573  0.1143
26530W        W41661   2.177  11.085  14.844 -0.3307 -0.0445 -0.2285
26531W        W41662  10.709   2.624  12.680 -0.1776  0.1705 -0.0498
26532W        W41663   8.357   7.475  15.864  0.1421 -0.0124 -0.0650
26533W        W41664   2.259   0.096   4.561 -0.1479  0.2847 -0.2339
26534W        W41665   6.460  12.561  12.695 -0.2496  0.2227 -0.1132
26535W        W41666   5.761  10.123  12.075 -0.0017 -0.0133  0.2473
26536W        W41667   5.912   2.147  11.150 -0.3291  0.0270  0.1088
26537W        W41668  17.583  15.807   6.186 -0.1850  0.2210 -0.3306
26538W        W41669   3.695   9.341  13.201  0.2479  0.2140  0.0749
26539W        W41670  15.426   1.871  12.921  0.1004 -0.1664  0.0112
26540W        W41671   2.486  15.575   2.287 -0.2900 -0.2789 -0.1944
26541W        W41672  16.594   5.392  14.090 -0.3475  0.0838 -0.3155
26542W        W41673   0.256   7.432   9.971  0.2016  0.0496 -0.0174
26543W        W41674   7.829   3.567   1.769  0.4047 -0.0117  0.2285
26544W        W41675   8.141   7.095   1.933  0.1281 -0.1638 -0.0992
26545W        W41676  16.051   9.088  15.803 -0.0430  0.3579  0.0678
26546W        W41677   5.508   8.208  14.734 -0.0472 -0.0469 -0.2232
26547W        W41678   9.444  17.760  12.491  0.2064  0.0005  0.0540
26548W        W41679   2.176   1.376   0.970  0.3136 -0.0399  0.0579
26549W        W41680   0.432  16.334   6.169 -0.2126 -0.3268 -0.1131
26550W        W41681   2.560   6.703  11.839 -0.2452  0.2026 -0.0532
26551W        W41682   5.512   9.392  15.553 -0.2176  0.1965 -0.0624
26552W        W41683   1.712  14.430  12.797  0.1811  0.0343 -0.2098
26553W        W41684  10.147  14.787  15.199  0.0291 -0.1049  0.0210
26554W        W41685   1.787  12.251  13.138  0.2683  0.2310  0.2353
26555W        W41686  12.410  11.038   0.043  0.0071 -0.2150 -0.0067
26556W        W41687  15.582   1.435   2.920  0.1723  0.1848 -0.0324
26557W        W41688   5.070   5.407  10.300 -0.2698 -0.5034 -0.2303
26558W        W41689  13.564   4.371   4.199 -0.3452  0.0941 -0.0257
26559W        W41690   1.248  17.862  13.020  0.3284 -0.0811 -0.0018
26560W        W41691   7.629   0.827  14.037 -0.0436  0.2739 -0.1512
26561W        W41692   7.331   3.329   1.063 -0.2772 -0.0084  0.1305
26562W        W41693   9.666  14.894  15.415 -0.0576 -0.1022  0.0849
26563W        W41694   4.674  12.127  13.700 -0.0713  0.1159 -0.1551
26564W        W41695  10.242  14.385  14.398  0.2449 -0.1826  0.0679
26565W        W41696  14.767   5.353  14.386  0.0169 -0.1300 -0.1123
26566W        W41697  13.556  13.172   1.125  0.1799  0.0866  0.1401
26567W        W41698   9.519  10.676  10.827  0.0459  0.0852 -0.0203
26568W        W41699  15.967   3.239  14.266 -0.4422  0.0118  0.2623
26569W        W41700  11.582   2.304   4.495 -0.0145  0.2660  0.2377
26570W        W41701   8.939   0.182  12.692  0.1072  0.2240 -0.0404
26571W        W41702   2.836  14.607   5.179  0.0061  0.0824 -0.0702
26572W        W41703   8.269  11.161  11.391 -0.0302  0.0920 -0.0036
26573W        W41704   8.625  17.403   2.337  0.0835  0.4632  0.0822
26574W        W41705  10.590   6.263   2.421 -0.0136 -0.3514  0.2191
26575W        W41706  18.145  13.828   3.225  0.1160 -0.2336  0.0053
26576W        W41707  12.152   4.018  13.618  0.0819  0.0396 -0.1562
26577W        W41708   0.676   7.336  13.565  0.0746 -0.0205  0.0860
26578W        W41709   5.883   9.113  16.040  0.1690  0.1286  0.1777
26579W        W41710   0.202  17.555  13.722  0.3031 -0.4096  0.0017
26580W        W41711  14.658  10.153   2.965  0.0378 -0.0737 -0.2047
26581W        W41712  15.135   4.499  15.272  0.0067 -0.0608  0.3835
26582W        W41713  15.644  12.967   1.445 -0.0197 -0.1345 -0.2471
26583W        W41714   5.091   9.613  15.739 -0.1819  0.0744 -0.1062
26584W        W41715  18.348   3.325  11.622  0.2231 -0.0759  0.0988
26585W        W41716   9.721  12.448  11.231 -0.1575  0.1413 -0.2863
26586W        W41717   7.877  11.949  11.740 -0.0625 -0.1246  0.0721
26587W        W41718  17.728  16.664   5.579  0.0952  0.2670  0.0030
26588W        W41719  11.379   3.483  14.155 -0.0589  0.0946  0.0101
26589W        W41720   8.143   2.353  10.206  0.0551 -0.2443  0.2717
26590W        W41721   6.925  13.590  15.549 -0.0750 -0.2926  0.0873
26591W        W41722   8.491  12.798  10.049 -0.0572 -0.1390 -0.0454
26592W        W41723  16.333  15.088   0.505  0.1174  0.1203 -0.1851
26593W        W41724  15.856   0.413   4.657 -0.3565 -0.0009  0.4626
26594W        W41725   9.805  18.351  12.448  0.1582  0.0376 -0.0714
26595W        W41726   3.974   5.450   2.871 -0.0526  0.1089 -0.0650
26596W        W41727  13.269   9.615  11.184  0.0671 -0.2014 -0.1274
26597W        W41728  13.540   4.954   0.629 -0.1020 -0.0656 -0.0122
26598W        W41729  15.885   4.097   1.582 -0.1486 -0.0466 -0.0772
26599W        W41730   7.269  11.629   5.623 -0.1172  0.1250 -0.3862
26600W        W41731   1.000   7.561   3.111 -0.2766  0.0695 -0.2501
26601W        W41732  10.613  17.794   1.205 -0.3164 -0.2186 -0.0076
26602W        W41733   8.080   0.359   5.223 -0.1844  0.0398  0.1977
26603W        W41734   1.980   3.532   4.233 -0.0031  0.1716  0.1835
26604W        W41735   5.437  10.472   3.904 -0.2730 -0.1783  0.1183
26605W        W41736  10.689   4.026   1.331 -0.3580  0.1483 -0.1159
26606W        W41737   8.197   5.098  12.536  0.0764 -0.0817 -0.0578
26607W        W41738  12.029   5.235  10.592  0.0166 -0.0020 -0.1026
26608W        W41739  15.294   8.257  12.939 -0.1411 -0.1084 -0.1107
26609W        W41740  16.279  14.775   0.090  0.1600 -0.3039 -0.0801
26610W        W41741  10.665   6.836   4.650  0.0630  0.3079  0.0386
26611W        W41742   7.773  11.798  13.990  0.3179  0.1990 -0.2628
26612W        W41743  17.138   4.879   5.407 -0.3522 -0.0116  0.0053
26613W        W41744  11.378   9.452   4.946 -0.3359  0.1998 -0.0911
26614W        W41745  12.491  16.089   1.739 -0.1792 -0.0751 -0.2404
26615W        W41746   5.669   1.083   2.268 -0.0952  0.0206  0.3470
26616W        W41747  16.696   5.776   9.952 -0.0657  0.2086  0.3173
26617W        W41748   2.810  10.857  11.891 -0.0083 -0.0454  0.0505
26618W        W41749  11.610  16.942  12.403 -0.0747  0.0260 -0.0586
26619W        W41750   0.912   0.693  11.873  0.1091  0.1840 -0.1367
26620W        W41751   0.221   8.284   3.978 -0.2094  0.2786  0.1359
26621W        W41752  13.489   0.818  11.502 -0.0854  0.1143 -0.0407
26622W        W41753   5.043   7.346   3.765 -0.2737  0.0106 -0.3339
26623W        W41754  11.204  15.491   5.546  0.0408  0.1929  0.1177
26624W        W41755  14.899  17.702   2.775 -0.3697 -0.0522  0.0721
26625W        W41756   7.132  10.021   1.291  0.1444 -0.3519  0.2836
26626W        W41757  16.861   1.041  15.835 -0.0191 -0.0801 -0.3974
26627W        W41758  15.621  16.989  13.955 -0.1804 -0.1610  0.0231
26628W        W41759   0.365   6.983   2.720  0.1148 -0.0268 -0.1345
26629W        W41760   6.103  18.042   1.711  0.1747  0.0410 -0.0645
26630W        W41761  17.996   8.414  16.098 -0.0871  0.0112  0.0734
26631W        W41762   2.684   5.496  14.167  0.2721  0.3466 -0.4234
26632W        W41763   4.153   8.144  13.371 -0.1319 -0.0410 -0.3307
26633W        W41764   4.993   2.907  14.728 -0.2619  0.1220  0.1310
26634W        W41765  10.029   9.643  14.870 -0.1939 -0.2298 -0.3080
26635W        W41766   4.687  15.976   0.618 -0.1001 -0.1026  0.0215
26636W        W41767   2.175   4.689  14.448 -0.0809  0.1778  0.0802
26637W        W41768   7.128  17.102   1.818  0.0021 -0.1003  0.2241
26638W        W41769   6.640   1.657  11.648  0.2748  0.0909 -0.0322
26639W        W41770   5.688   4.451  12.432  0.0089 -0.1559 -0.1151
26640W        W41771   2.014   6.064  15.751 -0.1745  0.1919 -0.3138
26641W        W41772   3.095   3.539   1.133 -0.4906 -0.1649 -0.1494
26642W        W41773  16.148  13.273  12.608  0.2913  0.1207  0.0329
26643W        W41774   1.070  14.237   2.996 -0.3332 -0.0476  0.0826
26644W        W41775  13.359  17.565   3.746  0.0758  0.0677 -0.0704
26645W        W41776   1.826   0.372  13.757  0.1876  0.2780 -0.0447
26646W        W41777  17.713  16.965  14.453 -0.0404  0.0727 -0.1353
26647W        W41778   4.656   9.738   4.708 -0.0497 -0.0382  0.1686
26648W        W41779   6.728  16.561  14.784  0.0853  0.2536  0.0070
26649W        W41780   8.899   3.796  11.856 -0.3336 -0.0816  0.2654
26650W        W41781  16.316  11.536   4.486  0.0904  0.2740  0.0390
26651W        W41782   6.282   1.275  15.057 -0.0314  0.0138 -0.0021
26652W        W41783  14.317  15.690  12.582  0.0936 -0.0032 -0.1419
26653W        W41784  11.158   3.716  14.892 -0.0024 -0.0197 -0.2088
26654W        W41785  12.064   4.680  14.634 -0.0245  0.2872 -0.2729
26655W        W41786  10.609   5.759   2.679 -0.0607  0.1404  0.2846
26656W        W41787  13.403  15.495   2.723 -0.1098  0.0472 -0.2225
26657W        W41788   0.531  14.482  15.007  0.0938  0.0716 -0.1970
26658W        W41789   7.166   4.373   3.363  0.1766 -0.0737  0.1112
26659W        W41790   7.245  17.119  12.414  0.3051  0.2936  0.0868
26660W        W41791  12.959   8.430  15.476  0.3302  0.0209 -0.2469
26661W        W41792  10.637  11.681  12.193 -0.2165  0.2178 -0.1752
26662W        W41793   0.646  17.444   0.687  0.0426  0.4119  0.1306
26663W        W41794  16.801  10.747  12.376  0.2129  0.0218 -0.2656
26664W        W41795  15.975   0.173  14.197  0.1572 -0.0240  0.1370
26665W        W41796   9.799   7.559  13.681 -0.1444  0.4512 -0.0940
26666W        W41797  14.502   5.326   2.739  0.1433  0.1225 -0.1501
26667W        W41798   8.002   3.410   3.761 -0.2102  0.2962 -0.0139
26668W        W41799   4.251  10.460   5.041 -0.2684  0.1148  0.1374
26669W        W41800   6.852   3.071   2.492 -0.3288  0.0908  0.2793
26670W        W41801   5.490  14.108   4.799 -0.4265  0.0809  0.3501
26671W        W41802   3.550  13.889   1.732 -0.1377 -0.0464 -0.0054
26672W        W41803  12.619   3.581  12.353  0.2690  0.0549  0.0722
26673W        W41804   5.184  14.246   0.045 -0.1854  0.1845 -0.1387
26674W        W41805   9.385   6.943   4.199  0.0349 -0.1686 -0.1867
26675W        W41806   3.375   1.902  13.762  0.0863  0.1290 -0.1708
26676W        W41807   1.578  17.330   4.387  0.0825 -0.4507  0.0294
26677W        W41808   3.065  16.495   0.981 -0.2541 -0.0205 -0.0207
26678W        W41809   2.391   0.881  14.243 -0.0511 -0.0738 -0.0254
26679W        W41810   6.471  10.237   1.355  0.0431 -0.0257 -0.2544
26680W        W41811   7.377  16.993  13.428 -0.0629 -0.0267 -0.1112
26681W        W41812  16.046   8.234   1.489  0.0692 -0.1766  0.0707
26682W        W41813   4.449   4.021   5.181 -0.0013  0.0923  0.1777
26683W        W41814  17.281   1.832   2.470  0.1649  0.1099  0.2203
26684W        W41815  12.632   5.172   4.936  0.0972 -0.0344  0.1141
26685W        W41816  13.069   5.236   5.922 -0.2214  0.1592 -0.1042
26686W        W41817  10.280  15.125   5.120 -0.1131  0.4918 -0.1185
26687W        W41818  15.956  12.833  13.267 -0.0822  0.1856  0.0110
26688W        W41819   7.838   8.569   1.515  0.0475 -0.2332  0.2677
26689W        W41820  13.186   4.824   3.490  0.1547 -0.1861  0.1473
26690W        W41821  11.296   9.493  11.280  0.1059 -0.3607 -0.0569
26691W        W41822   0.428   4.278  10.668  0.0641 -0.2138 -0.2593
26692W        W41823  13.817   5.898  15.434 -0.1341  0.0124  0.0208
26693W        W41824   7.577  14.124   3.991  0.1169 -0.2931  0.0567
26694W        W41825   9.553  13.679  10.824 -0.0507 -0.3067  0.2503
26695W        W41826   0.192  16.765   4.650 -0.0563  0.0570 -0.0499
26696W        W41827  13.681   9.884   2.966 -0.2069 -0.3678  0.1303
26697W        W41828   0.356   1.774  11.440  0.0909 -0.3508 -0.1958
26698W        W41829  11.111   4.238   0.572 -0.1715  0.0156 -0.3387
26699W        W41830   2.621   5.051   3.912 -0.0369  0.2002  0.2248
26700W        W41831   8.139   5.720  14.819 -0.1962 -0.0117 -0.2488
26701W        W41832   0.319  15.952  10.474 -0.1726 -0.0500  0.0154
26702W        W41833   1.682   2.716  15.609  0.1664  0.1376  0.0501
26703W        W41834   6.286   5.411   4.681 -0.0712 -0.1855 -0.3421
26704W        W41835   8.829  17.661  14.308  0.0179 -0.1820 -0.2575
26705W        W41836   8.950  15.479  12.106  0.1579  0.0312  0.3930
26706W        W41837  15.011   7.353   0.436  0.1182 -0.0209  0.1901
26707W        W41838   5.894   4.334  11.974 -0.1043  0.1946  0.2208
26708W        W41839   4.458  13.507   2.975  0.0944  0.4393  0.0277
26709W        W41840  14.488  16.766   5.048 -0.3504  0.1557 -0.1275
26710W        W41841  10.251  12.510   0.025 -0.1360  0.1512  0.0795
26711W        W41842   0.443   4.947   3.577 -0.1012  0.2825  0.0127
26712W        W41843   6.488  16.284  13.656 -0.3385  0.1243  0.3185
26713W        W41844  14.343  12.395   4.811 -0.3938 -0.1269 -0.0536
26714W        W41845  14.441  12.225  10.814  0.1154 -0.2079 -0.0215
26715W        W41846   7.994  12.393   1.189  0.1452  0.2424 -0.0517
26716W        W41847  10.221   1.156   3.940 -0.1288  0.0744  0.1395
26717W        W41848   4.554   8.815   0.376  0.1592 -0.0628 -0.1324
26718W        W41849  14.734   3.085  12.402  0.2516 -0.1475  0.1313
26719W        W41850  14.809   6.331  13.286  0.0323  0.1795 -0.0492
26720W        W41851  12.984   2.882   3.259 -0.0126 -0.0678 -0.0153
26721W        W41852  17.023  14.210  14.217 -0.2501  0.0849  0.0290
26722W        W41853   7.130  17.550   0.534  0.1980  0.1573  0.4453
26723W        W41854   3.240  16.525   5.156  0.0182  0.1406 -0.0683
26724W        W41855  11.437   6.721  15.356  0.1399  0.1343 -0.0660
26725W        W41856  15.867   6.939  14.896  0.0702 -0.0950 -0.0789
26726W        W41857   1.596   9.323  10.322  0.2644 -0.2325  0.0730
26727W        W41858  17.584  14.438   3.619 -0.0396 -0.2875  0.1674
26728W        W41859  15.924   3.043   2.735  0.1399 -0.2574 -0.0764
26729W        W41860  12.185  13.833   2.893 -0.0974  0.0284 -0.0108
26730W        W41861  14.481  17.469   1.983 -0.3365 -0.2022 -0.2129
26731W        W41862   5.230  16.925   3.686  0.0777 -0.3272 -0.1999
26732W        W41863   0.623   4.582   1.780  0.0291 -0.3497  0.2692
26733W        W41864   0.913  10.805   3.043 -0.0131  0.0020  0.0714
26734W        W41865   3.150   2.263   4.211  0.4450  0.0627 -0.1481
26735W        W41866  11.425   6.046  11.596  0.1007 -0.1658  0.0299
26736W        W41867   3.733   2.838   0.595  0.0053  0.1502  0.3109
26737W        W41868   4.766   3.072   0.666 -0.0082  0.0925 -0.3403
26738W        W41869   2.212   4.931  13.746 -0.0211 -0.0123 -0.2056
26739W        W41870   8.419  15.978   1.449 -0.0350 -0.2685 -0.3105
26740W        W41871   0.050  14.689  15.148 -0.0693  0.1954 -0.1154
26741W        W41872  17.022  11.492   3.611 -0.0189  0.3117  0.2494
26742W        W41873   0.030  13.358  12.313  0.0766  0.1996  0.2115
26743W        W41874  11.042   8.946  11.185  0.1612  0.2874 -0.0305
26744W        W41875  10.778   4.348   2.373  0.0401  0.0855  0.0469
26745W        W41876  16.570   1.344   6.136  0.2169  0.0145  0.0514
26746W        W41877  13.362   6.760  13.926 -0.1516 -0.3623 -0.0478
26747W        W41878  10.142  10.970  12.001 -0.2856  0.0017 -0.0797
26748W        W41879   1.624   1.833  14.328  0.2333 -0.2413 -0.0666
26749W        W41880   5.287   4.498  13.300  0.1749 -0.1998  0.1745
26750W        W41881   5.946   2.824  14.606 -0.0767  0.0302  0.2789
26751W        W41882  10.723   5.357   4.001 -0.1697  0.0382  0.0790
26752W        W41883   0.752   0.621   1.060  0.0053  0.1535 -0.1132
26753W        W41884  17.911   6.664  13.552 -0.0662  0.0891 -0.1114
26754W        W41885   4.110  16.112   3.076  0.0810  0.2082  0.0678
26755W        W41886  18.046   8.840   4.247 -0.0560  0.0549  0.3116
26756W        W41887  10.546  15.833   5.677  0.0109  0.1681 -0.0387
26757W        W41888  14.564   1.498   5.189 -0.1842  0.1294 -0.1965
26758W        W41889   2.471   5.388   1.093 -0.0931  0.2736  0.2113
26759W        W41890   0.299   3.011   3.854 -0.1642  0.1708  0.0478
26760W        W41891  12.297   5.345   2.773 -0.0422  0.0644  0.0160
26761W        W41892   4.480  15.144   0.900 -0.0607 -0.2219 -0.0355
26762W        W41893   5.109   6.922   3.332 -0.3274 -0.2717  0.0156
26763W        W41894   8.328  15.113  15.854 -0.0426  0.0008 -0.1530
26764W        W41895   7.035   8.071   0.340 -0.2350  0.1874 -0.3583
26765W        W41896   3.045  15.581  13.943  0.1196  0.2988  0.2668
26766W        W41897  16.145   6.525  13.318 -0.1119  0.3331  0.2381
26767W        W41898   2.023  13.629  12.966 -0.1958 -0.4286  0.0927
26768W        W41899   7.221   9.328  15.075 -0.4290 -0.0433 -0.1746
26769W        W41900   0.593   2.747  12.377  0.0771  0.5513 -0.0055
26770W        W41901  10.613   6.816  12.829 -0.1927 -0.3625  0.0616
26771W        W41902  10.867  14.801   0.561 -0.0443 -0.0878  0.2487
26772W        W41903   8.618  16.787   1.205 -0.4576  0.2494  0.2605
26773W        W41904  16.326   6.111  13.661  0.1085 -0.0743  0.1304
26774W        W41905  13.276  17.533  14.595 -0.1686  0.1058  0.1563
26775W        W41906  16.390   6.610   2.529  0.3329  0.2886  0.0395
26776W        W41907   7.368   0.272   0.953 -0.1788 -0.1730  0.4934
26777W        W41908  14.225  14.481   6.439 -0.4314  0.1194  0.0455
26778W        W41909   7.007   8.913   3.247  0.4632  0.0146  0.2262
26779W        W41910   6.393   0.904  11.427  0.1332 -0.1150  0.0792
26780W        W41911   4.064   8.499   5.685 -0.0467 -0.1053 -0.1299
26781W        W41912   9.657   4.214  14.888  0.1455  0.2396 -0.0517
26782W        W41913   6.931  14.063  15.735  0.1424  0.1690 -0.1087
26783W        W41914   0.634  14.556   1.784  0.0378 -0.2748 -0.1621
26784W        W41915   8.525  12.307   5.539 -0.0669  0.1496  0.0665
26785W        W41916  18.292   9.720   4.914  0.0256 -0.0205 -0.1809
26786W        W41917  15.258   0.059   1.246 -0.0415  0.1408  0.2319
26787W        W41918   6.148   1.477   5.038  0.1024  0.0625  0.1541
26788W        W41919  10.474   6.124   3.457  0.0628  0.1916 -0.0560
26789W        W41920  18.012   4.168   2.394  0.0766 -0.0383 -0.1646
26790W        W41921  13.933   3.173   3.521 -0.1236 -0.2778 -0.0091
26791W        W41922  16.450  11.945   4.706  0.0629 -0.3634 -0.2858
26792W        W41923  10.375  15.648  12.010 -0.3595  0.1928 -0.2480
26793W        W41924   8.124  11.969   2.586 -0.1744  0.1948 -0.1691
26794W        W41925  17.614   8.318  11.714  0.1674 -0.1228  0.1253
26795W        W41926   5.341   6.955  12.193  0.3975  0.2332  0.0073
26796W        W41927  15.177  14.705   5.282  0.1713  0.2703  0.1819
26797W        W41928  16.329  18.358   3.434 -0.0895 -0.1611 -0.2257
26798W        W41929   1.153   3.572   5.069 -0.1788 -0.0729  0.3434
26799W        W41930   2.438   9.362   2.980 -0.0466  0.2443 -0.1764
26800W        W41931   8.850  13.547   1.990 -0.0397 -0.1059  0.0470
26801W        W41932   2.374   4.570  14.884 -0.4240 -0.2470 -0.0010
26802W        W41933  15.835   7.608  12.202  0.0465  0.2153  0.0181
26803W        W41934   3.388  10.670   0.760  0.1138  0.1861 -0.2404
26804W        W41935   8.188  15.119  14.355 -0.1130  0.1046  0.2351
26805W        W41936   9.467   2.548  14.292 -0.1975  0.1675 -0.1957
26806W        W41937   5.345   3.001  13.171  0.0275  0.1040 -0.1647
26807W        W41938   8.887   9.743   9.213  0.3532  0.0169  0.1410
26808W        W41939   5.733   9.751   4.277 -0.0720 -0.0597  0.2041
26809W        W41940  15.046   5.999   2.338 -0.1025 -0.1494 -0.1777
26810W        W41941  17.770  11.768   1.960 -0.4226 -0.1026  0.2614
26811W        W41942   0.413  17.336   4.715  0.1705 -0.3125  0.0053
26812W        W41943  18.249   9.028  15.096  0.0542  0.0267 -0.0755
26813W        W41944  10.875  12.794   3.468 -0.1613 -0.0675  0.1233
26814W        W41945   2.085   6.835   2.080  0.1858  0.4344 -0.2306
26815W        W41946  14.787   4.787  14.932  0.1728 -0.1727 -0.0652
26816W        W41947   5.039   8.251   3.995 -0.1017 -0.2204  0.1488
26817W        W41948  12.128  17.227  12.589 -0.3901  0.1377  0.2115
26818W        W41949   5.924   0.034   0.831  0.2159  0.0042 -0.3791
26819W        W41950  16.675  17.582   4.452 -0.1950  0.0692  0.1483
26820W        W41951   4.821   5.795  15.607  0.0920 -0.0044 -0.1915
26821W        W41952   9.151   1.323  11.582  0.1948  0.0747  0.1353
26822W        W41953   9.650   5.065  10.949 -0.4410 -0.0507  0.0810
26823W        W41954  14.689  16.058   1.313 -0.2767  0.0590  0.0439
26824W        W41955   4.595  11.965  10.951 -0.0352  0.1588  0.0524
26825W        W41956   1.875   4.488   3.677  0.0607  0.2584 -0.2102
26826W        W41957   6.588   3.576  14.637  0.0735 -0.0171 -0.0443
26827W        W41958  13.491  15.674  12.060 -0.2179  0.0674 -0.1988
26828W        W41959   4.444   4.735   0.958 -0.0498  0.1309 -0.3221
26829W        W41960   0.369   3.006  15.871 -0.0529 -0.1903  0.5117
26830W        W41961   1.328  16.954  14.400  0.4662  0.0579  0.2609
26831W        W41962   4.716  12.127   2.885  0.0366 -0.0930  0.0098
26832W        W41963  16.966   3.977   2.140  0.2710 -0.2558 -0.1883
26833W        W41964  11.619  18.197   4.309  0.0718  0.3230  0.4127
26834W        W41965   8.408   2.226  13.583 -0.1738 -0.0354  0.3013
26835W        W41966   6.610   1.754  15.251 -0.2759 -0.0635  0.1862
26836W        W41967  13.385   1.504   2.744 -0.2558  0.0897 -0.0506
26837W        W41968  14.446   4.006  10.962  0.1281 -0.2757 -0.1275
26838W        W41969  12.991  11.659  14.707 -0.0807 -0.0147 -0.1288
26839W        W41970   9.481   8.103   4.680 -0.1260  0.0234 -0.2604
26840W        W41971  17.173   3.591  13.264 -0.2321  0.2181 -0.1892
26841W        W41972   4.643  14.799   2.879  0.3036 -0.0612 -0.1115
26842W        W41973  11.292  17.699   3.697 -0.2601  0.1098 -0.1964
26843W        W41974   3.750  15.541   4.296  0.0953 -0.1161 -0.2918
26844W        W41975   5.193   6.430  15.122 -0.1106  0.3051  0.0309
26845W        W41976   4.475  12.122   0.771  0.0460 -0.1781  0.1185
26846W        W41977   0.317   3.052  11.901  0.1196 -0.0367 -0.2859
26847W        W41978  12.596   7.214  12.974 -0.0225 -0.0314  0.0375
26848W        W41979   5.082   4.982  16.122 -0.0983  0.0686  0.0709
26849W        W41980  13.454  10.863   0.587 -0.0493 -0.0323  0.0854
26850W        W41981  12.753   4.801  12.980  0.2346  0.0355 -0.0802
26851W        W41982  12.753  11.941   3.594  0.0560  0.3239  0.0182
26852W        W41983  17.445  16.644   4.235  0.0285 -0.3737  0.0898
26853W        W41984  17.844   5.791   2.929 -0.0185  0.1993 -0.0819
26854W        W41985  10.559   5.853   5.752 -0.2060 -0.1237  0.2095
26855W        W41986   0.393   6.411  12.268  0.0130  0.4077 -0.1894
26856W        W41987  15.424  10.055  15.016 -0.0110  0.1958 -0.1095
26857W        W41988   1.799   7.660  10.929 -0.2860  0.0800 -0.0816
26858W        W41989   1.562  11.326  13.992 -0.1494  0.0574 -0.0442
26859W        W41990  12.418  11.665  13.146 -0.2194  0.1179  0.1054
26860W        W41991   8.774   0.211   1.748 -0.2020 -0.1725  0.0519
26861W        W41992   7.882   3.230  11.303  0.1158  0.1528 -0.0462
26862W        W41993   6.695   3.264  11.376  0.3798  0.2629 -0.0386
26863W        W41994   0.419  17.964  10.288 -0.4024  0.1234 -0.5669
26864W        W41995   9.924  18.364  15.020 -0.0233 -0.2274  0.0517
26865W        W41996   7.477  18.125  15.986  0.1929  0.4646 -0.3016
26866W        W41997  18.156  10.223   3.958  0.0040  0.2978 -0.1638
26867W        W41998  12.508   5.867   4.033 -0.0876 -0.2619 -0.1187
26868W        W41999   4.977   2.642  11.931  0.1361 -0.2678 -0.3602
26869W        W42000   5.691  13.492   0.819 -0.0976 -0.0811 -0.1530
26870W        W42001  14.915   9.938  11.561  0.1174 -0.3125  0.0888
26871W        W42002   1.694   4.494   4.650  0.1145  0.3333 -0.1159
26872W        W42003   2.464  17.006   4.767 -0.0477 -0.0611 -0.1383
26873W        W42004  12.677   9.282   2.654 -0.1997  0.1735 -0.2800
26874W        W42005   8.834   6.379  11.781 -0.2758  0.0003 -0.2891
26875W        W42006   1.551  10.102  11.958  0.1401  0.2449 -0.0862
26876W        W42007   7.218  10.264   4.437 -0.2939 -0.0736  0.3089
26877W        W42008   6.370  11.243  14.521 -0.1482 -0.2286  0.0373
26878W        W42009  16.775  11.071  11.226  0.2353  0.1952 -0.0690
26879W        W42010   2.839   8.782  12.321 -0.1429 -0.0156 -0.0401
26880W        W42011   0.619   0.553   2.185  0.0890 -0.3047 -0.1584
26881W        W42012   3.856   6.107   4.113 -0.0106  0.3823  0.0447
26882W        W42013  13.495  17.864  12.257  0.0673  0.2937  0.3977
26883W        W42014  16.753  10.172  11.267 -0.2274  0.1148  0.0209
26884W        W42015  14.540   9.070   5.472  0.3281 -0.0431  0.0435
26885W        W42016  16.802   9.557   5.865  0.2593 -0.0144  0.1943
26886W        W42017   3.804   4.957  12.855  0.2996  0.0539  0.4962
26887W        W42018  18.263   9.689  15.560 -0.2100 -0.0072 -0.0090
26888W        W42019   2.705  11.736   5.031  0.0760  0.0709 -0.1877
26889W        W42020  17.900   6.170   9.699 -0.2478  0.0774 -0.1036
26890W        W42021   4.771   5.184   0.910  0.1296 -0.0087  0.1441
26891W        W42022  15.152  14.329   2.997 -0.4015  0.1808  0.2604
26892W        W42023   3.461  10.200   1.723 -0.0271  0.0224 -0.0749
26893W        W42024   3.880  18.352  14.516  0.3249 -0.1523 -0.0351
26894W        W42025   0.187   3.063  13.267 -0.0950 -0.0630 -0.1095
26895W        W42026   0.456  13.186   1.801  0.3504 -0.1814 -0.1405
26896W        W42027   0.388   5.297  13.988  0.0696 -0.0079  0.0886
26897W        W42028  15.827   2.618  15.083 -0.0310  0.3838 -0.4107
26898W        W42029  10.198  12.395  13.414  0.0511 -0.2370  0.3024
26899W        W42030   8.809   9.265  13.640  0.0291 -0.1752  0.0496
26900W        W42031  17.540   0.879   2.793 -0.4557  0.3286 -0.0690
26901W        W42032   6.774  11.121   1.231 -0.1717 -0.1217 -0.3051
26902W        W42033  16.521  14.140  10.976 -0.1378  0.2319  0.0387
26903W        W42034   9.237   7.181  12.929  0.1872 -0.0684  0.0465
26904W        W42035  16.730  15.911   0.496  0.2602 -0.1270  0.0054
26905W        W42036  12.992  11.677  16.103  0.0150  0.0433 -0.2087
26906W        W42037  12.984  17.879   4.896  0.1292  0.0637 -0.3430
26907W        W42038  12.852   7.829  12.889 -0.1589  0.0075  0.0776
26908W        W42039  13.034   4.214  11.360  0.1881  0.0292  0.1105
26909W        W42040   9.576   8.508   5.842  0.1251  0.1067  0.2060
26910W        W42041  12.473  16.894   4.496 -0.3331  0.0421 -0.0295
26911W        W42042   4.537  18.328  12.258 -0.1411 -0.1848  0.0640
26912W        W42043   0.862  15.149   5.638  0.0138  0.1683 -0.0019
26913W        W42044   0.361   5.308   1.989 -0.0660  0.2219  0.1247
26914W        W42045  16.099  17.352  15.104  0.0797 -0.0827  0.2066
26915W        W42046  17.656   0.637   5.691 -0.0359 -0.2364  0.1656
26916W        W42047  17.316  15.729   3.014  0.0791 -0.1989 -0.0996
26917W        W42048   2.714  16.545   1.315 -0.0569  0.1977  0.0046
26918W        W42049   8.993  11.071  12.974  0.0690 -0.0399  0.1545
26919W        W42050   0.405   6.946   1.481  0.2816 -0.3921  0.2352
26920W        W42051   1.234   3.746  14.273 -0.1276 -0.1028 -0.0484
26921W        W42052   2.915  17.905  16.145  0.0196 -0.3120 -0.2718
26922W        W42053  17.023  16.729   0.260 -0.1511 -0.1409 -0.1541
26923W        W42054  17.951   1.488  13.893  0.3040 -0.2914  0.0633
26924W        W42055   6.523   0.790   2.581 -0.0874  0.3569  0.0146
26925W        W42056  16.758  10.690  11.593  0.4148 -0.2285  0.0179
26926W        W42057   9.054   2.153   4.291  0.1149  0.1581  0.2122
26927W        W42058   4.666  10.729   4.287 -0.0605  0.0280  0.1224
26928W        W42059   1.779   8.640  13.936  0.0123  0.5180  0.4290
26929W        W42060  15.712   9.942  13.854  0.0109  0.2528 -0.1811
26930W        W42061  13.219   9.167  10.870  0.0332  0.0464  0.0485
26931W        W42062  15.207   3.692  11.950  0.0832 -0.0987  0.1568
26932W        W42063  10.374  12.354   0.811 -0.0635  0.0394  0.0715
26933W        W42064  13.744  11.595   1.477 -0.2531 -0.0164  0.1047
26934W        W42065   3.861   6.550  12.173  0.0306 -0.1060  0.0832
26935W        W42066   5.447  15.343   2.657  0.1052  0.3383  0.2724
26936W        W42067   0.283   4.747  13.835  0.3943 -0.0223 -0.1281
26937W        W42068   1.242   7.183   1.607 -0.1297  0.0755 -0.0334
26938W        W42069  13.243  18.320  12.385 -0.2443 -0.0086 -0.2401
26939W        W42070  11.816  18.349  15.835 -0.3488  0.0945 -0.2266
26940W        W42071   5.938  17.348  13.858 -0.3257  0.3657 -0.0652
26941W        W42072  15.984   2.939  12.821 -0.0805  0.0837  0.2911
26942W        W42073   5.751   4.356   2.435 -0.0193  0.1683 -0.2862
26943W        W42074  14.850   9.766   3.266 -0.1663 -0.0270  0.0094
26944W        W42075   0.021  14.923  12.141 -0.2070  0.0233 -0.3805
26945W        W42076   3.680   8.146  11.238 -0.0774 -0.0783 -0.1460
26946W        W42077  10.208  13.946  13.129 -0.0460  0.1563  0.0857
26947W        W42078   8.124   5.370  15.675  0.2518 -0.0522  0.2040
26948W        W42079   9.427   2.597   5.684  0.2373  0.1373 -0.1628
26949W        W42080   1.853   9.099   4.811  0.2887 -0.1719 -0.2932
26950W        W42081   9.263   4.701  12.780  0.0744 -0.1857  0.5591
26951W        W42082   7.626  10.270   1.639  0.0724 -0.1528  0.2610
26952W        W42083   9.119   6.557  14.443 -0.4419  0.1966 -0.0662
26953W        W42084  18.276   6.969   1.058 -0.0499 -0.0270  0.0128
26954W        W42085  10.655   8.209  11.196 -0.4337 -0.0781  0.0177
26955W        W42086  18.339  13.953   4.992  0.0669  0.2121  0.0960
26956W        W42087  12.065  10.277   4.130  0.2498  0.3103 -0.2155
26957W        W42088  16.489  10.879   1.340 -0.0161  0.2224 -0.0839
26958W        W42089  16.438   3.036   2.138  0.0735  0.2837  0.1919
26959W        W42090   3.222   4.538   1.672 -0.1528  0.0901  0.0955
26960W        W42091  10.128   4.094   0.404 -0.2717  0.1381  0.0839
26961W        W42092  18.060  13.144   4.304 -0.1095 -0.2729  0.0832
26962W        W42093   0.513  12.541   0.446  0.0423  0.0047  0.1679
26963W        W42094  11.700  12.040  10.863 -0.3223 -0.2874  0.0760
26964W        W42095   9.005  12.122   4.227  0.1528  0.0284 -0.0867
26965W        W42096   0.189   0.794  11.394  0.1740 -0.0092 -0.0243
26966W        W42097  10.561  10.957  11.744 -0.3547 -0.0253  0.0039
26967W        W42098   0.862  10.104   4.031 -0.0689  0.3913  0.0386
26968W        W42099   8.786  16.273   1.429 -0.0405  0.0123 -0.0701
26969W        W42100   1.148   8.623  14.865 -0.1531 -0.0074  0.0608
26970W        W42101   2.802  13.266  15.119 -0.0954 -0.2016  0.3204
26971W        W42102   0.960  17.233  15.288  0.1868 -0.0360 -0.1396
26972W        W42103   1.714   4.246  12.688 -0.1103 -0.0918  0.0896
26973W        W42104  11.792  13.013   2.135 -0.3311 -0.1549 -0.0884
26974W        W42105  17.528   3.211   2.453  0.1008  0.2501  0.0554
26975W        W42106  17.464   4.885   2.752 -0.1441 -0.2657  0.1309
26976W        W42107   5.632  12.259  11.694  0.2759 -0.0094 -0.1416
26977W        W42108  13.870  10.442   5.886  0.1990  0.0095 -0.1635
26978W        W42109  17.078  12.303  15.354 -0.0319  0.2500  0.1643
26979W        W42110   1.031   9.177   0.918  0.0536  0.1599 -0.0588
26980W        W42111  13.194   3.872  13.746 -0.2912 -0.0930  0.0533
26981W        W42112   1.726   1.019   1.588  0.0439  0.0424  0.1668
26982W        W42113   9.383  17.921   0.813  0.2517 -0.1468 -0.0494
26983W        W42114  17.798   1.314  11.813 -0.3999  0.1752  0.0545
26984W        W42115   9.586   3.042   0.531  0.0828  0.1293 -0.0658
26985W        W42116   8.406  17.877  15.170  0.3381  0.3091 -0.4049
26986W        W42117   4.253  17.875   2.833  0.1845  0.2685  0.4673
26987W        W42118  13.716   2.688  15.427  0.2117 -0.0407  0.2785
26988W        W42119  16.853   3.725  12.343  0.1851  0.0759  0.1811
26989W        W42120   7.062   8.897  14.813  0.1171  0.1873 -0.2949
26990W        W42121  16.394   2.727   5.396  0.0321 -0.0217 -0.4749
26991W        W42122   1.458   6.208   1.520 -0.3582  0.0681  0.2303
26992W        W42123  13.770  12.847  11.052  0.0510  0.1461  0.0514
26993W        W42124   7.922   3.495   2.264 -0.1301 -0.2435 -0.0292
26994W        W42125  12.321   3.553   0.284 -0.0175 -0.1149  0.2785
26995W        W42126   5.295   5.397   4.344 -0.0558 -0.1410  0.1827
26996W        W42127  16.289   3.313   4.106  0.0407  0.0380 -0.1296
26997W        W42128  15.690  17.237   1.093 -0.0101  0.0654  0.1360
26998W        W42129   2.802  15.285   0.432 -0.0239  0.1677 -0.3944
26999W        W42130  14.587  11.385   1.279  0.1302 -0.0722  0.0964
27000W        W42131  15.878   4.688   0.387  0.4663  0.1625  0.4196
27001W        W42132  14.546  14.265   2.971  0.0917 -0.1410  0.1929
27002W        W42133   6.811  16.570  15.825  0.1692  0.3723 -0.2058
27003W        W42134   1.035  11.758   3.618  0.0873  0.3562 -0.3757
27004W        W42135  10.592  16.342   1.473  0.0953 -0.0382  0.1017
27005W        W42136   4.142   0.036  11.038 -0.0788 -0.0334 -0.0009
27006W        W42137   8.801   6.695   3.405 -0.1981  0.0913  0.1913
27007W        W42138  16.192   4.993  12.974  0.0402 -0.2111 -0.0213
27008W        W42139   3.488  14.175   0.600  0.0441  0.1130  0.0391
27009W        W42140  10.215  15.396   0.417  0.2429 -0.3373  0.0345
27010W        W42141   4.860   9.318   5.001  0.1095 -0.1537 -0.2240
27011W        W42142  17.318  14.665  14.155 -0.0356 -0.0786 -0.3232
27012W        W42143   0.806  15.396  12.132  0.0053 -0.1477 -0.3587
27013W        W42144   3.619  12.743  11.001  0.3692 -0.2006 -0.0861
27014W        W42145  10.706   7.304   5.489  0.0990 -0.2337  0.0287
27015W        W42146  16.234  17.895   3.298 -0.0044  0.1237 -0.4287
27016W        W42147   5.410  13.436   1.250 -0.3278  0.0966  0.0761
27017W        W42148  14.416  16.082   0.163 -0.1932 -0.2287 -0.0154
27018W        W42149   0.482   9.165  10.955  0.0951 -0.3337 -0.0490
27019W        W42150   9.041   6.886  11.948  0.2471 -0.0889 -0.0938
27020W        W42151   8.208  13.251  11.752  0.1572 -0.0120  0.0969
27021W        W42152  13.054  11.480   2.731  0.0999  0.0710 -0.0362
27022W        W42153   9.182  11.501  13.781  0.1643 -0.1019  0.3246
27023W        W42154  16.482   7.923   3.322  0.1091  0.0838  0.0674
27024W        W42155   2.537  17.488  15.397  0.2599 -0.0132  0.0855
27025W        W42156   7.350   7.300   5.483  0.2990  0.0417 -0.0619
27026W        W42157  11.058   3.239  13.773 -0.0471  0.2831 -0.6628
27027W        W42158  15.286   3.841  14.700 -0.0018 -0.0768 -0.2427
27028W        W42159  15.712   0.880   4.844 -0.3221 -0.0240 -0.1319
27029W        W42160   9.733   6.812  11.093  0.0833 -0.0353  0.1672
27030W        W42161   5.014   8.002  12.607  0.3654  0.0272 -0.2467
27031W        W42162   8.157  16.350   3.234 -0.1351  0.1960  0.1924
27032W        W42163   3.267  14.419  11.257 -0.0265  0.0133  0.0542
27033W        W42164  14.179   8.756   4.589  0.2127  0.4192 -0.0799
27034W        W42165  16.692   5.927   5.114 -0.0540  0.0867  0.0538
27035W        W42166   5.338   9.102   3.635 -0.1543  0.0303 -0.2080
27036W        W42167   3.726  12.236  14.648  0.1558  0.3640 -0.1066
27037W        W42168   6.156   1.838  12.629 -0.0728  0.0415 -0.2276
27038W        W42169   6.278  10.981   0.149 -0.0581  0.0318 -0.1487
27039W        W42170  15.782   3.522  13.657  0.0174 -0.1364 -0.0176
27040W        W42171   5.603  17.832   2.535 -0.0544 -0.0746  0.1506
27041W        W42172   9.583   8.594   4.849  0.3219  0.0370 -0.1022
27042W        W42173  17.434   7.214  15.752  0.0377  0.1607  0.2396
27043W        W42174  13.691  10.449   3.716  0.1288 -0.0869 -0.0900
27044W        W42175  12.119  14.595  15.052 -0.0471 -0.1258  0.1872
27045W        W42176  10.337   5.523  14.913  0.1723 -0.2655 -0.1369
27046W        W42177  15.419   9.806   5.660  0.1891 -0.0888 -0.0102
27047W        W42178  16.399   2.840   3.537 -0.0124  0.0870 -0.1589
27048W        W42179  11.577  16.981   3.164 -0.1031  0.0057  0.1966
27049W        W42180  11.742   2.364   5.320  0.1984 -0.0637  0.0375
27050W        W42181   5.936   3.084   1.504  0.1235 -0.1150 -0.0833
27051W        W42182  12.174   6.080  13.253 -0.0080 -0.0212  0.2975
27052W        W42183   8.601   3.541   3.456 -0.2181  0.1094 -0.0023
27053W        W42184   8.580   3.259  11.936 -0.3432  0.0382  0.1674
27054W        W42185  16.470  11.142   4.869  0.0940 -0.2849  0.0530
27055W        W42186  17.565  16.409   1.313  0.4128  0.0537  0.2195
27056W        W42187  18.176   1.928   2.008  0.0504  0.0233 -0.2074
27057W        W42188   7.384   8.375   1.546 -0.1094  0.0709 -0.1372
27058W        W42189  12.996  18.054  15.675 -0.0052 -0.2759  0.0648
27059W        W42190   5.430   8.860  10.800 -0.4571  0.4771  0.0453
27060W        W42191   0.942   7.805  13.297 -0.0296  0.0393  0.2347
27061W        W42192   6.281   6.413  15.424  0.2412 -0.2559  0.1383
27062W        W42193  10.548   4.469  11.098  0.1440  0.0256  0.1911
27063W        W42194   4.298  12.124  15.262 -0.0374  0.1469 -0.0125
27064W        W42195   4.221   5.951  12.060 -0.1804 -0.1119 -0.0417
27065W        W42196  16.040  16.094  11.581 -0.1363  0.1830 -0.0354
27066W        W42197   4.343  16.611  12.301  0.1234 -0.1690  0.1753
27067W        W42198   9.798  10.934   0.805  0.0194 -0.0168  0.0285
27068W        W42199  11.956  17.533  13.987 -0.0749  0.2032 -0.0586
27069W        W42200  10.304   4.945   2.626  0.1419 -0.0711 -0.1026
27070W        W42201  13.391   2.355  12.010 -0.1704  0.0900 -0.2743
27071W        W42202  17.805   5.104  11.635 -0.0282 -0.1919  0.5597
27072W        W42203   9.779  13.443  13.626 -0.2108  0.1060  0.0234
27073W        W42204   6.969  17.252   3.337 -0.4883  0.2882 -0.3349
27074W        W42205  14.708   8.664   5.228 -0.2402 -0.0728 -0.0825
27075W        W42206  10.520  17.232  14.195  0.4072 -0.0592 -0.3488
27076W        W42207  10.891   0.782   2.806  0.0220  0.1057  0.3123
27077W        W42208   0.477  12.373  12.482  0.1604 -0.1455 -0.1201
27078W        W42209   6.938  17.732   4.077  0.0405  0.1325 -0.0872
27079W        W42210  17.015   3.129   2.440 -0.1139 -0.0923 -0.1351
27080W        W42211  13.789  18.106  12.605  0.1188 -0.0228  0.0201
27081W        W42212  15.898   8.500  15.011 -0.0118  0.0443 -0.0840
27082W        W42213   3.528   8.808   0.405 -0.1639  0.2631 -0.0912
27083W        W42214  12.475   4.038   3.882 -0.0961 -0.0136  0.2749
27084W        W42215  11.336   8.794  13.020  0.1621 -0.0293  0.3869
27085W        W42216   4.885   5.662   0.979 -0.0744 -0.0362 -0.1879
27086W        W42217  11.363   5.416  12.982 -0.3340  0.0913 -0.1117
27087W        W42218  12.690  11.659  15.303 -0.0732 -0.2443  0.0735
27088W        W42219  13.516   3.500  14.558 -0.1437 -0.1283  0.2249
27089W        W42220   8.172   0.208   4.281 -0.3957 -0.1489  0.1070
27090W        W42221  12.910   6.489   1.041  0.0383 -0.2067 -0.0369
27091W        W42222   1.164  17.274  10.174  0.1392 -0.0488  0.1633
27092W        W42223  16.246   0.470   3.360  0.1510 -0.0088  0.1359
27093W        W42224   1.524  15.372  12.915  0.0560 -0.3414 -0.2352
27094W        W42225   8.723   0.756   0.842 -0.0434 -0.0334  0.0735
27095W        W42226  15.311   2.436   2.804 -0.2183 -0.1811 -0.0319
27096W        W42227  16.419  12.843  11.706  0.2077  0.3616  0.1607
27097W        W42228  10.655  11.090   4.560 -0.0229  0.3008  0.1870
27098W        W42229  10.289   4.943   3.589  0.0622  0.2852  0.0235
27099W        W42230  11.270  15.363  11.563 -0.0396 -0.2838  0.3861
27100W        W42231   1.328   2.829  13.610  0.0758 -0.0827 -0.1271
27101W        W42232   2.328   7.677  14.596  0.2564  0.1780 -0.1821
27102W        W42233   2.288   8.187  14.909  0.1692  0.2014  0.0753
27103W        W42234   0.331  10.218   2.542 -0.1739  0.0873 -0.1048
27104W        W42235   3.795  16.800  14.636 -0.0357 -0.2513  0.2251
27105W        W42236  15.503   9.376  10.386 -0.0780  0.0214 -0.1195
27106W        W42237  15.216  16.294   5.288  0.2846 -0.0154 -0.2270
27107W        W42238   5.989   6.414   4.233  0.0018  0.0290 -0.2774
27108W        W42239   1.550  10.296   1.703 -0.0638  0.2487  0.1556
27109W        W42240   5.923   4.622  10.940  0.2615  0.0267 -0.1560
27110W        W42241  15.908   7.877   3.941 -0.1089  0.0785  0.2701
27111W        W42242   6.522  11.226  14.004 -0.4818  0.0465  0.3292
27112W        W42243   1.195  13.850  13.227 -0.0622  0.3044 -0.1912
27113W        W42244   5.816   3.986   1.503 -0.1246 -0.1022 -0.1357
27114W        W42245   6.249   1.595  15.903  0.0009 -0.1156  0.0041
27115W        W42246   0.324   8.732   3.602  0.0788 -0.1092  0.0597
27116W        W42247   4.026   4.267  15.655 -0.0466  0.1203  0.3602
27117W        W42248   5.290  13.224  13.085  0.0810  0.1745 -0.2028
27118W        W42249  11.805   3.764   2.515 -0.0762 -0.2621 -0.0195
27119W        W42250   0.830  16.811  12.575  0.0565  0.0864  0.2563
27120W        W42251   8.695   7.444  12.103 -0.3145  0.1573  0.0855
27121W        W42252   8.798   2.988  16.053 -0.0038 -0.0943 -0.0982
27122W        W42253  13.217  16.136  14.793  0.1515  0.0892  0.0680
27123W        W42254  16.430  17.783  11.904 -0.0329  0.2734 -0.1724
27124W        W42255   9.285   2.786   2.694 -0.3289 -0.2498  0.0023
27125W        W42256   9.278  13.588  13.378  0.0735  0.2634 -0.0420
27126W        W42257   5.229  15.205  13.798 -0.3022 -0.1448 -0.0438
27127W        W42258   4.227  10.560  12.389 -0.0318  0.4686  0.0562
27128W        W42259   1.577   4.770  11.047 -0.2950  0.1571  0.0240
27129W        W42260  10.083  10.570   0.643  0.0629 -0.1749  0.2779
27130W        W42261  10.485   4.258  13.078  0.0356  0.2737 -0.0605
27131W        W42262  15.152  11.079   5.760  0.0857  0.1913 -0.1169
27132W        W42263   7.972   4.665   0.334 -0.0923 -0.0836  0.3459
27133W        W42264   5.736   9.570  11.372 -0.2587 -0.0694 -0.1550
27134W        W42265   4.535  13.002   0.291  0.0037  0.2384 -0.2192
27135W        W42266  13.015  17.814  13.347  0.1802  0.0082 -0.4435
27136W        W42267  11.869  11.268  13.064  0.1921 -0.1633  0.0884
27137W        W42268   6.864   7.509   0.213 -0.1905 -0.1362 -0.0147
27138W        W42269   9.262  10.777  15.574 -0.0586 -0.3984  0.0205
27139W        W42270  16.227  13.125  13.549 -0.1703  0.2586  0.4089
27140W        W42271   5.750  12.255  14.160  0.0880  0.0263  0.1284
27141W        W42272   9.168  18.065   6.029  0.0392 -0.5098 -0.2073
27142W        W42273  13.631   8.744   5.451 -0.1522 -0.2198 -0.2284
27143W        W42274  10.813  17.222   1.917 -0.2692  0.0906  0.2738
27144W        W42275  12.387  14.993   0.848  0.0046 -0.2352 -0.1018
27145W        W42276  15.871  12.893  11.578  0.2301  0.0434  0.1053
27146W        W42277   6.599  15.680   2.834 -0.2891 -0.3328 -0.2532
27147W        W42278  17.567  17.836   4.724  0.2055 -0.3898  0.0241
27148W        W42279  12.761   2.069  13.775  0.1811 -0.0478  0.2440
27149W        W42280   4.705  14.114   3.721 -0.1097  0.0051  0.0447
27150W        W42281   7.748   1.862  11.139 -0.1668 -0.1815  0.0565
27151W        W42282  11.250  17.908  11.495 -0.0371 -0.3567  0.0038
27152W        W42283  15.138   5.169   1.471 -0.0136 -0.0719 -0.0726
27153W        W42284   4.275   9.536   3.025 -0.2987 -0.1109 -0.1405
27154W        W42285   1.711   5.375   4.122 -0.1878  0.0102 -0.2236
27155W        W42286  15.470  11.173   4.116 -0.0089  0.0924 -0.0258
27156W        W42287   9.295  11.483   5.915 -0.2670 -0.0798  0.4053
27157W        W42288  14.936   4.621  11.482  0.1345  0.3009  0.2811
27158W        W42289   2.042  11.587   0.530  0.2193  0.2031 -0.0610
27159W        W42290   3.502  17.004   2.188 -0.0753  0.1383  0.0458
27160W        W42291  12.883   7.598   5.701  0.0247 -0.3046 -0.0150
27161W        W42292  10.324  14.246   4.518 -0.0130  0.2309 -0.3273
27162W        W42293  16.224   4.618   4.881  0.1125 -0.0726 -0.3564
27163W        W42294   0.815  10.735  14.377  0.0452 -0.0303 -0.1844
27164W        W42295   9.530   2.643  11.223  0.0718  0.0459  0.1413
27165W        W42296  10.350  14.569  12.053  0.1611  0.0071 -0.0820
27166W        W42297  15.805   2.122  11.713  0.1155  0.2096  0.1205
27167W        W42298   0.444  11.003  12.511  0.1064  0.3000 -0.0064
27168W        W42299  13.722  13.971   2.556 -0.1198  0.1918 -0.0274
27169W        W42300  16.818   0.589  12.083 -0.2218 -0.0208 -0.1927
27170W        W42301   4.493   9.805   2.611  0.2906  0.1390  0.4941
27171W        W42302  12.555   0.834   4.561  0.1644  0.1781  0.0781
27172W        W42303   2.426   3.846   3.266 -0.1565  0.0216 -0.2363
27173W        W42304   1.333  16.194   5.275  0.0024 -0.0372  0.0129
27174W        W42305   8.622   7.204   2.031  0.2208  0.1339 -0.0683
27175W        W42306   9.661  10.229  10.857 -0.3481 -0.0330 -0.0226
27176W        W42307   6.560   8.177  12.646 -0.0045 -0.0661  0.2728
27177W        W42308  15.838   7.143  12.126 -0.0269 -0.1636 -0.0068
27178W        W42309  15.583   3.496  11.612  0.0460 -0.3067 -0.2455
27179W        W42310  17.483   6.523   5.435 -0.3925  0.2255 -0.3143
27180W        W42311   5.244  13.719   0.018  0.0709  0.2509  0.0114
27181W        W42312   8.623   5.241   0.785 -0.1060 -0.1140  0.1579
27182W        W42313  10.297   1.228   4.391  0.2946 -0.2114 -0.1976
27183W        W42314  16.360   3.272  12.992  0.2610  0.0614 -0.0242
27184W        W42315  15.317  17.660   5.341 -0.0629 -0.2570  0.1538
27185W        W42316   9.808   6.522   2.941 -0.1549 -0.1634  0.3270
27186W        W42317  10.167   5.939   2.286 -0.3602 -0.3992 -0.2224
27187W        W42318  10.884  16.302   1.863  0.3443  0.0021 -0.1979
27188W        W42319  17.626   8.016   0.799  0.0432  0.1744 -0.0620
27189W        W42320   0.657  10.141   0.384  0.1462  0.1180 -0.1143
27190W        W42321   7.612  13.324  10.742 -0.1028 -0.3850 -0.1852
27191W        W42322  15.285  16.766  11.878  0.1473  0.1350  0.2298
27192W        W42323  10.567   5.003   5.537 -0.1887 -0.0826  0.0125
27193W        W42324  16.062   8.545  16.035  0.0920 -0.3329 -0.1452
27194W        W42325   1.027  14.226   4.084 -0.2438  0.1502  0.1452
27195W        W42326   0.797   2.878  16.123 -0.0981  0.2355  0.2370
27196W        W42327   0.143   6.843  12.303 -0.0181 -0.0689  0.0603
27197W        W42328  17.897  11.175  12.909  0.0469 -0.0579 -0.0607
27198W        W42329   4.237   6.629   4.741  0.0164  0.0198 -0.0252
27199W        W42330   1.006   9.956  15.700 -0.3270 -0.1018 -0.1234
27200W        W42331   9.309   8.093  12.871  0.0880 -0.0387  0.1088
27201W        W42332  15.092   1.166   0.338 -0.3560  0.2225 -0.0893
27202W        W42333   4.857   7.567  12.773  0.3082 -0.0998  0.0397
27203W        W42334   2.551   3.872   2.213  0.2556 -0.0125  0.2957
27204W        W42335   3.060   1.015  12.955  0.2829 -0.2132  0.1728
27205W        W42336  16.701   0.734  11.219  0.1743 -0.1321  0.2307
27206W        W42337  14.182   6.121   5.401 -0.0909  0.0391  0.2693
27207W        W42338   8.998   2.138  12.282  0.1088 -0.0776  0.1189
27208W        W42339   6.601   0.558  12.963  0.0520 -0.0684 -0.1514
27209W        W42340   0.129   5.794   0.143 -0.0516  0.1681 -0.0885
27210W        W42341   4.325  15.577   0.479  0.1274 -0.1579 -0.0031
27211W        W42342   5.375   3.622  15.084 -0.0152 -0.0749  0.2255
27212W        W42343   5.269  10.601   2.023  0.3091  0.1955 -0.1227
27213W        W42344  17.276   4.708   4.506  0.0450  0.1331  0.0978
27214W        W42345   3.307   4.557   4.383  0.2895 -0.1668 -0.2461
27215W        W42346  11.331  10.952   4.081  0.3020  0.0967  0.0389
27216W        W42347   5.065  10.752  14.180  0.3056 -0.1223  0.0260
27217W        W42348   0.847   3.166  13.168 -0.2139 -0.0104  0.1584
27218W        W42349  12.189   3.458  14.393 -0.1042  0.0844  0.1694
27219W        W42350   4.131   7.862  12.194 -0.1623 -0.0485 -0.2243
27220W        W42351   9.540   1.523   4.981  0.0620  0.2599  0.2947
27221W        W42352  17.736   4.729  15.384 -0.0658 -0.0046 -0.2531
27222W        W42353   3.640  15.448  16.033  0.0798 -0.1814 -0.0042
27223W        W42354  12.870   7.054  12.548  0.0608 -0.1100 -0.2522
27224W        W42355   4.993  14.050   0.505 -0.6771  0.2347 -0.0978
27225W        W42356   1.007  11.819  15.576 -0.2307  0.1445 -0.3124
27226W        W42357  17.824   1.431   5.891 -0.3027 -0.0054 -0.3564
27227W        W42358   3.995  13.706   6.579  0.2218  0.1054  0.0910
27228W        W42359   5.552   9.473   0.745 -0.1641 -0.1950  0.4256
27229W        W42360   9.825   7.636  15.328 -0.1526  0.0939  0.2359
27230W        W42361   9.910   8.967   1.916  0.0635 -0.0567 -0.0325
27231W        W42362   8.763   3.089   5.973  0.0850  0.1295 -0.1189
27232W        W42363   6.996  17.362  11.410 -0.0002 -0.1493 -0.1989
27233W        W42364   9.236   2.331   1.357  0.2379 -0.1087  0.1623
27234W        W42365   7.612   5.914   4.411  0.1271 -0.1479  0.1094
27235W        W42366   9.682   4.547  11.195 -0.0032  0.0307 -0.4658
27236W        W42367   2.613  15.583  12.474  0.1297 -0.2368 -0.0194
27237W        W42368  13.045   0.213   0.494  0.1031  0.0539 -0.3945
27238W        W42369  14.061  11.963   2.720 -0.1819  0.2249 -0.1663
27239W        W42370  15.581  12.881   4.763  0.1989  0.0823  0.0990
27240W        W42371  17.093   6.568   1.519 -0.0560  0.1392  0.1413
27241W        W42372  12.567   8.785   4.035  0.0007 -0.4660 -0.1638
27242W        W42373  16.371  11.262   3.530  0.0872 -0.1299 -0.3298
27243W        W42374  12.775   0.248   0.875 -0.1940  0.1362  0.1510
27244W        W42375   4.042   1.203  11.662  0.0126  0.0820  0.0748
27245W        W42376   6.155  11.339  13.666 -0.2271  0.2475  0.2965
27246W        W42377   5.069  15.971   0.289  0.3298 -0.2322 -0.1446
27247W        W42378  18.267   5.907  12.908 -0.1155 -0.3356 -0.0227
27248W        W42379   0.279   9.609   0.632  0.0593  0.1812 -0.1082
27249W        W42380   9.391   0.343   3.442  0.1621  0.1659 -0.0117
27250W        W42381  11.755   8.751   4.431  0.0359 -0.2596  0.0151
27251W        W42382  12.769  10.979   4.070 -0.0068 -0.0560 -0.0665
27252W        W42383  14.558  17.940  13.458  0.1299 -0.1205 -0.2010
27253W        W42384   6.396  15.878  13.941 -0.2090  0.5026 -0.1909
27254W        W42385   8.977  18.233   2.264  0.2438  0.2896  0.1055
27255W        W42386   4.177  18.060  15.172  0.1160  0.1590  0.2563
27256W        W42387  11.215   6.377  13.490  0.1720 -0.2625 -0.1721
27257W        W42388  17.493  11.891  15.780 -0.1165 -0.1192 -0.2705
27258W        W42389   0.045   3.724   3.531  0.0081 -0.0910  0.1031
27259W        W42390   0.008  11.188  11.920 -0.2694 -0.3174 -0.0570
27260W        W42391   5.097   7.591  11.058  0.2477 -0.2172 -0.2245
27261W        W42392  12.212  10.940  11.905 -0.1845 -0.2569  0.0854
27262W        W42393  16.121   4.465  12.831 -0.1487  0.1716 -0.5444
27263W        W42394   9.592  16.536   1.071  0.0958  0.1775  0.1840
27264W        W42395  14.675   1.821  13.621  0.2393 -0.1122  0.1459
27265W        W42396  12.075  10.843  15.480 -0.0427 -0.0377 -0.0664
27266W        W42397   5.884   1.167  13.748 -0.0212  0.1405 -0.4555
27267W        W42398   5.659  17.379   2.757 -0.2061 -0.1207  0.2349
27268W        W42399  15.190   9.983   0.288 -0.1188  0.0465  0.2957
27269W        W42400  13.844  16.386   2.817 -0.0308  0.0157 -0.1479
27270W        W42401  17.435  12.035   0.167  0.4128  0.0386  0.0651
27271W        W42402   7.561  16.811  11.787 -0.3542 -0.0913 -0.0077
27272W        W42403   4.556  10.710  12.041 -0.2010  0.0292 -0.3415
27273W        W42404  10.321   1.813  14.578  0.1427  0.1479  0.0776
27274W        W42405   2.817  10.812   0.318 -0.3028 -0.0606  0.0954
27275W        W42406   2.569  12.209  14.435  0.0650 -0.2909  0.0833
27276W        W42407  16.840  18.111  14.393 -0.1156 -0.2278 -0.1617
27277W        W42408   8.713  12.908  15.414  0.0669  0.1422 -0.0743
27278W        W42409  11.227   4.896  13.100  0.1405  0.1808  0.1083
27279W        W42410  10.268  15.335  14.087 -0.0696  0.2448  0.0238
27280W        W42411   2.221   1.491  12.230 -0.1856  0.3787 -0.1175
27281W        W42412   1.389  17.415   2.284  0.0310 -0.0145 -0.0752
27282W        W42413  16.273   7.710   2.567  0.0157  0.3201 -0.1463
27283W        W42414   4.405  13.534  14.922 -0.0859 -0.1064  0.3012
27284W        W42415   8.174   3.666  11.292 -0.0183  0.0189  0.0013
27285W        W42416  13.339  10.223  14.964  0.1485 -0.1016  0.0431
27286W        W42417   1.669   1.977   1.037 -0.1274  0.0252  0.1522
27287W        W42418  12.918   6.396  12.724 -0.0467  0.1506  0.0754
27288W        W42419   8.741   0.434   3.008  0.0487  0.3220 -0.1421
27289W        W42420   9.123  17.713  11.363  0.4693  0.0628 -0.2153
27290W        W42421   7.555  13.174   0.143  0.0069 -0.3275 -0.0356
27291W        W42422   7.058   5.908   2.181 -0.1620  0.0124 -0.0041
27292W        W42423   2.035  14.637   2.618  0.0503 -0.3764  0.0546
27293W        W42424   0.136  18.190  12.520 -0.0284  0.0181 -0.3132
27294W        W42425  15.269   3.065  14.815  0.1374 -0.1193  0.2324
27295W        W42426   1.797  11.176   2.435 -0.3909 -0.1138  0.0736
27296W        W42427  10.259   1.483  15.214  0.0859  0.2228 -0.0955
27297W        W42428  16.107   1.449   5.915  0.0384  0.2474  0.0837
27298W        W42429  13.337   8.046   2.660 -0.1981 -0.1036 -0.1345
27299W        W42430   3.118   5.844   4.481  0.0957  0.0472 -0.1640
27300W        W42431   9.617   5.116  12.621  0.0079 -0.4312 -0.0644
27301W        W42432  11.016   9.036   2.732  0.2575  0.0769 -0.0757
27302W        W42433   8.095  18.249  10.636 -0.0179 -0.0154 -0.1289
27303W        W42434   9.399   0.927  11.322 -0.1304  0.3298 -0.4396
27304W        W42435  14.571  10.501   5.199 -0.0525  0.1754 -0.1794
27305W        W42436   5.038  10.071   1.154 -0.1323 -0.1358 -0.3692
27306W        W42437   2.937  13.962   0.797  0.2889 -0.0581 -0.3054
27307W        W42438   1.447  17.197   0.017  0.0964  0.1304  0.0843
27308W        W42439  15.459   4.937   0.674  0.1391 -0.1645  0.1333
27309W        W42440   8.440  14.587  14.219 -0.1164 -0.1250 -0.0210
27310W        W42441  13.737  12.408  13.424  0.0720  0.1597 -0.2329
27311W        W42442   5.835   9.052   2.761  0.1928  0.0581 -0.2618
27312W        W42443  16.896  12.635  14.474 -0.1056  0.0437  0.0575
27313W        W42444   7.887  14.795   4.656 -0.0331  0.0765 -0.0691
27314W        W42445   6.194   4.272   0.244 -0.0455 -0.3739 -0.0946
27315W        W42446  12.435   6.547   4.602 -0.3859 -0.1253 -0.0337
27316W        W42447  15.339  13.487  12.719 -0.1660  0.0903  0.1869
27317W        W42448   6.080   5.804  15.379 -0.0889  0.2761  0.1365
27318W        W42449  10.057   7.757  15.939  0.0889 -0.3348 -0.0979
27319W        W42450  13.710  15.109   3.516 -0.0361  0.1762  0.1977
27320W        W42451  11.764   8.304  11.204 -0.1902  0.2317  0.0623
27321W        W42452  13.935  16.065  11.279 -0.2661  0.2948  0.0508
27322W        W42453   6.128   3.094  13.341  0.0415  0.1354  0.0303
27323W        W42454  11.078   5.992   2.198  0.1841 -0.2446  0.1606
27324W        W42455  14.830   6.489   2.417  0.1056  0.3403 -0.1097
27325W        W42456  11.522  17.020  12.871 -0.1691 -0.0981  0.1279
27326W        W42457   9.305  10.146   2.793  0.1610 -0.0878 -0.1907
27327W        W42458   2.611   4.461   1.509  0.2009 -0.1296 -0.1331
27328W        W42459   7.446   4.590  12.429  0.0112 -0.0294  0.2223
27329W        W42460  11.113  10.186  11.642  0.2058 -0.0483  0.0013
27330W        W42461  10.366   8.535  13.050  0.3880 -0.0675 -0.3151
27331W        W42462  17.300   9.225   4.933 -0.2898 -0.0052  0.0261
27332W        W42463  16.866   0.592  15.269  0.1164  0.2767  0.1551
27333W        W42464   4.305   6.325   4.313 -0.2045  0.1054 -0.0126
27334W        W42465   7.191   4.147  12.603 -0.0404  0.0305  0.0581
27335W        W42466   8.354  15.351  12.503  0.1203  0.3414 -0.0786
27336W        W42467  17.986  17.739  14.929  0.0400 -0.5454  0.0025
27337W        W42468   6.028   8.817   2.309 -0.3995  0.0203  0.2104
27338W        W42469  11.142   3.492   5.173 -0.2510 -0.2766  0.2535
27339W        W42470   1.432  12.996   3.874  0.0446  0.2330  0.2366
27340W        W42471  13.831   3.173  15.865 -0.0482 -0.0334  0.0529
27341W        W42472  13.024   0.127   4.953  0.1539 -0.1904  0.0152
27342W        W42473   9.263  17.646   1.709 -0.0741 -0.0276  0.1028
27343W        W42474   0.394   8.169  10.798  0.1367  0.3929  0.2943
27344W        W42475  18.191  17.171   0.876  0.3022  0.0770  0.2556
27345W        W42476  16.197  11.393   2.099 -0.1581  0.0981 -0.0455
27346W        W42477   3.424  17.885  15.368 -0.1043  0.1033  0.0453
27347W        W42478  13.477   5.486  13.612 -0.2816  0.2286  0.3694
27348W        W42479  11.628   4.419   1.827  0.0114  0.0730 -0.2539
27349W        W42480   8.314  12.721   5.690 -0.1590  0.2472  0.2062
27350W        W42481   6.310   0.653   0.190  0.3000  0.1736  0.4144
27351W        W42482  16.582  15.080  15.425  0.0481  0.0992 -0.0873
27352W        W42483   7.426   2.753  16.094 -0.2867  0.0465 -0.0807
27353W        W42484  13.534   3.906  14.239  0.0092  0.0089  0.0239
27354W        W42485   4.597  10.975   3.026  0.3556 -0.0277 -0.0216
27355W        W42486   0.307   8.177   1.621 -0.0620  0.1136 -0.0557
27356W        W42487  16.724   2.441   6.508  0.3594  0.1469  0.1126
27357W        W42488  11.955  15.580  11.328  0.1762  0.0325 -0.0773
27358W        W42489   8.657  11.954   4.651 -0.0429 -0.1018 -0.0297
27359W        W42490   8.415  11.283   0.390 -0.0000 -0.0984 -0.1697
27360W        W42491   8.353  15.873  14.125 -0.0278 -0.2324  0.5263
27361W        W42492  16.717  10.560   2.171 -0.0066 -0.0492  0.2810
27362W        W42493   8.571   6.076   4.094  0.3256  0.2395  0.1612
27363W        W42494   7.764  15.615   4.285  0.1160  0.0434 -0.1790
27364W        W42495  14.199  17.646  14.763  0.0482 -0.1690  0.0233
27365W        W42496   4.747  11.715   0.722  0.1797  0.2117 -0.3551
27366W        W42497  11.857   0.436   3.205 -0.2029  0.1245  0.3525
27367W        W42498   0.539  15.242   1.579 -0.2080  0.0922 -0.0758
27368W        W42499   1.065  10.438   2.389  0.2400 -0.0196  0.1066
27369W        W42500   9.050  13.984  14.611 -0.1936 -0.4182 -0.0190
27370W        W42501   4.799  13.962  12.056 -0.3635  0.1442  0.2162
27371W        W42502  14.812  10.963  12.708  0.0275 -0.2367 -0.1902
27372W        W42503  12.962   1.748  13.218  0.1111  0.1895  0.2110
27373W        W42504   3.449  16.402   4.156  0.2754 -0.1224  0.3161
27374W        W42505  13.045  11.233  14.492 -0.2132  0.0804 -0.2024
27375W        W42506   7.461  10.244  15.151 -0.2133 -0.1270  0.0003
27376W        W42507  16.211  13.312   0.712 -0.0182 -0.2151  0.0170
27377W        W42508   1.917   9.456  12.857 -0.1082  0.2668 -0.0508
27378W        W42509   4.722  12.205   5.884 -0.1777  0.0865  0.0050
27379W        W42510   6.094   8.877   1.797 -0.1320 -0.3288  0.3499
27380W        W42511  14.509  12.544  15.816  0.5915  0.2445  0.0737
27381W        W42512   5.718   9.352  12.788 -0.0802 -0.0196  0.1407
27382W        W42513  15.587   0.346   5.793 -0.1249 -0.0895 -0.0042
27383W        W42514  14.518   8.116  12.552 -0.2425 -0.0811 -0.0592
27384W        W42515  13.264  16.440   2.237  0.2024  0.0995 -0.1375
27385W        W42516   7.854  10.646   0.115  0.1284 -0.2383 -0.3064
27386W        W42517   8.393  14.232   5.314  0.3167  0.1744 -0.1507
27387W        W42518  13.645   0.748  12.456 -0.0105 -0.0653 -0.1823
27388W        W42519  10.085  16.921   1.721 -0.1126  0.0518  0.2307
27389W        W42520   9.659   7.073   3.150 -0.2295 -0.0381  0.2865
27390W        W42521   4.238  17.723   5.295 -0.0516  0.2697 -0.2669
27391W        W42522  17.961  14.203  11.430 -0.1192  0.0176 -0.0809
27392W        W42523   6.742   5.260  14.148 -0.1537 -0.3122  0.0905
27393W        W42524   5.434   1.562  13.868  0.3975 -0.3220 -0.0456
27394W        W42525  10.551  16.323   3.736  0.2687 -0.0575  0.3301
27395W        W42526   3.481   3.468   5.137  0.0986  0.0858  0.1056
27396W        W42527   9.441  16.657   4.456 -0.0847  0.1098  0.2452
27397W        W42528   0.820  18.197  14.367 -0.2408  0.3831  0.3350
27398W        W42529  14.633   0.682  12.859  0.0855  0.0151 -0.2781
27399W        W42530   1.235   1.314   1.212  0.2501 -0.0904  0.2974
27400W        W42531  15.559  11.597  12.463 -0.2074 -0.2306  0.1049
27401W        W42532  13.250   2.683   0.283  0.3845 -0.1159 -0.1629
27402W        W42533   2.068   1.085   3.737 -0.0233 -0.0652  0.0760
27403W        W42534  13.980   4.311   2.446 -0.0486 -0.1456  0.0675
27404W        W42535   5.521   4.396  10.667  0.3223 -0.0414  0.2138
27405W        W42536  12.612  10.895   3.534  0.2602  0.0406  0.1351
27406W        W42537  17.802  17.823  13.217 -0.1258  0.0102  0.0268
27407W        W42538   4.707  13.465  13.268 -0.0951 -0.1456 -0.0486
27408W        W42539  16.072  12.367  13.142  0.0074  0.4579 -0.1108
27409W        W42540   5.151  17.993   1.851 -0.2977  0.1225  0.0609
27410W        W42541   7.809  11.867   2.087 -0.0520  0.3304  0.2656
27411W        W42542   4.923  13.452   2.745  0.2284 -0.0784 -0.1206
27412W        W42543  13.727  15.511   0.422  0.1306  0.0796  0.0290
27413W        W42544   8.117  17.333  12.674 -0.3289  0.0893 -0.1397
27414W        W42545  18.227  15.085  13.272 -0.0895  0.1918  0.0793
27415W        W42546  17.777  12.892  11.768  0.1309 -0.2136 -0.1162
27416W        W42547   0.216   9.106   1.260 -0.1800  0.0070  0.3627
27417W        W42548  15.232   8.132   4.092 -0.0308 -0.1391 -0.3459
27418W        W42549   3.035  11.396  12.270 -0.0908 -0.0047 -0.0107
27419W        W42550  14.318   4.361   0.200  0.1779  0.0181  0.1416
27420W        W42551   3.117  11.693  15.321  0.0231  0.2450 -0.1347
27421W        W42552   9.894   0.261   4.798 -0.0430  0.0832 -0.0985
27422W        W42553  17.188   9.073  13.508  0.0340  0.1892 -0.2434
27423W        W42554  15.375   8.730   1.921  0.1552  0.0973 -0.0493
27424W        W42555  11.335  11.604  14.659  0.0846 -0.2256 -0.0345
27425W        W42556   9.448  15.354   3.514 -0.1536  0.2479  0.0568
27426W        W42557  11.357  16.368   2.009  0.1200 -0.1913 -0.1564
27427W        W42558   6.816   0.153  14.123 -0.0326 -0.0608  0.1636
27428W        W42559  11.292  16.030   2.412 -0.3071  0.2459  0.0650
27429W        W42560  10.216  11.369   0.107  0.1467 -0.0879  0.2385
27430W        W42561  13.323  14.145  12.736 -0.0784  0.0691  0.1225
27431W        W42562  16.782   6.325   3.682  0.0627  0.3230  0.5325
27432W        W42563   7.760   6.667  11.347  0.0091 -0.0289 -0.0674
27433W        W42564   6.985  16.783   3.164  0.1966  0.1164 -0.0223
27434W        W42565  15.015  10.822  15.951 -0.0538 -0.0668 -0.2499
27435W        W42566   5.661  10.760  12.243  0.0327 -0.2414 -0.0224
27436W        W42567   1.476  13.476   0.161  0.0184  0.1500 -0.2241
27437W        W42568  12.553  13.110   3.852  0.1391 -0.0064  0.2507
27438W        W42569  18.230   7.737  13.311 -0.0182 -0.0372  0.0314
27439W        W42570   9.498   1.251  15.623 -0.1105 -0.2584 -0.1314
27440W        W42571  15.078  11.480   2.637 -0.0064 -0.1394 -0.3497
27441W        W42572   4.109  14.373  14.682 -0.0415 -0.0179  0.0473
27442W        W42573   6.110   9.271  11.147 -0.1030 -0.2174  0.1401
27443W        W42574  13.661   3.469  14.056  0.2319 -0.1440 -0.0701
27444W        W42575  17.557   8.569  11.292  0.3033 -0.1660 -0.2365
27445W        W42576   9.011   8.245  15.706 -0.1641 -0.2105 -0.3144
27446W        W42577   7.680   3.434  14.761 -0.0225  0.2597 -0.2974
27447W        W42578  10.494   6.897   3.597  0.2231 -0.0607  0.1231
27448W        W42579  13.445   0.091  12.832  0.2074 -0.1735 -0.0419
27449W        W42580   8.596   5.740  15.140 -0.2027 -0.0459  0.0061
27450W        W42581   5.777   1.990  15.703 -0.1750 -0.2515 -0.0258
27451W        W42582   8.377  14.999   4.121  0.0363  0.0742 -0.2311
27452W        W42583   5.261  14.693  13.235  0.1734 -0.1237  0.1343
27453W        W42584  12.643   5.351  10.523  0.0122  0.3164  0.1385
27454W        W42585   4.747   8.287   2.667  0.0749  0.5640 -0.0232
27455W        W42586  14.026  18.207   4.114  0.0467  0.0942 -0.4054
27456W        W42587   3.303  10.486  12.575  0.0013  0.0824  0.0852
27457W        W42588   7.050   7.526  15.372 -0.0307 -0.2057  0.1591
27458W        W42589  18.075  13.364   1.709 -0.0371  0.0469  0.2736
27459W        W42590   5.646   0.087   0.006  0.0371 -0.0183 -0.0978
27460W        W42591  11.027   7.832  14.290  0.1410  0.1599  0.2115
27461W        W42592   3.713  14.583   4.337  0.1156  0.2711  0.1644
27462W        W42593   7.246   2.621   3.100  0.3100 -0.2715 -0.0355
27463W        W42594  16.392   9.886   1.414  0.6028  0.1372 -0.0974
27464W        W42595   4.944  14.228   2.270 -0.1733 -0.0417 -0.3147
27465W        W42596  12.107  16.222   0.579  0.2044  0.1215  0.1202
27466W        W42597  12.315  13.691  15.131  0.2343  0.0217  0.0710
27467W        W42598   9.811  16.044   1.187  0.1515 -0.4389  0.2914
27468W        W42599   7.570   3.171   2.091  0.0997  0.1878  0.0854
27469W        W42600  11.350   2.675  15.292  0.0701 -0.1300  0.1630
27470W        W42601  11.459  11.585  12.504 -0.1807  0.0131 -0.1783
27471W        W42602  12.948   0.815  12.246 -0.2280  0.0176 -0.1315
27472W        W42603   9.566  14.828   4.287  0.3183 -0.0088 -0.1596
27473W        W42604   7.535  11.618   4.688  0.0606  0.0782 -0.0262
27474W        W42605   8.931   6.225   3.225  0.0572  0.0609 -0.2467
27475W        W42606   1.372   0.502   5.263  0.3272 -0.0968  0.1974
27476W        W42607   0.309   2.648  15.483  0.1503 -0.0059 -0.1801
27477W        W42608  18.023  11.102  11.533 -0.0558 -0.5891  0.1297
27478W        W42609  18.112   7.403  11.363 -0.4221  0.0396  0.0854
27479W        W42610   8.920  16.960  15.937 -0.2647  0.1839 -0.2362
27480W        W42611  17.655   2.747  13.302 -0.0747 -0.2888  0.1522
27481W        W42612   6.029  14.292   4.856  0.0997 -0.0144 -0.2661
27482W        W42613  10.878  13.620   5.667 -0.1572 -0.1170  0.1257
27483W        W42614  18.147   7.297  10.708 -0.2970  0.1213  0.1593
27484W        W42615   3.605   1.237  13.026  0.1475 -0.2475 -0.0074
27485W        W42616  16.753  13.921  12.894  0.0380 -0.0280 -0.3752
27486W        W42617   0.452   6.518   2.564  0.1076  0.2071 -0.1123
27487W        W42618   0.975   7.032  13.779 -0.1520 -0.1950  0.1077
27488W        W42619   3.055   9.663  13.517  0.1345  0.0449  0.0512
27489W        W42620   1.159   9.431   1.895  0.2565 -0.1468 -0.3206
27490W        W42621   3.759  11.689   3.112 -0.1478 -0.1153 -0.1246
27491W        W42622  11.253   8.131  11.156 -0.0884  0.1674 -0.1483
27492W        W42623  16.743   3.593  14.106  0.0117  0.2073  0.3631
27493W        W42624   7.602  14.210   2.504  0.1072  0.0253  0.0262
27494W        W42625   6.622   6.241  14.327  0.1240  0.2802  0.2723
27495W        W42626   7.721   9.453   3.448  0.0126 -0.3409 -0.0305
27496W        W42627   6.443  18.065  11.917  0.1052  0.0446  0.2308
27497W        W42628   6.672   1.742  12.175  0.0840 -0.0990 -0.1223
27498W        W42629   5.996   0.565  11.187 -0.0686  0.0429 -0.1775
27499W        W42630   6.455   6.293  12.575  0.4061 -0.0513 -0.0570
27500W        W42631  13.999  12.805  11.894 -0.3798  0.1548 -0.0757
27501W        W42632   3.267  12.842   4.806 -0.0676 -0.0076  0.0780
27502W        W42633   9.530   7.356   5.791 -0.0076  0.0994  0.0297
27503W        W42634  10.705  17.858  14.118  0.2135  0.0552  0.1133
27504W        W42635  15.758   1.681  15.092  0.4555 -0.0504  0.1753
27505W        W42636  12.497   6.583   0.209  0.0822  0.0772 -0.3560
27506W        W42637   1.699  11.491   0.994  0.1698 -0.2856  0.0101
27507W        W42638  17.389   3.703  12.329  0.0385  0.0480  0.0807
27508W        W42639   4.045   0.371   3.859  0.0904 -0.0302 -0.1611
27509W        W42640   8.530   6.798  13.118 -0.0821 -0.0548  0.2389
27510W        W42641  18.312   4.068   1.507 -0.2234 -0.1954  0.0883
27511W        W42642   8.840   6.369   0.086  0.0027 -0.0365 -0.1812
27512W        W42643   6.984  13.212  11.668  0.3552  0.0004  0.1394
27513W        W42644   8.940  11.237   1.492 -0.2802 -0.0500  0.0695
27514W        W42645  17.182   5.289  13.619 -0.0151 -0.0065 -0.1260
27515W        W42646   3.707  17.795   3.201 -0.0714  0.2465 -0.1892
27516W        W42647  13.055   7.001  13.007 -0.4026  0.2581  0.1579
27517W        W42648  10.320   1.934   4.574  0.2000 -0.2130  0.0612
27518W        W42649  11.870  15.344  14.599 -0.0604 -0.0329 -0.1192
27519W        W42650  13.428   4.535  16.131 -0.0934  0.0052  0.2645
27520W        W42651   1.557   8.604   3.796 -0.1569  0.2360  0.3873
27521W        W42652  17.091   4.024  11.970 -0.1615 -0.0881 -0.0259
27522W        W42653   6.559  13.283   3.084 -0.0798  0.1043 -0.3047
27523W        W42654   2.071  11.235  10.966 -0.0475 -0.0546  0.1381
27524W        W42655  14.579   6.007  11.717 -0.0653 -0.3029 -0.1447
27525W        W42656   0.454   5.125  12.502  0.0854 -0.0444 -0.1634
27526W        W42657   3.880  18.186   0.926 -0.0101 -0.0308  0.1187
27527W        W42658  16.624   1.623   0.946 -0.1705 -0.0897 -0.2185
27528W        W42659  17.052  12.482   1.784 -0.0032 -0.3661 -0.0358
27529W        W42660   3.485   3.293   1.489  0.2828 -0.2413 -0.0464
27530W        W42661  18.290  14.030  11.777 -0.0327  0.2633  0.0739
27531W        W42662  11.136   1.920   0.860  0.0639  0.0110 -0.1106
27532W        W42663  16.910  13.399  16.126  0.0977 -0.1195 -0.0839
27533W        W42664  10.568   5.494  11.166  0.1360  0.3618 -0.0381
27534W        W42665  13.935  11.167  14.865 -0.2753 -0.2500  0.4430
27535W        W42666   7.587   1.522  15.388 -0.0554  0.0714 -0.6021
27536W        W42667   5.841   4.493   1.462  0.0463 -0.0556  0.0867
27537W        W42668   1.064   5.645   0.035 -0.0645 -0.2312  0.0374
27538W        W42669   8.392  18.166   4.107 -0.0521 -0.2135  0.0855
27539W        W42670   1.681   2.848  15.096 -0.2361 -0.0205  0.0458
27540W        W42671  15.709   4.923  10.696  0.2082 -0.0581  0.0915
27541W        W42672   4.813  18.066   4.795  0.0466  0.0473  0.0403
27542W        W42673  14.790  12.085   3.373 -0.1971 -0.0381 -0.2059
27543W        W42674  15.378  14.690  12.996 -0.1657  0.1009  0.0018
27544W        W42675   9.896  15.475  11.113  0.0342  0.2190 -0.1100
27545W        W42676   6.208   5.702   1.836 -0.1121 -0.0375 -0.2373
27546W        W42677   5.780   7.586  14.765 -0.2960  0.2552  0.0457
27547W        W42678   3.836  15.103  12.857  0.1625 -0.0253 -0.1347
27548W        W42679  15.943  17.624  14.143  0.0192 -0.2642  0.2751
27549W        W42680  10.222  13.088   4.364  0.0310 -0.1234  0.0217
27550W        W42681   5.325  10.014  16.023 -0.2164 -0.0883  0.0670
27551W        W42682  12.450  17.530   5.698  0.2309 -0.3697  0.0485
27552W        W42683   8.556  10.234   3.325 -0.0564  0.0527 -0.0047
27553W        W42684   3.050  17.382   2.319 -0.3754 -0.0579  0.1446
27554W        W42685  10.704  11.705  15.638  0.1040 -0.3738  0.2433
27555W        W42686   3.347  13.084   4.079 -0.1952 -0.1756  0.1518
27556W        W42687  15.106   9.313  10.147 -0.0775  0.0086 -0.0707
27557W        W42688  11.454   2.783  13.193 -0.0523  0.0758  0.0561
27558W        W42689   1.520   5.195   3.144  0.2631  0.0654 -0.0801
27559W        W42690  15.566   4.763  15.636  0.0523  0.1071  0.0112
27560W        W42691   6.372   5.395   1.347 -0.0731  0.0593  0.0182
27561W        W42692   9.543   4.796  14.454  0.2310  0.1515 -0.1749
27562W        W42693  16.496   6.515   5.361  0.1225  0.3063  0.1801
27563W        W42694   8.787  15.255   5.086 -0.0546  0.0241  0.0951
27564W        W42695   5.234   8.001   4.394  0.0628 -0.1494 -0.2143
27565W        W42696   0.326   5.893   2.758 -0.2377  0.2981  0.1850
27566W        W42697   8.850   3.868   5.656  0.2532  0.1041  0.1147
27567W        W42698  14.118  10.149   1.313 -0.0954  0.0254 -0.1401
27568W        W42699  15.085  17.063  15.470  0.1260 -0.3098 -0.4869
27569W        W42700   0.528   7.702   4.779 -0.1988 -0.0119  0.0071
27570W        W42701   6.915  16.729  12.408  0.1042 -0.0639 -0.1733
27571W        W42702   5.629  16.795   1.996 -0.1829 -0.2520  0.2766
27572W        W42703  10.109  10.407  12.955  0.0761  0.3743 -0.0884
27573W        W42704  17.173   7.356   2.905 -0.1124 -0.0500 -0.1502
27574W        W42705   4.912  14.569  12.848  0.2077  0.0164  0.0198
27575W        W42706   6.553  15.584  14.305 -0.2683 -0.0428 -0.0186
27576W        W42707   3.899  11.782  11.997 -0.3491 -0.0329 -0.3123
27577W        W42708  15.404   7.104   0.762  0.3229  0.1410 -0.0466
27578W        W42709   1.964   3.998  14.170 -0.1891  0.0318  0.2182
27579W        W42710   2.827   9.984  14.004  0.0076  0.2012 -0.0255
27580W        W42711   9.489   1.634  10.911 -0.0848  0.0540 -0.0460
27581W        W42712   6.411   1.165  15.882 -0.2210 -0.0969 -0.2196
27582W        W42713  13.242   0.880   3.754  0.0686  0.1097  0.0568
27583W        W42714   9.962   2.668  14.919 -0.0011 -0.2906 -0.1900
27584W        W42715  10.047   7.107   0.036  0.2217 -0.3195 -0.2364
27585W        W42716   9.297   4.439  13.244 -0.3607 -0.1280 -0.1185
27586W        W42717  17.734  13.199   2.480 -0.1199 -0.0437  0.1814
27587W        W42718   0.554   0.491  14.412  0.3777  0.0617  0.3177
27588W        W42719  12.865  15.328  12.986 -0.1166  0.0024 -0.0081
27589W        W42720   7.429  11.144  11.822 -0.1981 -0.1729  0.0832
27590W        W42721  10.697   1.644  14.944  0.0135 -0.5873 -0.2920
27591W        W42722   8.813   1.284   4.408  0.0565 -0.0472 -0.3397
27592W        W42723  14.155   7.065  10.494 -0.0364 -0.2758  0.2389
27593W        W42724  10.051   9.176  12.647  0.0678 -0.0894 -0.1889
27594W        W42725  16.362  17.311  11.647  0.1823  0.1680 -0.0126
27595W        W42726  16.342  17.860   1.794  0.1936  0.1775 -0.3713
27596W        W42727  17.736  10.889   0.029 -0.2482 -0.3777  0.1217
27597W        W42728   0.201  14.184  13.506 -0.0022  0.1233 -0.2341
27598W        W42729  17.768  11.231   6.048 -0.1730  0.0397  0.3589
27599W        W42730  15.582   9.323   1.307  0.2265 -0.1400 -0.2654
27600W        W42731  13.820   6.266  15.801 -0.1472  0.2289  0.0374
27601W        W42732  15.009  10.503  11.699 -0.0246  0.0686 -0.3233
27602W        W42733  14.177   4.353  11.163 -0.0528  0.3690 -0.0728
27603W        W42734  17.498  15.415   1.995  0.1281  0.0933  0.0749
27604W        W42735   5.768  16.859  13.747  0.0701 -0.0268  0.0324
27605W        W42736  15.266   5.566  13.280  0.1442  0.0051 -0.1242
27606W        W42737  15.716   2.034  13.305 -0.1260  0.3050 -0.0663
27607W        W42738  12.407  14.761   0.285 -0.0866 -0.4995  0.1075
27608W        W42739   1.371  10.950  15.235 -0.1978 -0.2320 -0.0715
27609W        W42740   2.822   8.960   0.911 -0.1144 -0.0977  0.1877
27610W        W42741  15.328   7.903   5.382  0.1724  0.4069 -0.3677
27611W        W42742   2.154   4.575   5.241 -0.0755 -0.0377  0.1358
27612W        W42743  16.223   1.772  12.579 -0.1880  0.0534  0.0689
27613W        W42744  11.640   0.792  13.656 -0.0020 -0.1083 -0.1212
27614W        W42745   8.486  11.644   0.749 -0.0786  0.2094  0.3283
27615W        W42746   3.678   7.283   3.613 -0.0464 -0.0958  0.1639
27616W        W42747   7.299   3.022  14.932 -0.0761  0.3659 -0.2498
27617W        W42748   1.189  13.995  14.336 -0.0355  0.0958  0.1845
27618W        W42749  15.315  10.053  14.130  0.0278 -0.2628 -0.1011
27619W        W42750  11.665   1.816   0.887 -0.0782  0.2736  0.2038
27620W        W42751  15.315  16.501   3.483 -0.1347  0.0441  0.1336
27621W        W42752  16.895  13.660  11.001 -0.2355  0.1356  0.2533
27622W        W42753  13.910   4.285  13.563  0.0829  0.2304 -0.0417
27623W        W42754  13.177  17.135   2.525  0.0059 -0.0137  0.2005
27624W        W42755  16.477  10.174   0.543 -0.0825  0.1010 -0.0470
27625W        W42756   1.618   2.405  10.831 -0.0118 -0.1475  0.0418
27626W        W42757  14.283   5.357  14.728 -0.0408 -0.5053 -0.0734
27627W        W42758   6.681   2.086   3.393  0.5311 -0.3245  0.0377
27628W        W42759   6.324   0.319  13.370  0.0241 -0.1162 -0.0431
27629W        W42760  15.903   5.373  11.557 -0.2944  0.2928  0.1622
27630W        W42761   4.490   1.059   1.887  0.4392 -0.0423 -0.2150
27631W        W42762  17.217   6.690   2.029 -0.2864  0.1179 -0.0307
27632W        W42763  13.778  10.590   6.451 -0.2409  0.4547  0.1865
27633W        W42764   0.527  16.453  12.977 -0.0015 -0.0508 -0.0439
27634W        W42765   4.369   0.490  15.039  0.3047 -0.1368  0.0632
27635W        W42766   8.414   4.467  15.300 -0.1986 -0.0154  0.0726
27636W        W42767  15.133  13.782  14.997  0.3218  0.0388 -0.0676
27637W        W42768  15.622  14.029   4.500 -0.0286  0.1464  0.1608
27638W        W42769  12.338  16.496  15.075  0.0616  0.0228 -0.0183
27639W        W42770  16.858  13.395   3.501  0.1207 -0.1302 -0.2847
27640W        W42771   3.078  18.149  11.832  0.0726  0.1291  0.1209
27641W        W42772   7.758  18.112  12.636  0.4350 -0.2081 -0.1460
27642W        W42773   3.004   3.337   3.971 -0.1471  0.1132 -0.2310
27643W        W42774   4.617  11.362  14.788  0.2401  0.0248 -0.0181
27644W        W42775   0.861  16.284   0.926 -0.2474 -0.0773 -0.0285
27645W        W42776   5.557   7.970   2.401 -0.1968  0.1111  0.1909
27646W        W42777  13.267   5.307  15.841 -0.0645  0.1954 -0.7425
27647W        W42778   7.100   1.824  16.093 -0.3046  0.0487  0.4589
27648W        W42779   8.986  15.383  10.803  0.0198 -0.1876  0.0898
27649W        W42780  13.036   2.998   5.558  0.3269 -0.3934 -0.0988
27650W        W42781  14.774   8.229   3.044  0.1403  0.1622  0.2285
27651W        W42782  16.494   4.776   3.818  0.0279 -0.2253 -0.2540
27652W        W42783  12.678  17.812  15.385  0.2357  0.0276  0.4457
27653W        W42784   7.694   2.626   3.694  0.1773 -0.3307 -0.1063
27654W        W42785   5.249   9.483  14.132  0.1281 -0.0604 -0.0573
27655W        W42786   9.058   9.785  13.628  0.2464  0.3495 -0.0413
27656W        W42787  13.404   6.879  16.072 -0.3584 -0.1501  0.1598
27657W        W42788   1.282  13.003   5.142  0.0400  0.0682 -0.0888
27658W        W42789  16.129   3.766  11.521 -0.1398 -0.1748 -0.0017
27659W        W42790  16.201  14.910  15.728 -0.2309 -0.1363  0.1497
27660W        W42791  14.435   1.061   4.244  0.1046 -0.4348  0.1696
27661W        W42792  15.046  15.743  14.772  0.1443 -0.2037  0.1547
27662W        W42793   2.314   2.335  12.182 -0.3181  0.1976 -0.0430
27663W        W42794  14.182  15.600   0.349 -0.2543 -0.1789  0.1426
27664W        W42795   5.287  17.340  14.223  0.0129  0.3311 -0.3068
27665W        W42796  11.875   7.886   4.894 -0.0664 -0.1816 -0.0067
27666W        W42797   8.565   8.803  11.608 -0.1964 -0.1760  0.0565
27667W        W42798  12.191  11.345  11.007  0.0161 -0.1748 -0.0314
27668W        W42799   3.972  12.640  14.433  0.2153  0.0046 -0.1610
27669W        W42800   2.402   2.075   2.627 -0.0660  0.0372  0.1659
27670W        W42801  16.696   7.521   2.883 -0.1982  0.0251  0.0364
27671W        W42802   7.349  12.503   0.919 -0.1153 -0.0801 -0.1393
27672W        W42803   1.426  13.083  13.362 -0.4809 -0.1897  0.2264
27673W        W42804  15.874   2.659  14.199  0.0058  0.0313 -0.2353
27674W        W42805   2.682  11.132   2.302  0.0331 -0.2895 -0.1059
27675W        W42806  12.045  17.602   4.740 -0.0111 -0.0079  0.0782
27676W        W42807   3.279   8.378   0.303  0.4134  0.1061 -0.0955
27677W        W42808  14.850  17.675  13.220  0.2370  0.1009  0.2545
27678W        W42809   3.701   7.447   2.613 -0.1896 -0.1320  0.0593
27679W        W42810   1.106   2.774   2.057 -0.1296  0.3485 -0.3255
27680W        W42811  15.726   0.244   5.316  0.1603  0.0824 -0.1610
27681W        W42812   4.089   4.689  15.284 -0.0281  0.1247 -0.0709
27682W        W42813   1.504  12.850  15.527 -0.0604  0.1261  0.1060
27683W        W42814  13.937  11.977   5.767  0.2332  0.0747 -0.0541
27684W        W42815   9.817   2.769   3.641  0.0351  0.1674  0.1033
27685W        W42816   1.742   0.705  15.818 -0.0089 -0.1250 -0.1484
27686W        W42817   9.480  16.379  13.610 -0.3344 -0.2539  0.0263
27687W        W42818   2.555  13.262   2.522 -0.1681 -0.3112 -0.1619
27688W        W42819   2.116  16.663  10.813 -0.1265 -0.2243  0.0702
27689W        W42820  11.600  15.202  13.788  0.1878  0.3846 -0.0331
27690W        W42821   1.198   8.228  15.860 -0.0137  0.0174  0.0887
27691W        W42822   5.721  12.000   4.680  0.0728 -0.2094  0.0107
27692W        W42823   4.116   5.920   4.486  0.1462  0.2001 -0.3234
27693W        W42824   9.822   9.210   2.348 -0.2699  0.1550 -0.1071
27694W        W42825   9.867   4.858   4.918 -0.0537 -0.4115  0.1355
27695W        W42826   8.313   1.140   1.878  0.0486  0.1994  0.0077
27696W        W42827   8.100   2.466   3.027  0.0442 -0.0372 -0.0302
27697W        W42828  15.399   0.511   5.043 -0.1781 -0.0579 -0.1109
27698W        W42829  10.191  18.218  12.162  0.1644 -0.2455 -0.2548
27699W        W42830  16.435  11.464  11.112 -0.0476  0.1046  0.2703
27700W        W42831   8.931  10.513   2.901 -0.1115  0.2086 -0.1332
27701W        W42832   1.029   2.186  10.180  0.0819 -0.0891 -0.0710
27702W        W42833  15.294  17.440   5.897  0.0824  0.0450  0.1939
27703W        W42834   8.296   3.080  15.323 -0.1718 -0.1497  0.0696
27704W        W42835   0.903  13.856  14.827  0.2929 -0.3648  0.0044
27705W        W42836  18.256   5.135   1.544 -0.0049 -0.0153  0.1051
27706W        W42837   0.309   2.479   1.294 -0.4282 -0.0547  0.2166
27707W        W42838   5.075   0.639   3.029 -0.2645 -0.1210 -0.0836
27708W        W42839  12.794   9.434  13.947 -0.0830 -0.4493  0.1560
27709W        W42840   7.947   4.691   4.841  0.2830  0.1715 -0.0546
27710W        W42841   4.061   8.863  15.882  0.0841 -0.0552 -0.1348
27711W        W42842  11.933   6.984   1.686 -0.2029  0.0955  0.0262
27712W        W42843   3.694   3.597   1.937  0.1090  0.0239  0.1718
27713W        W42844   3.166   1.086  14.900  0.0004  0.0910  0.1305
27714W        W42845   8.592  12.099   9.453  0.0172 -0.5421  0.0210
27715W        W42846   3.691  10.845   1.055 -0.0590 -0.0436 -0.2020
27716W        W42847   8.091  18.163  11.143  0.1633 -0.1133  0.2539
27717W        W42848  11.406   8.170  15.702 -0.1601 -0.0704 -0.0173
27718W        W42849  13.325  15.150  12.971  0.0033  0.2271 -0.0116
27719W        W42850  11.585  12.372   1.135 -0.2773 -0.0423 -0.0640
27720W        W42851  16.258   2.452   0.773 -0.3727 -0.0948 -0.2149
27721W        W42852   3.637  16.270   5.335  0.1692  0.2073  0.0292
27722W        W42853   5.732   4.666   5.366 -0.1095  0.0271 -0.0219
27723W        W42854  10.798   6.487  12.007 -0.0404  0.2010 -0.2898
27724W        W42855  13.682   6.766  12.592 -0.1696 -0.3271 -0.1098
27725W        W42856  17.052   3.546   4.998  0.0147  0.1532 -0.1283
27726W        W42857   9.382   3.839  10.790  0.0071 -0.0278  0.0343
27727W        W42858  11.765   1.485  14.300  0.1683 -0.0989  0.0408
27728W        W42859   7.467  14.336  10.101 -0.0660 -0.1121  0.2548
27729W        W42860  12.077   3.876  15.164  0.0834  0.3865 -0.2931
27730W        W42861  14.405  17.308  14.059  0.0319  0.3630  0.0699
27731W        W42862   2.355  15.805  14.542 -0.3877 -0.2776  0.0634
27732W        W42863  13.721   4.176  12.611 -0.0307 -0.0959 -0.5401
27733W        W42864  11.208   2.352   0.470  0.1851  0.2238 -0.0251
27734W        W42865  18.059  15.787  13.122  0.0147  0.2041  0.1106
27735W        W42866  12.068  14.269   2.178  0.4663  0.1230  0.2741
27736W        W42867  12.991  17.185  12.490  0.0124 -0.0393 -0.0739
27737W        W42868   2.772  12.196   5.204 -0.2319 -0.0611  0.0642
27738W        W42869  16.810   3.529   5.498 -0.3384  0.0367 -0.1648
27739W        W42870   5.108   1.480   5.441 -0.1588 -0.1742 -0.0836
27740W        W42871   1.843  14.493   3.086 -0.1422  0.0962 -0.0276
27741W        W42872   3.673   6.916  11.899 -0.1716 -0.1943  0.1413
27742W        W42873  15.043   1.144  15.503 -0.2698  0.2504 -0.0494
27743W        W42874   2.705   7.929  12.161 -0.1238 -0.0878  0.0381
27744W        W42875   9.440  11.158   3.135  0.3347  0.2022 -0.1552
27745W        W42876   7.513   5.769   2.783  0.2312  0.1098  0.1684
27746W        W42877   8.414   1.065  14.181  0.0498 -0.2582 -0.0183
27747W        W42878   1.880   5.464   4.993  0.2146  0.1216 -0.2417
27748W        W42879  16.482   8.846   4.508 -0.1279  0.2668 -0.1641
27749W        W42880   0.741   6.164  12.513 -0.0843  0.0646 -0.0627
27750W        W42881  13.936   2.983   0.598  0.1491  0.0630 -0.1631
27751W        W42882   1.523   5.001  13.289 -0.0073  0.2397  0.0014
27752W        W42883   4.931  18.087   5.767 -0.1178 -0.0561 -0.0549
27753W        W42884   6.733   7.428   2.396  0.1148 -0.2635 -0.1701
27754W        W42885   4.769  15.315   5.002  0.0163  0.0145  0.0815
27755W        W42886  13.139   2.510   5.451  0.0732  0.3773  0.1223
27756W        W42887   4.853   3.833   0.571 -0.1119 -0.1372 -0.1116
27757W        W42888  16.499  13.084   0.256  0.0121 -0.3245  0.0304
27758W        W42889   9.709  15.568  15.178 -0.0174 -0.2080  0.1007
27759W        W42890   2.438   8.356   2.176 -0.1383  0.1956 -0.1263
27760W        W42891   6.443  16.251   1.516  0.3199 -0.1712 -0.0388
27761W        W42892   4.024   8.354  12.279  0.1599 -0.0541  0.2945
27762W        W42893   8.887   7.943   5.169 -0.6300  0.2730  0.0418
27763W        W42894   5.579  10.750   4.330  0.0195  0.1295  0.3295
27764W        W42895  17.206  18.229  13.943 -0.0995 -0.1481 -0.1072
27765W        W42896   3.185   5.909  15.923 -0.3930  0.0670  0.0849
27766W        W42897   3.102   4.953   3.971  0.4960 -0.0309  0.1108
27767W        W42898   7.284  13.280   3.664  0.1026 -0.0422  0.1160
27768W        W42899   4.936   4.574  11.798  0.0699 -0.2180 -0.3140
27769W        W42900   2.280   4.076  13.349  0.1384  0.1164 -0.0792
27770W        W42901   1.186   5.368  10.592 -0.2105  0.0455 -0.0114
27771W        W42902   4.160   9.172  14.968 -0.1959  0.1921  0.0409
27772W        W42903  10.669   9.264  12.060  0.0567 -0.1303  0.0367
27773W        W42904   8.105  14.421   1.128 -0.2244  0.1206 -0.0742
27774W        W42905   1.051   7.545   4.235  0.0851  0.0140  0.0690
27775W        W42906  18.034  17.956  13.661 -0.2895  0.2026  0.0868
27776W        W42907   4.316   4.211  14.933  0.2387 -0.1886  0.0092
27777W        W42908   6.993   1.672   9.758 -0.1143 -0.1769 -0.1782
27778W        W42909  14.770   3.580  12.664  0.1026  0.0135 -0.2897
27779W        W42910   3.016   9.599   0.346 -0.5724 -0.1444 -0.2524
27780W        W42911  12.607  17.885  12.153 -0.2742  0.0800 -0.0018
27781W        W42912  14.390   6.789   0.134  0.0448 -0.0474 -0.2265
27782W        W42913   5.835   0.408   4.431  0.2610  0.1802 -0.0557
27783W        W42914  14.769   8.750  13.581 -0.1077 -0.2807 -0.1501
27784W        W42915  10.627  14.366   4.927 -0.0899  0.2560  0.1992
27785W        W42916  13.010  15.841   0.523 -0.0003  0.0036 -0.1946
27786W        W42917  13.017   7.538  12.329 -0.1550 -0.1662 -0.0264
27787W        W42918   2.213   6.012  12.492  0.2732 -0.1588 -0.1872
27788W        W42919  12.184  14.601   3.761 -0.1486 -0.0884  0.2769
27789W        W42920  18.343   3.586   2.810 -0.0574  0.1646  0.2291
27790W        W42921   8.350  16.504   1.430 -0.2100  0.1189 -0.2095
27791W        W42922   6.873  13.226   4.705  0.3593  0.3943  0.2623
27792W        W42923   3.479  13.203   2.185  0.1718  0.0390  0.0447
27793W        W42924   0.725   7.556   2.217  0.1268  0.0447  0.0152
27794W        W42925   4.330   0.415  12.203  0.0294  0.1995 -0.2921
27795W        W42926  10.498   9.581   3.191 -0.0433 -0.1698 -0.1867
27796W        W42927   2.291  16.458   2.952 -0.1137  0.3683 -0.0533
27797W        W42928   1.597  16.338   5.977 -0.4094  0.0737  0.2388
27798W        W42929   6.777  16.265  11.960 -0.0928 -0.2610  0.0930
27799W        W42930  16.816   5.526  15.790 -0.0932  0.0116 -0.1892
27800W        W42931  13.312  13.342  10.357 -0.1101 -0.0681  0.1314
27801W        W42932  15.367   6.008  14.741 -0.1393  0.0789  0.0248
27802W        W42933  10.334   7.202   1.490  0.0783  0.2668  0.1492
27803W        W42934   4.523  16.121   3.946  0.2527  0.2142 -0.0707
27804W        W42935  11.175  15.381  15.943  0.2976  0.1909 -0.0860
27805W        W42936   8.902  11.758   1.465 -0.1956 -0.4192 -0.0338
27806W        W42937  14.814   9.874   0.586 -0.2246 -0.1131  0.2751
27807W        W42938   6.394  15.761   1.318  0.1189  0.0174 -0.3680
27808W        W42939  16.840   3.090   5.089 -0.2374 -0.5275  0.0194
27809W        W42940  13.112   2.098   1.014 -0.2393 -0.1320  0.5456
27810W        W42941  12.645  14.360  12.021  0.1572 -0.2917  0.5475
27811W        W42942  14.337  17.919  15.209 -0.0696  0.1675 -0.0633
27812W        W42943   6.797  16.482   0.712 -0.1618 -0.1625 -0.0817
27813W        W42944   9.967   8.532  14.938  0.1071  0.0588 -0.1665
27814W        W42945   2.156   4.815  11.656 -0.0166  0.0997  0.3302
27815W        W42946   1.569   4.877   3.567  0.0835  0.2114 -0.1135
27816W        W42947   4.315   0.135   0.029 -0.0274 -0.1723  0.0787
27817W        W42948   5.683   6.739  11.094  0.2672  0.1770 -0.2417
27818W        W42949   0.337   3.141  11.337  0.2054  0.0837 -0.3752
27819W        W42950  16.778  12.325   3.828  0.2235  0.2629  0.0302
27820W        W42951   1.601  11.962   3.678 -0.0291  0.1379  0.1897
27821W        W42952  10.245   2.058   0.416  0.3105  0.2983 -0.0519
27822W        W42953   9.013  12.989   1.930  0.0682  0.0517  0.3771
27823W        W42954  13.943   6.551   4.660 -0.2595 -0.0775 -0.1491
27824W        W42955   8.715  17.539   2.837  0.1128  0.2682 -0.2571
27825W        W42956  10.076  14.048   3.398  0.1244  0.1434  0.0992
27826W        W42957  16.150   9.677   4.292 -0.1140  0.0652  0.0771
27827W        W42958   8.111   9.454   2.219 -0.0493  0.0706 -0.2527
27828W        W42959   6.511  15.220  15.963  0.0209  0.0628  0.2323
27829W        W42960   9.671  10.849   2.582  0.0432  0.1256 -0.0182
27830W        W42961   1.260   3.922  11.521  0.1427 -0.2054  0.1141
27831W        W42962   6.037  13.771   5.615 -0.0421  0.1585 -0.0398
27832W        W42963  11.111   2.298  15.623 -0.0636 -0.2185 -0.1886
27833W        W42964   0.350  11.451   2.850  0.1570  0.4655 -0.2183
27834W        W42965   1.862  17.107  15.694 -0.3073 -0.0537  0.0692
27835W        W42966  15.993   8.636   1.792 -0.1707  0.1251  0.1247
27836W        W42967  15.048   9.064  12.326 -0.1337 -0.1542  0.0092
27837W        W42968   8.811   4.440   1.499  0.0681  0.0600  0.0642
27838W        W42969  12.562  12.495  11.981  0.6089 -0.1600  0.0114
27839W        W42970   3.613  15.366  11.067 -0.2783  0.1409 -0.0687
27840W        W42971   9.908  17.647   5.016  0.0604 -0.0091  0.0381
27841W        W42972  12.914   3.222  12.600  0.2293 -0.0768 -0.0808
27842W        W42973   9.023   8.886   6.276  0.0061  0.1993 -0.2065
27843W        W42974  15.651  18.163   5.139  0.2821  0.3077 -0.3054
27844W        W42975   1.183   1.977  14.024  0.0488  0.1520 -0.2975
27845W        W42976  10.021  15.969  15.927 -0.0361  0.0778 -0.2974
27846W        W42977  16.652  13.800   4.402 -0.0429  0.4098  0.0906
27847W        W42978  13.511  10.889  14.550  0.0600 -0.2762  0.0282
27848W        W42979  12.496  16.658   5.037  0.1760  0.2116  0.0851
27849W        W42980   6.813   2.155   3.892 -0.0272  0.0223 -0.1553
27850W        W42981   8.316  16.536  11.968  0.0405 -0.1994  0.1078
27851W        W42982   1.448  17.556   1.535  0.2014  0.0320 -0.2744
27852W        W42983   9.531  12.636   4.728 -0.2084  0.1094  0.0302
27853W        W42984  18.287   0.029  12.123  0.2840 -0.2555  0.2241
27854W        W42985   8.051  12.856  14.418  0.0241 -0.2299 -0.0243
27855W        W42986  11.896   4.240   4.687  0.0706  0.1050 -0.0088
27856W        W42987  10.900  16.159  15.090 -0.2074 -0.1967  0.0092
27857W        W42988  12.755   8.656  13.305  0.0258 -0.0240 -0.0990
27858W        W42989   3.653   1.012  15.012 -0.1145 -0.0672 -0.1711
27859W        W42990  12.170   3.256  11.172 -0.1773 -0.2019 -0.1444
27860W        W42991   8.848  15.591  15.140  0.0121  0.2116 -0.0605
27861W        W42992   5.375   4.258   0.648  0.0030 -0.2187  0.0076
27862W        W42993  13.868   8.545  12.683 -0.1125  0.0337 -0.0584
27863W        W42994  14.416   4.670  15.375 -0.2792 -0.2186  0.0212
27864W        W42995   3.699   9.817   2.185  0.1702  0.1728  0.0860
27865W        W42996   5.058  15.028   2.641 -0.0789 -0.2905 -0.0085
27866W        W42997   4.804   0.018   1.360  0.2654 -0.0784 -0.1049
27867W        W42998   7.992   6.081   2.988 -0.0807 -0.1677  0.1421
27868W        W42999  17.368   5.787   2.671  0.0292 -0.1506 -0.0366
27869W        W43000   2.749   5.143   3.385  0.0706  0.1298 -0.4161
27870W        W43001   4.177   0.561   0.268 -0.0402  0.0578 -0.1100
27871W        W43002  17.359   3.739  11.066  0.2880  0.1821  0.2449
27872W        W43003  15.407   1.401   0.831  0.1445  0.0335  0.0832
27873W        W43004   1.840   8.857   1.295  0.0340  0.3803 -0.3309
27874W        W43005   5.888  11.368   0.269  0.1129  0.0096 -0.0306
27875W        W43006  12.137   2.208   4.237  0.1991 -0.0381  0.0476
27876W        W43007   7.277  14.024  10.799 -0.2973  0.1755  0.0166
27877W        W43008  13.506  11.847   5.558  0.2381 -0.0153  0.3122
27878W        W43009   3.063   1.730   5.854  0.3204  0.2145  0.2413
27879W        W43010  16.634   0.510  13.560 -0.0929  0.0421 -0.2492
27880W        W43011  16.612   6.454  14.409 -0.1395 -0.0923 -0.0434
27881W        W43012   9.674   5.309  13.153  0.3607 -0.2585  0.0139
27882W        W43013   8.270   1.359   3.004  0.0486 -0.0247  0.0455
27883W        W43014   2.675   3.819  11.150  0.4021  0.0050 -0.0085
27884W        W43015   5.698  11.771  14.300 -0.0086  0.2675  0.0990
27885W        W43016  15.438   0.636   4.448  0.3948 -0.0732  0.0465
27886W        W43017  13.325   4.378  12.882  0.0539  0.3295  0.1231
27887W        W43018  15.840  12.525   3.813  0.2750  0.0970  0.1258
27888W        W43019   2.140  15.033   5.384  0.2036  0.1861  0.1832
27889W        W43020  12.628   6.849   3.034  0.1282  0.2195 -0.1175
27890W        W43021  16.283  18.004  12.351  0.0991 -0.0056  0.2323
27891W        W43022  15.666   4.046  11.307 -0.1782 -0.0907 -0.0699
27892W        W43023   4.909  17.002   2.737 -0.2765  0.1854 -0.5026
27893W        W43024   4.245  17.608   0.479 -0.0730  0.0927  0.2112
27894W        W43025   1.205   3.958   5.398  0.1728  0.1848  0.0102
27895W        W43026   6.211  12.417  15.923 -0.0855 -0.0655 -0.2346
27896W        W43027  16.087   0.883  12.005  0.0256 -0.1616  0.1992
27897W        W43028   7.809  13.583  11.802 -0.0151  0.1081  0.3585
27898W        W43029   0.559   3.759   0.223 -0.2260  0.0454  0.3956
27899W        W43030  10.813  14.792   0.083  0.1340 -0.3126 -0.0830
27900W        W43031  11.171   6.311  15.489  0.0150  0.0148  0.0019
27901W        W43032  17.468   1.522  12.883 -0.1614  0.1234 -0.1922
27902W        W43033   4.456   7.947  14.631  0.0143 -0.0108 -0.2473
27903W        W43034   2.965  14.745  13.625 -0.0401  0.1233 -0.0692
27904W        W43035   6.045   4.662   3.942  0.2286  0.0866  0.0719
27905W        W43036   2.580   9.391   0.722  0.0126  0.0059  0.2021
27906W        W43037  11.977   5.799   2.033 -0.0283  0.1705  0.1154
27907W        W43038  17.226  14.362   5.181  0.0895 -0.1492 -0.0842
27908W        W43039  11.562  14.831  13.416  0.2144  0.0093  0.0502
27909W        W43040  16.874  16.381   3.513  0.2542 -0.1021 -0.0790
27910W        W43041  11.602   4.398  15.772 -0.2750 -0.0842 -0.0180
27911W        W43042   4.133  14.145   4.943  0.1462 -0.1387 -0.1274
27912W        W43043  12.650   1.888   1.071  0.0312  0.1125  0.1475
27913W        W43044   4.154  11.804  15.600  0.0399 -0.0345  0.3111
27914W        W43045   3.745   5.587   1.651 -0.0385  0.4660 -0.1976
27915W        W43046  12.184   3.183   1.924 -0.1635 -0.0269 -0.4977
27916W        W43047   3.545   3.022  15.719  0.2311  0.0777 -0.0765
27917W        W43048  18.101   1.428   1.157  0.3040 -0.2679 -0.4647
27918W        W43049  15.293  17.877   4.119 -0.1482  0.1310  0.3153
27919W        W43050  16.354  15.671   2.437 -0.0346  0.2853 -0.2187
27920W        W43051  16.019   2.289   1.155  0.3670  0.1094 -0.1031
27921W        W43052   7.630  15.176   3.500  0.2208 -0.0122  0.1571
27922W        W43053  16.140   6.263  14.192 -0.3154 -0.0123 -0.0452
27923W        W43054  15.910  15.399   0.260  0.1902  0.4082  0.2969
27924W        W43055  16.191  14.752   0.893 -0.0212 -0.0539 -0.0396
27925W        W43056   7.607   7.405  14.040  0.0244 -0.1257  0.1529
27926W        W43057   8.462   1.499  14.927  0.0174 -0.0843  0.3462
27927W        W43058   2.268   2.450   2.273 -0.1322  0.0453 -0.1052
27928W        W43059   8.572   7.932  11.204 -0.0893 -0.1718 -0.0786
27929W        W43060  15.394   5.523   2.701 -0.2383 -0.0005 -0.1210
27930W        W43061  16.995   3.639   1.716 -0.1225  0.2712  0.1726
27931W        W43062   1.398  10.272   0.346 -0.5741 -0.1415  0.2355
27932W        W43063  13.054  10.625   0.251  0.0395 -0.0846 -0.1022
27933W        W43064   3.337  17.709   3.576  0.3027  0.3950 -0.0176
27934W        W43065   5.322  17.653   2.993 -0.2215 -0.1327 -0.2513
27935W        W43066  12.403   8.540  14.245  0.3311  0.3050  0.1423
27936W        W43067  13.423   3.322  11.018  0.0366  0.1244  0.0138
27937W        W43068  12.422  12.327   1.681  0.0020 -0.0419  0.0630
27938W        W43069   6.216   0.175   3.636 -0.1292 -0.0779 -0.0854
27939W        W43070  15.533  16.485   5.622 -0.0163 -0.2492  0.1819
27940W        W43071   8.571   2.614  14.624  0.0256 -0.0348 -0.0640
27941W        W43072  17.414  17.301  13.418 -0.0052  0.0388  0.0430
27942W        W43073  10.862   4.709  11.529 -0.2482  0.2113  0.1063
27943W        W43074  10.346  17.059  11.829  0.2647  0.1931  0.0902
27944W        W43075  11.506  11.579  13.015  0.0970 -0.2714  0.0128
27945W        W43076   9.989   0.068   5.671  0.0443 -0.2677 -0.2064
27946W        W43077  11.427  17.742   4.148 -0.0620  0.2395 -0.2763
27947W        W43078   0.828   4.323  10.361  0.2832  0.1481 -0.1397
27948W        W43079   7.609   5.701  12.245  0.0749 -0.0103  0.0621
27949W        W43080   1.084  12.030  13.763 -0.1939  0.0595 -0.0653
27950W        W43081   9.859   4.629   2.511 -0.2101 -0.0258  0.1664
27951W        W43082   5.746  18.192  15.654 -0.0159 -0.2748  0.0210
27952W        W43083   0.229  13.679  15.386 -0.0975  0.1309 -0.0486
27953W        W43084  13.217   5.957   3.965 -0.2534 -0.0236  0.1518
27954W        W43085   0.030   8.029  10.482  0.2081  0.0506  0.1321
27955W        W43086   4.144  14.016  15.069 -0.1287  0.1148 -0.3881
27956W        W43087   5.874   6.719   2.413  0.3094 -0.0496 -0.0286
27957W        W43088   2.062   0.744  11.437  0.4730 -0.3308  0.3165
27958W        W43089   2.998  11.105   0.665  0.2981  0.3052 -0.1293
27959W        W43090   8.930  13.660   1.404 -0.2018 -0.5561  0.2736
27960W        W43091  18.186   7.644  11.840  0.0421  0.2378  0.2803
27961W        W43092  12.168   9.393   1.878 -0.0553  0.0532 -0.1457
27962W        W43093   2.735  13.486   1.579  0.0826 -0.1658  0.0249
27963W        W43094   3.672   5.419   3.375 -0.0199  0.0957  0.2048
27964W        W43095   8.086   1.160   3.935 -0.2436  0.2164  0.2412
27965W        W43096   7.448  11.222   2.263 -0.1273 -0.1050 -0.0962
27966W        W43097   5.331  16.892   0.017 -0.5149  0.1610 -0.1229
27967W        W43098  16.894   0.707  12.911 -0.0424 -0.1359 -0.0116
27968W        W43099   8.943   5.582   0.352 -0.0395 -0.1741  0.0345
27969W        W43100  16.675  12.161   5.754  0.1678  0.0173 -0.3186
27970W        W43101  10.685   5.643   1.532 -0.0637 -0.2622 -0.0225
27971W        W43102  11.246   3.722   0.671  0.1932 -0.0381  0.0223
27972W        W43103   8.198  14.737  10.315  0.1974 -0.2663 -0.1227
27973W        W43104   6.952   4.463  13.030  0.1992  0.1350 -0.2477
27974W        W43105   2.282   6.579   4.325  0.1207 -0.4849 -0.2329
27975W        W43106  10.370   1.187   1.658 -0.1669  0.1011 -0.0722
27976W        W43107   6.571   3.077   5.824  0.1580  0.0215 -0.0392
27977W        W43108   3.315   9.579   3.137  0.0751  0.0408 -0.0437
27978W        W43109   5.313   2.343  12.124 -0.0942 -0.0424  0.2342
27979W        W43110  14.507   9.932   1.998 -0.1094 -0.0728  0.1454
27980W        W43111   7.551   0.335   4.969 -0.2688  0.0434  0.0389
27981W        W43112   8.773  12.026   0.546  0.1637  0.4094 -0.1544
27982W        W43113   3.362  14.070  14.341 -0.0303  0.0738 -0.0549
27983W        W43114   3.605  10.227  13.601 -0.3789 -0.0956  0.1263
27984W        W43115  15.391  12.091   3.429 -0.0743  0.0846  0.0508
27985W        W43116  17.361   4.933   1.250 -0.0066 -0.0116  0.1532
27986W        W43117   2.277   6.938  11.246  0.0188 -0.2211 -0.0034
27987W        W43118  13.711  10.276   1.754 -0.0158  0.0906 -0.0791
27988W        W43119  17.994   1.648   3.813 -0.0288 -0.1151 -0.1422
27989W        W43120   7.419  13.274  10.313 -0.0871  0.1000  0.2414
27990W        W43121   0.418   9.424  11.407  0.1676 -0.0839  0.0632
27991W        W43122   3.947   6.998   2.220  0.1101 -0.2018 -0.0904
27992W        W43123  12.518   6.417   2.639  0.0898  0.2944 -0.2677
27993W        W43124   1.879  10.717  15.156 -0.3218  0.1270  0.2559
27994W        W43125   9.792   3.818  11.265  0.0303  0.1581  0.1542
27995W        W43126  11.814  10.530  10.500  0.0563 -0.1755 -0.5110
27996W        W43127  10.331   0.220   2.124 -0.1189  0.3674 -0.0197
27997W        W43128   8.617  14.029   3.199  0.0921 -0.3403  0.2211
27998W        W43129  16.165   1.158  11.016  0.2058  0.1793 -0.0505
27999W        W43130  17.820   8.923   1.491  0.1424  0.4486 -0.2867
28000W        W43131  15.212  13.216   3.942 -0.2838  0.1009 -0.3224
28001W        W43132   6.665   6.105   0.097 -0.0976  0.1219 -0.3923
28002W        W43133  12.298   8.318  14.703 -0.0046  0.2982  0.1247
28003W        W43134  14.472   9.430  16.008 -0.0557 -0.1131 -0.0924
28004W        W43135  16.426  10.276   5.453 -0.3570 -0.0847 -0.0259
28005W        W43136   4.651   0.257   5.663 -0.0201  0.0333 -0.0477
28006W        W43137   4.920   3.111   2.153 -0.1641 -0.3002 -0.1895
28007W        W43138   1.577  10.964   3.849  0.1383  0.0794 -0.1166
28008W        W43139   7.551  12.632   1.458 -0.1979  0.1867  0.2620
28009W        W43140   1.870  17.316  14.017  0.0934 -0.0565  0.0330
28010W        W43141   7.685   3.606   5.017  0.2924 -0.5010 -0.1970
28011W        W43142   2.922  10.787  13.296 -0.1005 -0.1406 -0.2549
28012W        W43143   6.203   4.069  13.394  0.0983 -0.2869 -0.1557
28013W        W43144   6.636  10.535  10.996 -0.0554 -0.1233  0.2297
28014W        W43145  11.833  14.832   1.480  0.0903 -0.2731  0.2164
28015W        W43146  10.813   6.600   3.229  0.0810 -0.4365 -0.0501
28016W        W43147  14.848   3.631  15.514 -0.0727  0.2358 -0.1223
28017W        W43148  13.031   3.235   2.188  0.3308 -0.1279  0.0086
28018W        W43149  18.352   1.327  12.455 -0.2718 -0.1571 -0.0482
28019W        W43150  18.343  10.068   4.564  0.4956 -0.0637 -0.0029
28020W        W43151   7.706   8.726   2.659 -0.0657 -0.0447  0.0891
28021W        W43152   8.439   5.380   4.479 -0.0520 -0.2829 -0.0485
28022W        W43153   4.165  15.133  11.581  0.2637  0.4308 -0.0525
28023W        W43154   9.997   0.348   0.583 -0.3258  0.0833  0.3565
28024W        W43155   0.727   5.248  10.772  0.1498 -0.0460 -0.1400
28025W        W43156   4.378  10.135  16.086  0.0379  0.2146 -0.2370
28026W        W43157   5.654  14.152   1.175  0.3696  0.2749 -0.1657
28027W        W43158  15.210   4.567  11.890 -0.6041 -0.2384  0.0707
28028W        W43159   0.956  10.180  12.024  0.3293  0.3283  0.0088
28029W        W43160  14.283   4.889   0.251 -0.0579 -0.3052  0.2680
28030W        W43161  13.769   2.866  11.005 -0.0877  0.0096 -0.0302
28031W        W43162   7.174   0.995  13.586 -0.2673  0.1334 -0.0271
28032W        W43163  13.278   4.271  14.995 -0.1559  0.0577  0.0220
28033W        W43164  16.460   1.537  14.815 -0.0601 -0.0441  0.3266
28034W        W43165   2.431  18.355  11.654  0.3553  0.2609 -0.1018
28035W        W43166  17.454  15.483   0.316 -0.0563  0.0535 -0.0131
28036W        W43167   5.241  14.067   1.953  0.1104 -0.0872  0.0697
28037W        W43168   3.583   0.583   1.372 -0.0426 -0.0231 -0.1651
28038W        W43169  17.539  14.252   2.066 -0.1998 -0.0408  0.3052
28039W        W43170  18.311  12.327  12.293  0.0412 -0.1450  0.0948
28040W        W43171   8.671   6.775  14.284  0.3957 -0.0456 -0.4009
28041W        W43172  15.837   6.448  10.114 -0.2919  0.3111  0.0558
28042W        W43173  16.759   4.655  16.070 -0.2492  0.2346 -0.0062
28043W        W43174  13.492  11.204  10.081  0.0722 -0.3265  0.0791
28044W        W43175  12.889  15.406   5.222 -0.1391 -0.3144  0.1057
28045W        W43176   4.055   4.973   3.304  0.2541 -0.3859  0.0598
28046W        W43177  15.497   8.489  12.520  0.2712  0.0905  0.0770
28047W        W43178  18.021   9.413   0.724  0.2453  0.1878 -0.0046
28048W        W43179  15.491  15.292   4.909  0.0192 -0.1186  0.0842
28049W        W43180   8.691   3.180   1.919 -0.0022 -0.4687 -0.2506
28050W        W43181   3.632  12.984  12.984 -0.0786 -0.2157 -0.1484
28051W        W43182   1.777  17.252  14.787  0.0596  0.0190  0.0642
28052W        W43183   1.508  10.411  14.997 -0.0132  0.1622 -0.2964
28053W        W43184   6.769  18.094   5.107  0.0125  0.0334  0.0244
28054W        W43185  15.632   2.698   4.735  0.3001  0.3765 -0.2072
28055W        W43186  11.590   8.423   2.109 -0.1389  0.1196 -0.1520
28056W        W43187  13.830  14.264   5.349 -0.0249 -0.1852  0.2089
28057W        W43188   4.188  10.471  12.933 -0.0785 -0.2581 -0.0908
28058W        W43189  14.340   0.798   3.106 -0.3460 -0.2782 -0.0958
28059W        W43190  18.288   8.033   3.097 -0.1138  0.0204  0.0566
28060W        W43191   8.431  10.300  15.090 -0.1066  0.1305 -0.0823
28061W        W43192   6.687   3.063  14.913 -0.2473  0.1063 -0.1540
28062W        W43193  15.227   8.335   2.805  0.3303 -0.1829  0.0116
28063W        W43194   0.200   1.306  12.948 -0.1423  0.3016  0.4448
28064W        W43195   5.784   5.706  13.972 -0.1533  0.0877 -0.1526
28065W        W43196   9.007  14.139  11.222  0.1527  0.2192 -0.0207
28066W        W43197   5.739   4.085   0.985 -0.0801  0.0835 -0.0383
28067W        W43198   2.401  13.475   2.996 -0.1216  0.0160 -0.0165
28068W        W43199   0.131   2.899   0.155  0.2359 -0.2489 -0.0430
28069W        W43200   3.614   9.748   0.225 -0.1941 -0.0276 -0.1925
28070W        W43201  14.940  13.246   0.737 -0.0761 -0.0027 -0.0695
28071W        W43202   9.099  16.173   2.760 -0.3580  0.0931 -0.1100
28072W        W43203  18.225   8.048   4.737 -0.0320  0.3387 -0.1429
28073W        W43204   2.983   0.348   3.753 -0.0410  0.0250  0.0561
28074W        W43205  13.089  10.028   0.972 -0.1116  0.0694 -0.0380
28075W        W43206  11.124   6.443   2.494 -0.2972 -0.1853  0.0977
28076W        W43207   1.240  16.700  12.263  0.0092  0.2684  0.0084
28077W        W43208   1.277  16.923   2.457  0.1254  0.0963  0.1994
28078W        W43209  11.622  12.619   3.871  0.1460  0.0076 -0.5998
28079W        W43210   4.718  14.036   0.070  0.2824  0.0518 -0.0894
28080W        W43211  15.312  10.602   2.727  0.0416  0.0706  0.1336
28081W        W43212   3.068   9.771  12.548  0.0933  0.0127 -0.2232
28082W        W43213   5.032   9.574   0.081 -0.2465  0.0152  0.4181
28083W        W43214   6.031   1.744   2.886 -0.1437 -0.1992 -0.1322
28084W        W43215  14.563   4.922  13.449  0.0406 -0.0491 -0.1761
28085W        W43216  13.762   6.702   1.342  0.1280 -0.0207 -0.1329
28086W        W43217   0.549  13.221   4.580 -0.0811  0.1919 -0.2383
28087W        W43218  12.586   3.251  14.656  0.1533  0.0421  0.2924
28088W        W43219  12.351  13.265  15.546  0.1498  0.1020 -0.0912
28089W        W43220   0.423   1.153  15.541 -0.0626 -0.2775  0.1920
28090W        W43221  13.281  13.791   4.951  0.2849 -0.0547 -0.0824
28091W        W43222   5.405   5.264  13.750 -0.3004  0.0226 -0.1671
28092W        W43223  12.837   7.387   6.261  0.2732 -0.2949  0.1063
28093W        W43224  13.969   3.102  12.249  0.0950 -0.4083  0.2883
28094W        W43225  11.937  17.881  10.991 -0.0158  0.3037 -0.0659
28095W        W43226   4.313  13.739  10.864 -0.1044 -0.2650 -0.1430
28096W        W43227  15.598  13.807  15.168 -0.1048  0.1027  0.2237
28097W        W43228  14.292   3.125   5.189  0.1162 -0.1476  0.0687
28098W        W43229   1.111  13.389   0.520 -0.0817  0.2008  0.0584
28099W        W43230  11.132   8.561   2.810 -0.1241 -0.1593  0.2466
28100W        W43231  17.833  16.918   0.492 -0.0773 -0.2766  0.2430
28101W        W43232   6.905   5.608  15.747 -0.1190  0.2426 -0.0728
28102W        W43233   2.008  15.048   4.880  0.0551  0.1594  0.2935
28103W        W43234  15.463   7.620  11.891  0.1223  0.1431  0.2059
28104W        W43235   1.442   2.617  12.712  0.0675 -0.2473  0.1575
28105W        W43236   5.854   5.998   2.512 -0.0010  0.2389  0.2067
28106W        W43237   1.222  15.113   2.103 -0.0333  0.1159 -0.1042
28107W        W43238  14.408   5.198   5.209  0.1141  0.4388  0.1095
28108W        W43239  14.288   7.254   0.492 -0.0657  0.0156  0.1846
28109W        W43240  15.278   0.672   0.185 -0.0032  0.2026 -0.0671
28110W        W43241   3.262  16.971   4.112  0.2056 -0.2705  0.0110
28111W        W43242  13.718   8.062  12.783 -0.3323 -0.3539  0.2175
28112W        W43243   7.119   7.092   1.595  0.2248  0.2484 -0.0464
28113W        W43244   9.298  18.116   4.380 -0.3523  0.0736  0.0240
28114W        W43245   1.947   0.003  12.464 -0.2101  0.0122  0.0976
28115W        W43246  17.806   2.384   1.099 -0.1901 -0.1928 -0.3894
28116W        W43247   3.664   4.232   3.317 -0.0597  0.3925 -0.1679
28117W        W43248  11.824   1.233  10.101  0.2193  0.1658 -0.0237
28118W        W43249  15.839  14.379   0.761  0.2031 -0.1423 -0.0764
28119W        W43250   1.264   2.882  12.310 -0.3505  0.0429 -0.1161
28120W        W43251   0.840   2.940  11.186  0.0557 -0.1872 -0.0517
28121W        W43252  16.594   8.433  14.515  0.0511  0.1005  0.0892
28122W        W43253  17.203  13.462   5.116  0.0612 -0.0119 -0.2553
28123W        W43254  16.361   1.771  11.936 -0.2666  0.0406 -0.0275
28124W        W43255  11.274  11.784   4.794 -0.2296 -0.0388  0.0070
28125W        W43256  11.386   7.819  13.872  0.5575 -0.1604  0.0494
28126W        W43257   9.906   2.016  12.594  0.1559 -0.0349  0.5213
28127W        W43258   6.452   3.455  14.133 -0.0473  0.0422  0.0611
28128W        W43259   9.210   5.819  15.800  0.1597 -0.2592  0.1042
28129W        W43260   4.140  11.539   4.457  0.2030 -0.2665 -0.4071
28130W        W43261   3.032   6.769   1.356 -0.0771 -0.0957  0.3528
28131W        W43262   5.453  14.917  11.338  0.4136 -0.1123 -0.1098
28132W        W43263   0.089   1.330  13.776  0.0995  0.0002  0.0496
28133W        W43264   2.118   4.785   2.815  0.3167 -0.1380  0.1028
28134W        W43265   8.380   4.299  13.453 -0.0884 -0.1283 -0.1523
28135W        W43266   4.360   1.563  11.872  0.1011 -0.0354  0.2495
28136W        W43267  11.927  15.218   5.104  0.2860 -0.1991  0.0250
28137W        W43268  16.995  17.573  12.517 -0.1976 -0.2679 -0.1453
28138W        W43269   4.489  12.368  12.386 -0.0173 -0.4398 -0.2188
28139W        W43270  14.827  14.694   2.863 -0.1778  0.1644 -0.2831
28140W        W43271  17.204  14.328   3.274 -0.1773  0.2573  0.1711
28141W        W43272   1.932  16.401   0.913 -0.1551 -0.3029 -0.0348
28142W        W43273   3.201  11.469  14.694 -0.1421 -0.2235 -0.3497
28143W        W43274  14.675   8.471   3.538  0.0240  0.0480 -0.1012
28144W        W43275   6.699  13.674   4.975  0.1301 -0.1309  0.0200
28145W        W43276  16.530  10.490  15.859 -0.0384 -0.1269  0.0041
28146W        W43277  14.013  15.293   4.772  0.0186  0.1399  0.3779
28147W        W43278  17.481  12.692   1.943 -0.0701  0.1007  0.0281
28148W        W43279   3.847  17.637   0.096  0.3107  0.1357 -0.1142
28149W        W43280  13.424  18.350  11.876 -0.1353 -0.1847  0.1424
28150W        W43281   8.704   9.895  11.301 -0.0414 -0.0262  0.2863
28151W        W43282   5.954   5.118   5.271  0.0248  0.0103 -0.3392
28152W        W43283  16.010  17.079   2.098 -0.3670  0.1600  0.0022
28153W        W43284   0.698  13.555  15.179 -0.0964 -0.2315  0.2922
28154W        W43285  12.173   9.524   5.543  0.1501 -0.1578  0.0970
28155W        W43286  10.882   8.448   4.521  0.4702 -0.1584  0.0658
28156W        W43287  17.628  11.145   5.461 -0.0389 -0.3106  0.1561
28157W        W43288  11.721   1.564   5.310 -0.0426 -0.2120 -0.0168
28158W        W43289  11.838  16.044   0.079  0.0309 -0.2618 -0.0030
28159W        W43290   2.504  12.376  12.595  0.4379  0.1244  0.1367
28160W        W43291  15.913  12.064  11.212 -0.0516  0.1633 -0.1005
28161W        W43292  17.600  16.422  15.863 -0.3124 -0.0703  0.1426
28162W        W43293  17.493   3.579  13.701  0.4330 -0.1172 -0.2033
28163W        W43294  17.558   8.808  13.771  0.0456 -0.0906  0.2431
28164W        W43295  14.213  15.312   5.226 -0.0693  0.5888 -0.0631
28165W        W43296  15.643   2.701   1.846  0.0998  0.0264 -0.1785
28166W        W43297  14.206  17.246   1.668  0.0849  0.0728  0.2467
28167W        W43298  14.446   9.869   4.673 -0.3359 -0.1285 -0.3056
28168W        W43299   9.289  11.047   3.654 -0.2104 -0.0760 -0.1648
28169W        W43300   8.618  12.511  13.718 -0.0751  0.0250  0.0232
28170W        W43301  14.532  15.172  15.558 -0.0047  0.0093  0.0793
28171W        W43302   8.809  11.081   4.564 -0.0852 -0.0899 -0.0513
28172W        W43303  10.600  17.764   0.677  0.0259  0.3240 -0.0765
28173W        W43304   5.041  11.536   3.600  0.2121  0.0851 -0.2486
28174W        W43305   8.329  10.024  13.722 -0.1527  0.1133 -0.1573
28175W        W43306  11.912  13.324   3.050 -0.1665  0.0492 -0.3722
28176W        W43307  16.320   5.785  12.423 -0.1492 -0.1652  0.0024
28177W        W43308   6.563  10.346   0.185  0.0141  0.0823 -0.0696
28178W        W43309   8.874   0.316   4.824 -0.2390 -0.0113 -0.2640
28179W        W43310  14.116  15.635   3.471  0.2209 -0.4045  0.1788
28180W        W43311   3.301   1.962  14.797 -0.1093  0.2879  0.1723
28181W        W43312  15.338   7.920   0.909  0.1628 -0.0336  0.4110
28182W        W43313   5.463   1.069   5.561 -0.3664  0.0719 -0.0772
28183W        W43314   4.391   1.466   3.392 -0.0938 -0.0733 -0.0160
28184W        W43315   6.750  11.462  15.627 -0.0134 -0.1219 -0.1548
28185W        W43316  12.007   8.358   5.051 -0.1081  0.2503  0.3088
28186W        W43317  10.558  13.628  15.494  0.0796  0.0497  0.3695
28187W        W43318  16.301  13.897  13.460  0.0475 -0.0703  0.2168
28188W        W43319   6.303  11.209   1.164 -0.0447 -0.3056  0.4894
28189W        W43320  16.529  15.558   0.863 -0.0187  0.0213 -0.1748
28190W        W43321   1.942  12.386   0.487 -0.2390 -0.2989 -0.1009
28191W        W43322   1.216  16.545   0.673  0.0821 -0.2856  0.3640
28192W        W43323  17.924  16.019  14.217 -0.0858  0.1664 -0.0331
28193W        W43324   7.472  10.368  14.170  0.1517  0.2446  0.3071
28194W        W43325   9.260   7.987   0.133 -0.2477 -0.2491 -0.1530
28195W        W43326   1.121  10.104   0.733  0.1698  0.0408  0.0289
28196W        W43327  10.636  15.577  15.977  0.0384  0.0065 -0.0145
28197W        W43328  11.432   4.137  14.062 -0.1162 -0.3039  0.1685
28198W        W43329   1.769   5.870  10.915 -0.1197 -0.2946  0.1386
28199W        W43330   2.181   9.266  10.893  0.0891 -0.0536  0.1541
28200W        W43331   8.201  10.765   2.569  0.0778  0.0419 -0.2776
28201W        W43332  12.561   3.074   2.433  0.1149 -0.3037 -0.0435
28202W        W43333   2.767  12.509  11.661 -0.3379 -0.2237  0.0622
28203W        W43334  18.079   0.695   5.333  0.2358 -0.1999 -0.1011
28204W        W43335   5.775   6.179   5.687  0.0903  0.2238  0.1576
28205W        W43336  12.063   0.217  15.409 -0.0553  0.0086  0.0123
28206W        W43337   0.647  14.027  15.290  0.1379 -0.1877  0.4027
28207W        W43338  14.269  11.681   3.109  0.1893 -0.1460  0.0378
28208W        W43339   3.814  16.420   3.502  0.1170  0.0873  0.0157
28209W        W43340  16.756  17.704   0.568  0.1040 -0.1187 -0.2143
28210W        W43341  12.662   2.610   0.289  0.1127 -0.0095  0.0508
28211W        W43342   7.351   4.886  13.700  0.0843  0.1859 -0.2412
28212W        W43343  12.742   3.464   2.664 -0.2129  0.2509  0.0327
28213W        W43344   0.551   1.857   2.931  0.0276 -0.0528  0.0784
28214W        W43345   6.330   5.505  14.992 -0.0895 -0.2905 -0.1043
28215W        W43346   8.736  13.880   4.554 -0.1771 -0.1913  0.1336
28216W        W43347   7.597   0.649  13.394 -0.0311  0.1268  0.1242
28217W        W43348   8.411   7.226   0.239  0.0615  0.1320 -0.0301
28218W        W43349  11.781   5.294  15.310 -0.0026  0.3505 -0.0812
28219W        W43350  13.983   2.985   2.734  0.3099  0.2275 -0.1512
28220W        W43351  12.579   6.649   2.233 -0.3335 -0.0535 -0.0437
28221W        W43352  16.374  11.026  14.811  0.0197 -0.0018  0.3043
28222W        W43353  11.884  12.928  11.084  0.0224  0.1151  0.1279
28223W        W43354  15.259   6.009  13.452 -0.3001  0.1292  0.2878
28224W        W43355  10.595  15.090  13.522 -0.3055 -0.1753  0.1195
28225W        W43356   3.899  14.996  12.375 -0.2997  0.1408  0.1339
28226W        W43357   1.783  10.914   1.900 -0.1870  0.0945  0.1706
28227W        W43358  13.976  17.811   1.250  0.4811 -0.0364 -0.0140
28228W        W43359   4.748   1.422   5.144 -0.0925  0.0740  0.0608
28229W        W43360   6.944  12.123   1.084  0.0591  0.3094  0.0249
28230W        W43361  12.984   1.870   2.879  0.0951 -0.2191  0.0637
28231W        W43362   1.515   8.526   1.026  0.1211  0.0134 -0.0726
28232W        W43363  11.700   3.386  15.904 -0.1283  0.0886  0.2111
28233W        W43364  15.465   9.326  16.087 -0.2431  0.2591  0.1461
28234W        W43365  10.839   2.042  12.483  0.2921  0.0967  0.2681
28235W        W43366  16.678   5.893   3.495 -0.0802 -0.2463  0.1319
28236W        W43367   5.713   1.216   2.795  0.2219 -0.0272 -0.3646
28237W        W43368  11.397  14.652   2.458 -0.2428  0.2037 -0.1226
28238W        W43369  15.722   3.266  14.769  0.0465  0.2127 -0.0243
28239W        W43370  16.948   4.169  12.474 -0.0570 -0.0408  0.2387
28240W        W43371   5.578   8.498  15.162 -0.0088 -0.1285  0.1869
28241W        W43372   5.932  14.788  14.126  0.1274 -0.0543 -0.0163
28242W        W43373   2.166  11.826   2.854  0.2609 -0.1997  0.2762
28243W        W43374  11.946  10.798  13.173  0.1472  0.2297 -0.0835
28244W        W43375   1.351   1.861   1.368  0.1833 -0.0725  0.1844
28245W        W43376  12.956  16.415   2.636 -0.0331  0.1481  0.0133
28246W        W43377  17.668   1.319   4.286 -0.2591 -0.1036 -0.2848
28247W        W43378   3.501   9.122  11.795  0.1341  0.4463  0.0389
28248W        W43379   0.715   3.436  11.167 -0.0598  0.1299 -0.0983
28249W        W43380   0.999  14.977   5.178 -0.0691 -0.0739 -0.1758
28250W        W43381   5.823   9.340   5.061 -0.0800  0.0953 -0.0789
28251W        W43382   4.445  11.636  15.220 -0.1150  0.3650  0.1189
28252W        W43383   1.083   9.525  16.083 -0.0670  0.1156  0.0551
28253W        W43384  16.738  16.257  14.253  0.1197 -0.1007  0.3840
28254W        W43385   8.559  13.571  12.703  0.1659  0.3927  0.0000
28255W        W43386   4.788   6.601  14.838 -0.1024 -0.2570  0.0974
28256W        W43387  15.589   5.439  14.948  0.5442 -0.0819  0.0931
28257W        W43388   3.524  17.712   4.518 -0.1599  0.1461 -0.0175
28258W        W43389   8.902   9.933   0.209 -0.0283 -0.3324  0.2711
28259W        W43390  17.102   7.667  14.533 -0.0004  0.0145  0.1394
28260W        W43391  10.836   6.774  13.889  0.3011 -0.0445 -0.0056
28261W        W43392   0.849   5.224  14.767 -0.3981 -0.1438 -0.1406
28262W        W43393   1.229  12.558   4.932 -0.1017  0.0954  0.0883
28263W        W43394  14.787  13.117   2.422 -0.1163  0.0071 -0.2397
28264W        W43395   9.501   9.875  12.695 -0.0313 -0.1016 -0.0903
28265W        W43396  16.183  17.819  13.733 -0.3166  0.0427  0.1210
28266W        W43397  16.932  13.561  14.047 -0.0307  0.1012  0.1551
28267W        W43398   6.903   7.047  12.910  0.1689 -0.2366 -0.0727
28268W        W43399   3.601   6.638  10.789 -0.2737 -0.2942  0.0499
28269W        W43400  18.210   4.391  12.545 -0.2003 -0.1038  0.1125
28270W        W43401   4.598   4.963  12.593  0.2237  0.0885 -0.1500
28271W        W43402   5.318   8.311  12.079  0.1522  0.1423 -0.2074
28272W        W43403   1.559  15.889  14.725  0.1655  0.0164 -0.0819
28273W        W43404   6.749  16.157   4.306 -0.2308  0.2240  0.0258
28274W        W43405  12.865  11.523   3.984 -0.0930 -0.0022 -0.1819
28275W        W43406   6.615   4.492   5.266 -0.1790  0.1738 -0.1111
28276W        W43407   1.147   8.490   3.610  0.1262 -0.3525 -0.0916
28277W        W43408  11.026   8.799  15.877 -0.1182  0.0818  0.3787
28278W        W43409  11.561   5.386  14.467 -0.4022  0.0952 -0.0705
28279W        W43410   2.853   5.826   3.339 -0.2089  0.0607 -0.1747
28280W        W43411   3.581   6.325  11.601  0.2936 -0.0702 -0.0078
28281W        W43412   1.052   1.886   0.303  0.1329  0.0143  0.0608
28282W        W43413   4.015  17.272  13.606 -0.1451  0.1853  0.0954
28283W        W43414   0.661   5.956   0.892 -0.0162 -0.2130  0.1539
28284W        W43415  10.957  17.202  15.472  0.0673 -0.5339 -0.2049
28285W        W43416  13.967  14.019   0.662  0.1634 -0.0893  0.1755
28286W        W43417  15.415   4.095   2.253 -0.0305 -0.3028  0.1113
28287W        W43418   4.595  17.609   4.948  0.0484 -0.3277  0.0734
28288W        W43419  17.925   2.578  11.422  0.0365 -0.1579 -0.1883
28289W        W43420   9.393   8.483  15.476  0.1321  0.3354  0.0838
28290W        W43421   3.860   0.431   2.517 -0.0696  0.0706 -0.1878
28291W        W43422  11.610   5.207   1.329  0.3692  0.0190  0.0485
28292W        W43423  15.395   9.302  12.002  0.4466 -0.1776 -0.0617
28293W        W43424  16.152   5.742   5.568 -0.0776  0.0445  0.0144
28294W        W43425  11.507  10.888  12.860 -0.0896 -0.0113  0.0616
28295W        W43426   3.032   0.903   3.698  0.0398  0.1842  0.0995
28296W        W43427  12.619   7.698  13.920 -0.1761 -0.1032  0.1552
28297W        W43428   2.600  11.773  13.300  0.1861 -0.4564 -0.0693
28298W        W43429   1.621  16.680   2.088  0.0403 -0.1472  0.4503
28299W        W43430  11.907  17.853   3.768 -0.2399  0.3147 -0.3114
28300W        W43431  10.210  14.751   0.120  0.0741 -0.5295 -0.2867
28301W        W43432   6.387   0.440   4.560  0.3730 -0.2538  0.0415
28302W        W43433  16.044   4.705   1.879  0.0787 -0.1772  0.1006
28303W        W43434   5.246  15.219   0.760  0.0187 -0.1737 -0.1143
28304W        W43435   0.175  12.617  12.860  0.0059 -0.0823 -0.1343
28305W        W43436   9.290  13.385  11.190 -0.1631  0.3491  0.0174
28306W        W43437  12.301   0.153  14.947  0.0177 -0.2171  0.2530
28307W        W43438  13.267  17.137  14.246 -0.0319  0.0376  0.1701
28308W        W43439   0.885  12.788   1.200  0.0635  0.3222 -0.0052
28309W        W43440  12.923   4.462   3.220  0.0579  0.1599 -0.0108
28310W        W43441   3.667  16.193   0.331  0.0689 -0.0456  0.1546
28311W        W43442   8.969  13.632  12.371 -0.1707  0.1870  0.1058
28312W        W43443  10.167   2.893  11.662  0.0368 -0.2401  0.0205
28313W        W43444   2.328  10.162  11.429 -0.0751 -0.0376  0.3613
28314W        W43445   7.218  11.707   9.915  0.2517  0.1333  0.1192
28315W        W43446   4.594  17.982  13.934  0.5258 -0.0215  0.2707
28316W        W43447  14.538  10.922  13.758 -0.3325 -0.1238 -0.1052
28317W        W43448  16.195   8.349   3.145  0.2122 -0.2417 -0.0095
28318W        W43449  14.684   7.044  11.712  0.2397 -0.3169 -0.3066
28319W        W43450  14.995  15.032   5.690 -0.0366  0.3620 -0.2123
28320W        W43451   6.544  17.617  13.782  0.0038  0.2177 -0.0495
28321W        W43452   4.157  10.901   2.816  0.2722 -0.2236  0.5677
28322W        W43453  11.023   5.872  15.721 -0.2392 -0.3515  0.0081
28323W        W43454   2.070   3.645  13.632  0.2585  0.3705 -0.2244
28324W        W43455  12.906  12.037   2.116  0.0846  0.2513  0.1230
28325W        W43456  16.073  11.697   2.588 -0.2039 -0.1403 -0.0858
28326W        W43457   9.439  11.676  14.591  0.2168 -0.1833 -0.0487
28327W        W43458   6.832  15.619  15.317 -0.1000  0.0528  0.0299
28328W        W43459   2.943   5.952  10.580  0.0086 -0.0885 -0.2859
28329W        W43460  12.323   4.745   1.445 -0.3116  0.1001 -0.1969
28330W        W43461   1.957   2.338   1.257 -0.3094  0.0625  0.1377
28331W        W43462  10.098  16.887  14.924  0.0200 -0.1552  0.2083
28332W        W43463   6.584  15.070  15.364  0.1532  0.1021 -0.0247
28333W        W43464   2.515  13.332  13.386  0.0830 -0.2314 -0.1018
28334W        W43465   3.837  13.682  12.341  0.1397  0.0187  0.0549
28335W        W43466   0.641  14.067  16.123  0.1469 -0.0369 -0.1817
28336W        W43467  10.457  16.742  15.407  0.2854 -0.4535  0.0514
28337W        W43468   5.762  12.591  15.093 -0.1765 -0.1127 -0.2861
28338W        W43469  13.244  16.553   1.024 -0.1975 -0.1186  0.1375
28339W        W43470   8.706  17.884   2.478 -0.1277 -0.2423 -0.0299
28340W        W43471  15.389   3.432   0.672  0.0487 -0.1101  0.0160
28341W        W43472  10.563  12.203  13.776 -0.0451 -0.1364 -0.2536
28342W        W43473  10.022   3.765   4.939 -0.2193 -0.0562  0.0715
28343W        W43474  16.752  12.258   2.551  0.2571  0.0667  0.1160
28344W        W43475   8.328   8.522  10.391 -0.0943  0.1752 -0.2854
28345W        W43476   0.474   8.791  13.810 -0.1271 -0.2639 -0.1310
28346W        W43477   2.179  14.832   1.095 -0.3451  0.2674  0.2373
28347W        W43478  17.204   8.421   0.186  0.4311  0.0831  0.2777
28348W        W43479  17.696   2.631  13.809  0.1832  0.2149  0.2306
28349W        W43480   0.066   5.520  14.956 -0.3323 -0.2247 -0.1733
28350W        W43481  11.634  16.456   3.991 -0.0609  0.1119  0.1810
28351W        W43482  15.957   2.213  15.733 -0.1015 -0.0840  0.0336
28352W        W43483  18.233  15.573   2.679 -0.0813  0.1572 -0.1392
28353W        W43484   7.530   0.968  15.228 -0.1784 -0.1372 -0.1525
28354W        W43485  12.044   1.967   5.293  0.1703  0.0365  0.1073
28355W        W43486  10.961  17.385  13.600 -0.1255  0.3932  0.0558
28356W        W43487  17.447  14.024   0.309  0.3929 -0.3599  0.1980
28357W        W43488   3.768   1.583   3.823  0.0943  0.1470  0.2596
28358W        W43489   5.557  15.270  12.968 -0.0682 -0.0228  0.5463
28359W        W43490  17.933  12.965   4.890  0.0630 -0.1691  0.0289
28360W        W43491   5.314   7.564  13.631 -0.2585 -0.1313 -0.1768
28361W        W43492   6.293   2.309  12.536 -0.1619 -0.0632  0.0568
28362W        W43493  10.423   3.568  14.558 -0.3793 -0.2545 -0.0542
28363W        W43494   9.545   4.014  13.969 -0.1737 -0.1017 -0.2778
28364W        W43495  16.187  11.692   3.501 -0.0246 -0.1927  0.0700
28365W        W43496  17.671   7.801  11.718  0.1983  0.1156 -0.3028
28366W        W43497   4.769   2.384   1.823  0.1565  0.3557 -0.3789
28367W        W43498  14.851  16.054   0.744 -0.1401 -0.0232  0.2323
28368W        W43499  17.926  10.308   2.142  0.2620 -0.0684  0.0020
28369W        W43500  13.910  11.871   1.914  0.1226  0.0236  0.0501
28370W        W43501  16.288  12.190   3.879  0.1882 -0.2902  0.1515
28371W        W43502   7.533   8.253  15.826  0.0120 -0.0452  0.2901
28372W        W43503  16.356  16.227   3.321  0.2968 -0.3819  0.0152
28373W        W43504   1.687   3.202  13.653  0.0621  0.2194 -0.0648
28374W        W43505   2.674   3.566   0.733  0.0265  0.3278  0.1777
28375W        W43506  12.037   9.460   2.381 -0.1904 -0.0144  0.5244
28376W        W43507   3.167  11.882   2.753 -0.1727  0.1041  0.3601
28377W        W43508   9.256  11.471  13.155  0.2209 -0.0520  0.0843
28378W        W43509  17.352   2.187  12.924  0.0054 -0.1267  0.0577
28379W        W43510   9.937  11.674  14.218  0.2289 -0.0371  0.0160
28380W        W43511  12.100  16.542   4.724 -0.0694  0.3923  0.0296
28381W        W43512  12.149  11.269   3.634  0.0298  0.0354  0.0437
28382W        W43513   8.630  13.000   4.146  0.0730 -0.2923  0.0247
28383W        W43514   7.552   1.346  14.305  0.3145  0.1637  0.2269
28384W        W43515  12.808   8.876   3.521  0.0653 -0.0743  0.0533
28385W        W43516   7.901   7.997   4.030 -0.1342  0.1303 -0.0027
28386W        W43517  13.995  11.866   0.148 -0.0794 -0.0448 -0.1038
28387W        W43518   6.935   0.501   4.646  0.2011  0.2839  0.0442
28388W        W43519   8.867   6.280   3.729 -0.2712 -0.3856 -0.1405
28389W        W43520   7.048   4.978  11.650  0.0422 -0.2331 -0.1525
28390W        W43521   8.997   7.988   1.722 -0.1285 -0.2421 -0.0401
28391W        W43522   7.857   0.587   0.072  0.1309 -0.1246  0.0671
28392W        W43523  16.866  17.621   3.886 -0.2834  0.2953 -0.1231
28393W        W43524   2.239  17.979   9.520 -0.4265  0.1347  0.2959
28394W        W43525   8.582   9.610  14.093  0.2871 -0.1085 -0.2601
28395W        W43526   5.163   0.120   5.483 -0.0218 -0.0403 -0.1023
28396W        W43527   5.324   0.549  14.446  0.0787 -0.0287  0.0732
28397W        W43528  11.669   9.724  14.839  0.4005 -0.0074 -0.2930
28398W        W43529   5.116  14.216  11.669  0.0096  0.0253  0.2504
28399W        W43530   4.051  17.774   1.100 -0.2939  0.2576  0.2294
28400W        W43531   7.395  16.593   5.357 -0.1927 -0.2872 -0.1454
28401W        W43532  10.959  11.806   9.889  0.1130 -0.1074 -0.2025
28402W        W43533   8.989   3.616   2.185  0.0128  0.1897  0.1853
28403W        W43534  16.868  15.157  15.011 -0.2134  0.2797  0.3088
28404W        W43535  13.597   0.720   4.133  0.0186 -0.2507  0.1717
28405W        W43536   0.291   6.939  14.428 -0.2431  0.3847  0.1350
28406W        W43537  12.316  16.112   3.301  0.4526 -0.2683  0.1503
28407W        W43538   4.402   6.323   0.698  0.2993  0.1604 -0.3660
28408W        W43539  16.990  13.189   3.965 -0.0039 -0.2679  0.3370
28409W        W43540   3.078  11.250   1.571  0.0384  0.1129  0.1418
28410W        W43541  12.759  15.867  14.519  0.2156 -0.0815 -0.4211
28411W        W43542   2.207   4.162  12.878  0.1136 -0.0060  0.0555
28412W        W43543   0.388   4.043   4.801 -0.0686  0.1536  0.0522
28413W        W43544  11.085  16.220   2.884 -0.0243 -0.2033 -0.0754
28414W        W43545  11.353  13.848  12.278 -0.0224 -0.0568  0.0299
28415W        W43546  14.806  16.565  15.577 -0.0146 -0.2910  0.1465
28416W        W43547  16.621  14.507  12.803 -0.1722 -0.2265 -0.1415
28417W        W43548  11.493   9.821   6.343 -0.0915 -0.1605  0.2452
28418W        W43549   9.553  13.573  15.314  0.0914  0.0200 -0.0396
28419W        W43550   0.910   9.541  13.289 -0.1994 -0.0385 -0.1990
28420W        W43551  14.755  17.399   3.602  0.0653 -0.2235  0.0800
28421W        W43552   9.601   6.871  15.962 -0.2545 -0.1789 -0.0985
28422W        W43553  11.258   7.601  15.670 -0.0267 -0.2392  0.0905
28423W        W43554  16.496  14.765  12.362 -0.0583  0.1619 -0.2015
28424W        W43555   9.417   0.040  15.898 -0.0938  0.0044  0.0856
28425W        W43556   4.221  15.958  15.031 -0.2152  0.1566  0.1419
28426W        W43557   4.370   9.076   0.777  0.0354 -0.0330 -0.1373
28427W        W43558  10.344  15.853  14.001 -0.1754 -0.1407 -0.0232
28428W        W43559  13.489  15.052   4.010 -0.2550 -0.2358  0.1127
28429W        W43560  15.034   3.433   2.428  0.0353  0.2451  0.0930
28430W        W43561   7.719  10.157  15.558 -0.0091  0.2570  0.2436
28431W        W43562  11.913   6.451   1.860 -0.1580  0.1786 -0.0933
28432W        W43563  14.859   6.899   0.327  0.1416  0.0636 -0.2096
28433W        W43564   8.684  16.531   0.742  0.1069  0.1597 -0.1658
28434W        W43565   4.418  13.549   4.519  0.0969 -0.0821  0.1204
28435W        W43566  16.174   4.546   5.339  0.1154 -0.0644 -0.2799
28436W        W43567  14.754   0.253   3.163 -0.3546  0.0148 -0.1292
28437W        W43568  11.993  14.318  10.483 -0.0529 -0.0784 -0.2201
28438W        W43569  16.092  14.450   2.502 -0.0491 -0.0098  0.3520
28439W        W43570   6.272  16.067   4.279  0.1608  0.3995 -0.0430
28440W        W43571   3.845  11.106   4.618  0.2433 -0.0437  0.0935
28441W        W43572  16.206   2.956   4.921  0.2310  0.0018  0.0097
28442W        W43573   4.225  10.454  14.030  0.1727  0.2804  0.3622
28443W        W43574   6.627   9.253   3.146 -0.0055  0.2182 -0.2736
28444W        W43575   6.493  18.107  13.858  0.2744 -0.2715 -0.2090
28445W        W43576   7.878  16.649   5.205 -0.2536 -0.0687  0.0318
28446W        W43577   0.858  16.087   6.100  0.2151  0.0799 -0.0046
28447W        W43578   9.583   9.660   5.459  0.1815  0.1475  0.1167
28448W        W43579   3.720  18.129  12.666 -0.0604  0.0239  0.0881
28449W        W43580   3.000   7.338  11.345  0.0580 -0.0811  0.2313
28450W        W43581   3.541   6.942   1.347  0.1692  0.0696  0.2081
28451W        W43582  12.483  14.170  15.896  0.0523  0.0446 -0.0936
28452W        W43583   2.988  10.589  15.063 -0.1765  0.0081 -0.1477
28453W        W43584   1.030   6.698   4.645  0.0058 -0.2089  0.0182
28454W        W43585  12.929  16.265   4.028  0.3956  0.0277 -0.0173
28455W        W43586   6.026  12.309  15.463  0.1416 -0.2365  0.3553
28456W        W43587   2.946  13.096  15.983 -0.2313  0.1941  0.1582
28457W        W43588   7.772  13.770  15.364 -0.0362  0.0508 -0.0308
28458W        W43589   5.229  13.686  14.224 -0.0929  0.2112  0.0186
28459W        W43590   9.942   2.545  13.507  0.0227  0.3888 -0.2100
28460W        W43591   6.173   3.038   1.000  0.1743 -0.0267 -0.0054
28461W        W43592  16.128   0.921  10.426  0.1447 -0.2308  0.0329
28462W        W43593   8.676   0.544  14.459 -0.0168 -0.2521 -0.0044
28463W        W43594   1.468  13.483   3.027  0.2236 -0.0710 -0.3457
28464W        W43595  16.425   4.522  11.711  0.1133 -0.1902  0.4658
28465W        W43596   7.382  17.383  13.754 -0.0090  0.2499  0.1995
28466W        W43597   8.183   9.542  10.472  0.0132 -0.0316  0.1320
28467W        W43598  15.989   7.965   3.482  0.0328 -0.0800 -0.2610
28468W        W43599   8.681   2.164  10.195  0.0074 -0.1360  0.1059
28469W        W43600   1.078  14.745   3.145  0.4224 -0.1271 -0.2709
28470W        W43601   2.943   7.908  10.520 -0.2213 -0.2254 -0.0067
28471W        W43602   0.949   0.351   5.480  0.1918 -0.2144  0.0434
28472W        W43603  14.658   5.587   1.280  0.2451 -0.1173 -0.2494
28473W        W43604  12.197  15.122  14.937 -0.1015  0.1087 -0.2877
28474W        W43605  16.130  11.818  13.941  0.3751 -0.0249 -0.1356
28475W        W43606  11.762   8.887   3.671 -0.2198 -0.2578  0.0583
28476W        W43607   6.720  12.691   4.428 -0.0967 -0.3885  0.0656
28477W        W43608  15.842   0.741  13.993  0.0621  0.0334 -0.1721
28478W        W43609   7.501   3.870  10.838 -0.1869 -0.1015 -0.0606
28479W        W43610   3.347   5.297   5.507  0.0915 -0.2312  0.1546
28480W        W43611   3.085  18.365  15.348 -0.0584 -0.1644  0.0654
28481W        W43612  12.215   0.411   4.135 -0.2906 -0.1843  0.1086
28482W        W43613   3.209   1.527   3.656  0.0366  0.0651 -0.0388
28483W        W43614   1.928  16.888   0.677  0.0829  0.1214  0.0188
28484W        W43615   9.495   8.008  15.348  0.1455  0.0927 -0.1182
28485W        W43616   8.491  10.163   6.075  0.0412  0.1164  0.0551
28486W        W43617   6.951   6.226   5.794  0.5992 -0.2597  0.1679
28487W        W43618   3.117  16.371  11.488 -0.0411 -0.0175 -0.0240
28488W        W43619   9.661  11.537   2.410 -0.2816  0.0157 -0.0938
28489W        W43620   4.637   6.185   3.807 -0.3391 -0.2021  0.5310
28490W        W43621   0.051   3.064   2.823  0.3765 -0.2085 -0.0443
28491W        W43622  16.886   6.178  11.692 -0.1479 -0.0395 -0.0247
28492W        W43623   1.580  12.694   5.346 -0.3950  0.0394 -0.0306
28493W        W43624  17.695  13.848   3.497 -0.1894  0.0379  0.3038
28494W        W43625   6.083  13.760   2.943 -0.1865 -0.2270  0.0165
28495W        W43626  17.833  14.139  10.954  0.0317 -0.1863  0.3827
28496W        W43627  11.119  17.227  13.106  0.1452  0.1530 -0.1020
28497W        W43628  16.279  17.384   4.164 -0.2406  0.1348 -0.1474
28498W        W43629  17.930  17.402   2.735  0.2028  0.1592  0.1625
28499W        W43630   0.707   7.345  12.234 -0.0759 -0.1123 -0.0165
28500W        W43631   0.908  14.331  14.778 -0.0957 -0.0610  0.0480
28501W        W43632  14.260   0.891   1.093  0.0236 -0.1832 -0.0977
28502W        W43633   4.482   9.513   2.117 -0.5026 -0.2219  0.1007
28503W        W43634  15.712   4.340   6.031  0.0859  0.3019  0.1001
28504W        W43635  10.787   2.124  15.302 -0.4490  0.2356  0.1001
28505W        W43636  15.233   8.947  12.813 -0.1339  0.0719  0.0574
28506W        W43637   7.830  11.464   2.419  0.0523  0.0280 -0.2568
28507W        W43638  16.995   3.007  15.394 -0.3258  0.0784  0.0124
28508W        W43639   4.924   7.969   0.826 -0.2448 -0.1202  0.1741
28509W        W43640   5.281   7.541   4.216 -0.1709  0.0137  0.1563
28510W        W43641  16.991   5.097   1.995  0.0685  0.1901 -0.0405
28511W        W43642   2.865  12.336   2.920  0.5698 -0.0983 -0.1082
28512W        W43643  15.115  13.578  11.122 -0.1048  0.1177 -0.0981
28513W        W43644   0.330   4.085  12.769 -0.1970  0.2381 -0.0670
28514W        W43645  12.406  13.582   3.910  0.0804 -0.1700  0.0040
28515W        W43646   3.106   6.403   0.231  0.4005  0.1480 -0.2313
28516W        W43647  12.966   4.781   2.184 -0.1845  0.0120 -0.1461
28517W        W43648   7.451  12.596  11.126 -0.0386 -0.1240 -0.0339
28518W        W43649   7.713  12.709   0.009 -0.0738  0.0912 -0.0571
28519W        W43650  10.929   2.157   2.642 -0.1448 -0.4392 -0.0266
28520W        W43651  13.241   4.104  12.339 -0.1538  0.2565 -0.1418
28521W        W43652  15.668   9.174   2.072 -0.1049 -0.0942  0.0499
28522W        W43653  16.930   8.635  15.496  0.0674  0.0868  0.1396
28523W        W43654   3.722   8.097   1.248  0.3124  0.0633 -0.0315
28524W        W43655  15.498  12.726   1.865  0.1964  0.1490 -0.1747
28525W        W43656   9.559   1.731   3.628 -0.3275  0.2206 -0.1576
28526W        W43657   2.515  15.086   3.222 -0.1783  0.0319 -0.1805
28527W        W43658   4.234  14.615  12.541  0.0064 -0.2309  0.1637
28528W        W43659   1.655   8.041   5.053 -0.1315  0.1285 -0.0800
28529W        W43660   2.767  12.718   9.708 -0.3182  0.4925 -0.4209
28530W        W43661   0.396   6.519   0.083 -0.0462  0.2369  0.0044
28531W        W43662   2.806   7.302  14.755  0.0677 -0.0396  0.0591
28532W        W43663   0.958   6.495  12.128  0.2242  0.0178  0.0854
28533W        W43664   7.712  16.093   4.018 -0.1586 -0.3891  0.1041
28534W        W43665  17.555   2.702   2.201 -0.0411 -0.0237 -0.3527
28535W        W43666  10.303   2.198  11.197 -0.6730 -0.2433 -0.3295
28536W        W43667  12.658   5.614   4.701 -0.0022  0.2606  0.1666
28537W        W43668  17.180   2.244   2.924 -0.1560 -0.0651  0.0144
28538W        W43669   4.335  17.999   3.293 -0.0387 -0.2158 -0.0045
28539W        W43670   0.232   8.333  13.783  0.1390 -0.1642 -0.0947
28540W        W43671   3.882  11.665  15.220 -0.4052  0.5032  0.1435
28541W        W43672   6.987   7.595   5.289 -0.4377  0.2107 -0.0162
28542W        W43673   2.520  14.579  13.468 -0.3250  0.1177  0.2199
28543W        W43674  11.589  18.025   2.307 -0.0990  0.1558 -0.0379
28544W        W43675  18.339   0.249   3.344 -0.0252 -0.0169  0.1486
28545W        W43676  15.435   5.506  16.045 -0.0038 -0.0683 -0.2572
28546W        W43677  18.276   0.301  15.175 -0.0818 -0.1637 -0.2835
28547W        W43678   9.365  15.467  12.485  0.0321  0.0326 -0.0349
28548W        W43679   0.953   5.777   4.672 -0.2477  0.3060 -0.1715
28549W        W43680  13.901  17.486  16.024 -0.0833 -0.3460  0.0765
28550W        W43681   5.091   2.171  10.627 -0.1305 -0.0294  0.1889
28551W        W43682   6.099   5.320   0.143 -0.2814 -0.4182 -0.0735
28552W        W43683   3.490   5.096  12.044 -0.0447 -0.0715 -0.0962
28553W        W43684  10.888   7.850  10.960 -0.0647 -0.1857  0.1484
28554W        W43685   3.769  11.488   0.930 -0.2160  0.2193  0.1041
28555W        W43686   6.934   3.527  13.706  0.2566  0.1659  0.1146
28556W        W43687   5.934  16.440  13.666  0.0522  0.3152 -0.0238
28557W        W43688   4.498   1.030  11.935  0.0154 -0.4277 -0.1339
28558W        W43689  10.874  15.361  14.804 -0.2032 -0.0614  0.0459
28559W        W43690   3.674  15.781   1.083 -0.0190 -0.2301 -0.1235
28560W        W43691   9.238  15.316  14.138 -0.1566  0.4224  0.1962
28561W        W43692   4.058  14.729   0.999 -0.0638  0.0878  0.1173
28562W        W43693   1.547   6.109  14.174  0.1605 -0.0438 -0.1490
28563W        W43694   8.032   3.885  15.564 -0.1975 -0.0354 -0.1681
28564W        W43695  14.143   3.914   0.424  0.1515  0.1886  0.3452
28565W        W43696  18.121  17.660   1.026 -0.0177 -0.1472 -0.1285
28566W        W43697   5.286  16.046   5.665 -0.0132  0.1213 -0.1137
28567W        W43698   0.815   7.103   1.343 -0.1363 -0.0052 -0.2214
28568W        W43699   7.894  16.170  14.352  0.0464  0.1019  0.1493
28569W        W43700  11.729  11.759   3.500 -0.1437 -0.0416  0.1004
28570W        W43701  17.918  12.529   1.706 -0.3720 -0.0441 -0.1673
28571W        W43702  16.279  10.658   1.921 -0.1951  0.1697  0.4064
28572W        W43703  18.203   5.271  12.056  0.2364  0.3436  0.3799
28573W        W43704  11.845  16.427   5.654  0.0820  0.0724 -0.0875
28574W        W43705   0.386  11.959   0.869 -0.1982  0.2394 -0.0502
28575W        W43706   7.105  16.156  11.183 -0.4771 -0.1720  0.0391
28576W        W43707   7.986  10.739   0.879 -0.1047 -0.0445  0.0129
28577W        W43708   6.291  15.849  11.063  0.2940 -0.2839  0.0323
28578W        W43709   4.501   5.658  14.563  0.2950  0.0631  0.0812
28579W        W43710   0.797   6.380   4.976  0.0092  0.1494 -0.2979
28580W        W43711  15.987  11.711   1.724  0.2385  0.1380 -0.0716
28581W        W43712  15.388  16.973  13.433 -0.0671  0.2953 -0.0600
28582W        W43713  17.837   4.220   1.548  0.3561 -0.1552  0.1957
28583W        W43714  11.994  18.056   5.043  0.2690  0.1995  0.3331
28584W        W43715   8.216   6.149  13.052 -0.3473 -0.0541 -0.3282
28585W        W43716   8.276  13.015   1.355 -0.3019  0.0377  0.2988
28586W        W43717  17.725  13.177   0.612 -0.0096  0.1475 -0.2833
28587W        W43718   4.347  10.839   4.719  0.1012  0.0760 -0.2927
28588W        W43719   5.471   0.148  12.382 -0.1854  0.3280 -0.1607
28589W        W43720   8.274  12.728   2.621  0.0756 -0.1449 -0.2253
28590W        W43721   6.595  12.144   4.410 -0.3564  0.1561 -0.3357
28591W        W43722   4.057   0.568   5.438  0.2827  0.0126 -0.2223
28592W        W43723   1.861   9.158   3.030  0.2147  0.1659 -0.1351
28593W        W43724  12.906   9.735   2.592 -0.0947 -0.0660 -0.2723
28594W        W43725  12.784   4.983  12.248  0.0869  0.0273 -0.2922
28595W        W43726  17.617   6.314  13.840 -0.0685 -0.1549 -0.0441
28596W        W43727  14.833  15.812  13.472  0.0462 -0.1519 -0.2179
28597W        W43728  13.235  12.254   2.506 -0.1478  0.0444  0.1551
28598W        W43729  10.376   4.869   1.017  0.2187  0.1501  0.0989
28599W        W43730   5.181  12.817  10.751  0.0727  0.3931 -0.1099
28600W        W43731  11.201  14.870   3.241  0.3763 -0.1679  0.1262
28601W        W43732   9.016  16.599   3.586 -0.0274 -0.2440 -0.1590
28602W        W43733   8.546   5.433  11.237 -0.1644  0.1317 -0.2723
28603W        W43734  12.438   2.834   4.702 -0.1066  0.1743  0.1916
28604W        W43735   6.133   5.781  12.575 -0.2719 -0.1515 -0.1185
28605W        W43736  14.981   6.453   1.261 -0.0757  0.0223  0.2987
28606W        W43737  12.219  16.580   5.953  0.1684 -0.2799 -0.3121
28607W        W43738   9.124  11.216  14.515  0.2116 -0.6125 -0.0229
28608W        W43739   7.316  13.157   1.078 -0.2995 -0.1270  0.1304
28609W        W43740  15.784   0.512  12.222  0.0236  0.1625  0.0964
28610W        W43741   0.567   2.057   1.285 -0.1464 -0.1687 -0.0322
28611W        W43742   2.162  17.410  16.014 -0.0424 -0.1325  0.0151
28612W        W43743  10.624  14.106  14.722 -0.0968  0.1348  0.1897
28613W        W43744  10.464   3.002  12.070  0.2068  0.0826 -0.1163
28614W        W43745   0.402  13.966  14.831  0.0010  0.0912  0.2058
28615W        W43746  16.644   4.927  11.411 -0.1242 -0.2356  0.0582
28616W        W43747  11.090  11.028  15.905  0.1824  0.3241 -0.1740
28617W        W43748  12.052   8.087   3.728  0.0340 -0.5343  0.1521
28618W        W43749  10.324  13.527  11.242 -0.0041  0.2236 -0.2689
28619W        W43750  16.713  14.227   4.813  0.0467 -0.0261  0.1460
28620W        W43751   5.219   5.929   1.391 -0.2635  0.2288  0.2339
28621W        W43752   8.254   7.406   3.293 -0.0090 -0.1698  0.0750
28622W        W43753   7.162   4.197   4.665 -0.1575 -0.1462 -0.1796
28623W        W43754   4.984  13.038   1.966  0.1656  0.0765 -0.2864
28624W        W43755   1.404   7.240  15.374  0.0483 -0.3150 -0.0368
28625W        W43756  16.769   9.950  15.602 -0.3111  0.0433 -0.1300
28626W        W43757  11.075   8.122   4.888  0.1192  0.1967  0.1235
28627W        W43758   9.768   5.206  14.696 -0.0582  0.0703 -0.4911
28628W        W43759   4.909  13.536   5.226  0.0105  0.2195 -0.3377
28629W        W43760   0.657  15.879  12.047 -0.0781  0.2729  0.2177
28630W        W43761   8.089  13.233  10.827 -0.0746 -0.6510 -0.0025
28631W        W43762   1.487  15.806   2.209 -0.0650  0.1768  0.2427
28632W        W43763   3.563  17.182  13.292 -0.1244  0.2474 -0.1673
28633W        W43764  13.212  17.347   4.802  0.2708 -0.2271  0.0233
28634W        W43765   4.326   7.501   0.960  0.0182 -0.0323  0.0041
28635W        W43766  10.850   6.864   5.154  0.1220 -0.0825  0.0056
28636W        W43767   4.571  10.384  15.371  0.1097 -0.1857 -0.0420
28637W        W43768  14.605  14.754  12.161 -0.0155  0.1678  0.2449
28638W        W43769   1.049  16.862  13.967  0.2995  0.0907  0.0557
28639W        W43770   9.546  13.113   3.904  0.3411  0.5333  0.0273
28640W        W43771  16.222   3.498  11.076 -0.0177  0.0918 -0.3020
28641W        W43772   1.236   4.696   4.720 -0.0344  0.0894  0.0063
28642W        W43773  10.866   9.258  13.955  0.0764 -0.0353  0.5077
28643W        W43774   0.639  16.584   3.180  0.5158  0.1753 -0.1738
28644W        W43775  11.978  12.243   2.157  0.2615 -0.2756  0.1916
28645W        W43776  18.038   7.136   4.914  0.2158 -0.0070  0.1289
28646W        W43777  16.119   3.842  13.048 -0.2254 -0.5027  0.2180
28647W        W43778  12.476   5.541  13.215  0.1661 -0.0256  0.3963
28648W        W43779   0.843   7.895   4.482 -0.1949 -0.4360 -0.0571
28649W        W43780  10.322  15.643   5.072  0.0742  0.2459  0.0526
28650W        W43781  14.443   5.544   3.229 -0.1270 -0.2678 -0.1652
28651W        W43782  16.621  14.644  10.850  0.0223 -0.2036 -0.3194
28652W        W43783   0.334   2.110  15.194 -0.1289  0.1291 -0.0887
28653W        W43784  14.666  14.498   1.997  0.1259  0.0558 -0.2726
28654W        W43785   0.249  15.440  11.461  0.0461  0.1373  0.0836
28655W        W43786   2.121   6.399   1.257 -0.2579 -0.0273  0.1483
28656W        W43787   5.475  14.675   3.419  0.2774  0.2778 -0.3644
28657W        W43788   7.769  11.151   0.383 -0.1892  0.2561  0.0524
28658W        W43789   1.294  13.099  11.986 -0.0084 -0.0067 -0.2542
28659W        W43790  17.382  17.949  10.047 -0.0358 -0.0226 -0.0967
28660W        W43791  11.090   6.663  10.503 -0.0156  0.0473 -0.0590
28661W        W43792   4.473  12.709  14.560 -0.1377 -0.2318  0.1219
28662W        W43793   7.902   8.468  16.142  0.2497 -0.0222 -0.3095
28663W        W43794   7.524  16.594  14.384 -0.0306 -0.1289 -0.2190
28664W        W43795  17.157   6.229   0.665 -0.1334  0.2675 -0.0192
28665W        W43796  15.484  11.456   5.610 -0.1023  0.1466  0.2872
28666W        W43797   0.086  12.622   4.245  0.1389 -0.2241 -0.0214
28667W        W43798  16.362   5.341  15.057  0.2512  0.1493 -0.0303
28668W        W43799   9.077  14.187   3.282  0.0351 -0.3054  0.1311
28669W        W43800   0.398   6.427  14.972 -0.1093  0.0862  0.2716
28670W        W43801   2.969   3.767   5.259  0.0005 -0.2078 -0.2513
28671W        W43802  12.412  11.522   0.062 -0.2224 -0.2347  0.1351
28672W        W43803   3.734  13.317  15.660  0.2788  0.0049 -0.2480
28673W        W43804   3.790  14.242  13.538 -0.1936  0.2923 -0.2122
28674W        W43805   2.078   4.144   2.288 -0.1512 -0.1687  0.2170
28675W        W43806  18.035  16.079  12.401  0.3120 -0.0801 -0.0234
28676W        W43807   7.480  16.359  12.873 -0.1842  0.0108  0.0879
28677W        W43808  14.127  12.328  14.961 -0.0220  0.2402  0.2794
28678W        W43809  12.164   4.515  11.544  0.3586 -0.1616  0.0717
28679W        W43810  17.866   3.664  13.425 -0.1141  0.1130  0.1250
28680W        W43811  14.234   8.508   0.271  0.0162 -0.3413  0.1325
28681W        W43812  16.547  12.013  12.345  0.0147  0.1068  0.3011
28682W        W43813   0.405   9.370   4.137 -0.0179  0.1588  0.0950
28683W        W43814  17.016   4.757  13.312 -0.0294 -0.1133 -0.1347
28684W        W43815  16.599   9.896   0.140  0.2502  0.5128 -0.0497
28685W        W43816  14.257   6.580   5.035 -0.1657 -0.1674 -0.0073
28686W        W43817   0.575   2.110   0.299  0.0706 -0.2091 -0.0594
28687W        W43818   1.049  12.672   0.674  0.3265  0.1471 -0.0349
28688W        W43819  15.143  13.557  15.975 -0.3042 -0.2354 -0.1223
28689W        W43820  12.856  13.926  13.484 -0.2763 -0.2879  0.0276
28690W        W43821  10.010  14.662   4.400 -0.1060  0.1486 -0.0606
28691W        W43822  11.258   0.705  11.801  0.0053  0.2465 -0.0986
28692W        W43823   9.351   2.460  12.023 -0.2193 -0.1072 -0.1759
28693W        W43824   6.426  11.942  15.914  0.2347  0.2937  0.0189
28694W        W43825   6.339  11.964  12.286  0.0821  0.2387 -0.1848
28695W        W43826  17.231  14.225  12.955  0.4907 -0.0301 -0.1712
28696W        W43827  14.962  10.287  12.701 -0.0025  0.0043  0.0260
28697W        W43828   2.280   1.438   3.265  0.0293 -0.1258  0.2013
28698W        W43829   5.464   0.155  14.802  0.1478 -0.0770 -0.6144
28699W        W43830  14.315  13.388  13.890  0.2009 -0.1488 -0.0176
28700W        W43831  12.799  11.681  13.483  0.2339 -0.1472 -0.0757
28701W        W43832   7.221  15.084  10.321 -0.2820  0.0739 -0.1037
28702W        W43833  10.439  14.768   1.417 -0.2837 -0.0698  0.0075
28703W        W43834  17.204   3.590  15.869  0.0917 -0.2645  0.1764
28704W        W43835  16.369   4.051   5.179  0.2634 -0.2127  0.0589
28705W        W43836  13.795   3.477   2.589 -0.2095  0.0021  0.0298
28706W        W43837   5.128   6.820  15.421  0.0830  0.0073 -0.1628
28707W        W43838  11.106   1.300   1.735 -0.1909  0.2806  0.1435
28708W        W43839  10.095   5.606   2.751  0.0759  0.1168  0.0667
28709W        W43840  10.678   5.720  15.212 -0.0679  0.0307 -0.0248
28710W        W43841   0.735   7.172   1.863  0.1324 -0.0703 -0.0637
28711W        W43842   9.542   4.652  11.668  0.0890  0.2108  0.2637
28712W        W43843  16.183   1.163  13.309  0.1510  0.1184 -0.1382
28713W        W43844   3.044  11.778  14.145  0.3265 -0.0701  0.0197
28714W        W43845  14.617   3.010   2.575  0.1904 -0.0125 -0.2336
28715W        W43846  16.102   1.779   1.107  0.0112 -0.2152 -0.0706
28716W        W43847   7.590   6.621  13.301 -0.2159 -0.2641  0.0430
28717W        W43848  17.066  16.846   3.186 -0.0240  0.4351  0.1615
28718W        W43849  15.475  13.693   2.698 -0.0712 -0.2006 -0.2321
28719W        W43850  12.284   7.362   4.023  0.1640  0.3560 -0.1175
28720W        W43851   7.251   4.875  15.774  0.1280 -0.0444  0.1830
28721W        W43852  15.509  15.692  12.382 -0.0032 -0.0982  0.1043
28722W        W43853  10.533   2.585   3.722 -0.3051 -0.2028 -0.2571
28723W        W43854   1.911  16.821   1.180 -0.3203  0.1399 -0.0617
28724W        W43855  14.519   9.179  13.223 -0.1680  0.3124 -0.1176
28725W        W43856   8.157  14.215  10.681  0.2455  0.0769  0.2283
28726W        W43857   6.027  17.571   0.207 -0.0768  0.0649  0.1086
28727W        W43858   8.908   2.360  11.785  0.2461  0.2041 -0.2288
28728W        W43859   9.937   2.122  14.409  0.1168 -0.1781  0.2433
28729W        W43860  11.387   5.200  12.542 -0.0582  0.2093  0.1688
28730W        W43861   2.440   6.450  11.336  0.2131  0.0460  0.0809
28731W        W43862   5.392  18.289   2.623 -0.4704  0.0575 -0.0969
28732W        W43863   9.663  18.343   2.254  0.0902 -0.0803  0.0763
28733W        W43864  10.385   6.263  12.914 -0.0065 -0.0943 -0.3793
28734W        W43865   1.360  13.433   1.348  0.1086  0.0795 -0.0482
28735W        W43866   0.544   1.383   1.685  0.0325  0.0218 -0.3042
28736W        W43867   6.554   9.572   2.414 -0.1699 -0.1858  0.0523
28737W        W43868  14.195   7.913   1.958 -0.2905  0.3418  0.0130
28738W        W43869  10.700  16.974   0.153 -0.1757 -0.1387 -0.2830
28739W        W43870  13.270  14.676  13.945  0.3153  0.1079  0.0495
28740W        W43871  13.203  13.612  13.603 -0.1916 -0.0133  0.0568
28741W        W43872  11.997   8.956   2.663  0.0020  0.1896  0.2764
28742W        W43873   5.552   7.521   0.388 -0.2099  0.1725  0.0399
28743W        W43874   1.154  13.159   0.940  0.0862 -0.0432 -0.0177
28744W        W43875   7.471  13.237   4.716 -0.0406  0.2220  0.1894
28745W        W43876   3.746   0.246  13.097 -0.0334  0.1694  0.1208
28746W        W43877   0.570   3.431   5.196  0.0105  0.3837  0.0185
28747W        W43878  18.184   8.414   0.472  0.2659  0.0447  0.0983
28748W        W43879   0.431   5.594  12.784 -0.2962 -0.3883  0.2058
28749W        W43880   6.553  18.053   5.623  0.2445 -0.1327  0.0917
28750W        W43881   5.426  11.251  15.808  0.2177  0.0952 -0.1926
28751W        W43882  10.687  15.060   2.232  0.0754  0.1409 -0.2827
28752W        W43883  12.055  15.129   3.649 -0.3225  0.3578  0.1353
28753W        W43884   0.388   3.763   4.337 -0.0748 -0.2464  0.0232
28754W        W43885  16.660  12.495  11.429  0.1451  0.4014 -0.0634
28755W        W43886  11.013  10.768   4.416  0.1691 -0.0606  0.3202
28756W        W43887  15.280   4.091   6.084 -0.2097 -0.0332  0.1810
28757W        W43888   2.912   8.474   5.550 -0.1840 -0.0392  0.2759
28758W        W43889  10.831   9.250   3.165 -0.4952  0.1459 -0.1488
28759W        W43890  18.145  13.837   0.012 -0.1825 -0.2018  0.0914
28760W        W43891  15.287   7.649   4.955 -0.0139  0.0659  0.0548
28761W        W43892  14.917  15.552   3.903 -0.0613  0.0587 -0.0712
28762W        W43893   7.888   2.177   4.056  0.2908 -0.1234 -0.2812
28763W        W43894  12.600   3.603  15.952 -0.0654  0.0874  0.1263
28764W        W43895   1.306   5.057   5.033  0.1412  0.1416  0.0327
28765W        W43896  11.521  10.086   1.855  0.1379 -0.0177  0.1534
28766W        W43897   6.291  17.359  12.077 -0.0374  0.0554  0.0052
28767W        W43898   1.948  15.745   4.986 -0.1112 -0.2789  0.1703
28768W        W43899  17.245   1.419   2.829 -0.1205  0.1427  0.0961
28769W        W43900   7.235   1.964   2.531  0.2720 -0.1584 -0.2106
28770W        W43901   7.877   1.913   2.989 -0.0062  0.3454 -0.1181
28771W        W43902  13.017  16.868  14.551 -0.0377  0.0441 -0.4012
28772W        W43903  13.800  14.557  12.688  0.0510  0.1583  0.2522
28773W        W43904  12.302   1.251   3.486  0.1144 -0.2292 -0.1175
28774W        W43905  17.593   1.771  12.050  0.0851  0.1389 -0.0780
28775W        W43906   9.313   6.495  11.962  0.3245 -0.0816  0.2258
28776W        W43907   9.153  10.260   3.363 -0.0396  0.1483  0.0960
28777W        W43908   7.373   3.529   0.603 -0.0671  0.1348  0.2018
28778W        W43909   9.073   0.450   4.003 -0.2282 -0.0001  0.0413
28779W        W43910  10.455   5.036  11.402  0.1167 -0.0305 -0.1862
28780W        W43911   1.167  18.328   2.200  0.1364  0.0234 -0.2324
28781W        W43912  13.735   6.562   0.066 -0.1004 -0.0120  0.0516
28782W        W43913   9.455   9.835   1.503 -0.2957 -0.2842 -0.2038
28783W        W43914   9.118   3.386   0.145 -0.2227 -0.1649  0.0750
28784W        W43915   6.940   8.295   4.916  0.2238 -0.0374 -0.2088
28785W        W43916   1.017   0.376  12.290 -0.0879  0.2903 -0.0300
28786W        W43917  14.781   5.092   6.085 -0.0891 -0.1338 -0.0688
28787W        W43918  11.945   2.649   3.994  0.3068  0.3927 -0.0084
28788W        W43919   8.095  16.766   3.900  0.1076  0.0212  0.2233
28789W        W43920   8.014   3.576  15.918 -0.1749  0.1522 -0.1226
28790W        W43921  14.960   0.258   0.366  0.0273  0.0920 -0.0996
28791W        W43922   2.194  12.223   5.292  0.1850 -0.0626  0.3174
28792W        W43923   6.037  13.343  12.974 -0.1594 -0.0609 -0.2677
28793W        W43924  16.513  14.508   3.863  0.4122  0.1354  0.1246
28794W        W43925  15.092  15.645   0.965  0.3070 -0.1934 -0.3168
28795W        W43926  15.449  16.233  14.955  0.0462 -0.0109 -0.0047
28796W        W43927   6.529  12.461  13.169 -0.0263 -0.0685 -0.2318
28797W        W43928   1.919  12.008   4.348 -0.2256 -0.2735  0.0507
28798W        W43929  15.017  12.719  14.357  0.3232  0.4373  0.1472
28799W        W43930   6.891  12.292   2.298  0.0247 -0.0631 -0.0675
28800W        W43931  13.713  16.898  14.300 -0.1690 -0.0480  0.0891
28801W        W43932   7.326   1.741   4.925 -0.1088 -0.0132 -0.0029
28802W        W43933  17.117   5.568   0.094 -0.1757 -0.0323 -0.0617
28803W        W43934   8.066   7.373  13.393  0.0722  0.2820  0.2331
28804W        W43935  15.348  13.366   1.024  0.1136 -0.1249  0.1214
28805W        W43936   1.468  13.386   3.526  0.0519  0.0455 -0.0619
28806W        W43937  13.490   4.484   3.125  0.1133  0.1227  0.1258
28807W        W43938   7.172  12.726   3.059 -0.1896  0.1191  0.2224
28808W        W43939  16.917  17.502   4.873 -0.3987 -0.0345  0.3052
28809W        W43940   2.382   5.073   4.370 -0.1489  0.0394  0.0420
28810W        W43941   4.540  17.424  14.482  0.0282 -0.1790  0.1087
28811W        W43942   8.026   9.642   3.089 -0.2926  0.0540 -0.1396
28812W        W43943  17.325  17.741   4.033 -0.1229  0.0621 -0.1056
28813W        W43944   2.432  14.606   3.499 -0.1667 -0.1439 -0.1218
28814W        W43945   7.139  13.962   3.148 -0.1769  0.1505  0.1501
28815W        W43946   1.754   0.877   2.125 -0.1355  0.0283  0.0391
28816W        W43947   6.374  14.864  11.970  0.1552  0.4178  0.1208
28817W        W43948  16.122   2.635  11.281  0.2581 -0.2667  0.1846
28818W        W43949   8.656   9.674   1.877  0.2476  0.2534  0.1668
28819W        W43950  12.155   3.627  13.891 -0.3148 -0.1452 -0.1016
28820W        W43951  16.292  13.574   2.468  0.0149 -0.1623 -0.2642
28821W        W43952  12.981   0.765  10.735 -0.0195 -0.0598 -0.1389
28822W        W43953  13.005   0.576  11.193  0.0737 -0.0170 -0.1292
28823W        W43954   8.018  13.835   2.504 -0.2845  0.2426  0.0607
28824W        W43955  10.135   5.730  12.986 -0.0492 -0.1251  0.0621
28825W        W43956   3.959  15.333   5.356  0.0986 -0.2204 -0.2320
28826W        W43957   6.613   6.786  14.203  0.0313  0.0007  0.1428
28827W        W43958  14.082   2.299   5.988  0.1076 -0.0614 -0.1833
28828W        W43959   3.798  16.233   1.925  0.1362 -0.0663 -0.0204
28829W        W43960   1.328   6.197   5.229 -0.0042  0.4511 -0.2647
28830W        W43961   6.484  14.031  11.922 -0.0233 -0.2599  0.3595
28831W        W43962  14.071   9.862  12.814  0.1554  0.2574 -0.2168
28832W        W43963   8.135  16.938   5.517 -0.0701  0.0764 -0.2348
28833W        W43964   7.576   7.177  14.818 -0.2702 -0.2605 -0.0907
28834W        W43965  10.558   7.785  11.789 -0.0489 -0.2710  0.3575
28835W        W43966  11.622   1.573   1.492  0.2820  0.1946 -0.0106
28836W        W43967  13.874  13.644  12.518  0.3182  0.0582 -0.0902
28837W        W43968  17.425   6.791  11.069  0.2370  0.1646  0.0621
28838W        W43969  13.756  16.051  12.828  0.2475  0.2109 -0.0741
28839W        W43970  13.259   8.600   3.718  0.0136 -0.1253  0.0451
28840W        W43971   6.245  16.725  10.908 -0.1101 -0.3270 -0.1981
28841W        W43972  15.344   5.918  12.401 -0.0212  0.2633  0.1642
28842W        W43973  10.046   1.200   0.100 -0.0941 -0.1985 -0.0381
28843W        W43974   4.953  11.118  13.849  0.0446  0.2101 -0.1727
28844W        W43975  11.392   1.986   1.363  0.0748  0.2438 -0.0363
28845W        W43976  10.449  12.781   4.919  0.0606  0.1053  0.3060
28846W        W43977   7.104  13.159   4.220 -0.0445 -0.0240 -0.0412
28847W        W43978   6.900  14.532   3.350 -0.1065 -0.1835  0.0660
28848W        W43979   5.677  15.409   1.692 -0.0840 -0.3382 -0.2855
28849W        W43980  13.337  17.002   2.976  0.1158  0.1557  0.0382
28850W        W43981  14.365   7.217   4.804  0.0413  0.0422 -0.0693
28851W        W43982  16.884  10.126   1.337  0.3727  0.3493  0.0170
28852W        W43983   5.598  14.762   2.357 -0.2181  0.0242 -0.1127
28853W        W43984   4.477  14.028   0.450 -0.0043 -0.0581 -0.2097
28854W        W43985  12.566  15.858   4.774 -0.0664 -0.0073 -0.0755
28855W        W43986  11.666  16.963   0.513  0.2167  0.0638 -0.1595
28856W        W43987  14.721  14.684  13.085  0.0767 -0.0974 -0.2634
28857W        W43988   8.441  13.699   2.782 -0.0718 -0.0948 -0.0680
28858W        W43989  12.331  11.117   2.574  0.0562  0.2514 -0.1506
28859W        W43990   5.055   5.980  13.460 -0.0104  0.0994  0.1002
28860W        W43991  11.778   3.188   4.279  0.0816 -0.1728 -0.0265
28861W        W43992   9.198  11.431  14.994 -0.1818  0.0813 -0.0404
28862W        W43993   7.694   2.526   2.216  0.3030  0.1485  0.0295
28863W        W43994   1.549   7.705   2.341  0.2506 -0.3236 -0.0007
28864W        W43995  12.956  15.600  14.954 -0.0067  0.0689 -0.1561
28865W        W43996   0.470  11.965  15.822 -0.1409 -0.1913  0.0036
28866W        W43997   0.268   8.970  14.308 -0.2325 -0.0792  0.2329
28867W        W43998   1.393   2.910   4.495  0.2153  0.2385  0.1159
28868W        W43999   1.153  14.231   4.667  0.0189 -0.2038 -0.2327
28869W        W44000   5.052  17.954   1.380  0.0990 -0.1910 -0.0469
28870W        W44001   4.258   1.240   2.428 -0.1971  0.2212  0.2529
28871W        W44002   1.256   6.159   3.621 -0.0939 -0.4186 -0.1183
28872W        W44003  12.889   5.028   3.909  0.2876 -0.3404 -0.2853
28873W        W44004   8.589  13.950  12.255  0.0392  0.0936  0.2423
28874W        W44005   5.758   0.890   3.471  0.1980  0.1068  0.2451
28875W        W44006   5.545  16.294  11.554  0.1214 -0.0400 -0.0178
28876W        W44007  17.277   3.821   5.442  0.0347  0.1232  0.3977
28877W        W44008   2.867  12.552   4.879 -0.1279 -0.1076  0.0734
28878W        W44009   4.252  12.578   2.282  0.0980 -0.1214 -0.0724
28879W        W44010   1.462  14.809  11.775 -0.2141  0.0859  0.2178
28880W        W44011  13.530  15.064   2.946 -0.3959 -0.0344  0.1122
28881W        W44012  16.309   1.921   0.646 -0.3644  0.0674  0.1952
28882W        W44013   7.220   5.292  15.482  0.4253  0.3010 -0.1606
28883W        W44014   4.845  17.240   2.244 -0.2210 -0.0403  0.2750
28884W        W44015  16.148   3.202  15.638  0.0574 -0.1228 -0.2079
28885W        W44016  17.868   6.036   1.728 -0.0640  0.1495  0.1103
28886W        W44017   9.852   0.476  10.405 -0.0816 -0.3440  0.1145
28887W        W44018  17.949  18.236  15.327  0.0590 -0.0166  0.3490
28888W        W44019   7.719  15.219  12.499  0.1803  0.1303 -0.1984
28889W        W44020   1.952   2.431  14.987 -0.2870  0.3518  0.2791
28890W        W44021   1.768   8.851   0.703 -0.1890  0.4494 -0.0061
28891W        W44022  12.848  11.889   2.590  0.3754 -0.1687 -0.0851
28892W        W44023  12.402   8.992  13.761  0.3270  0.0736  0.0893
28893W        W44024  11.367  16.571   0.435 -0.1971 -0.1567  0.3307
28894W        W44025  18.225   3.022   0.597  0.0672  0.3413  0.1310
28895W        W44026   5.103   9.769  12.390  0.4057  0.1824 -0.1041
28896W        W44027   3.792   7.844   1.707  0.0217 -0.1864  0.1458
28897W        W44028  18.131  16.712  14.727 -0.0466  0.2178  0.0849
28898W        W44029  12.497   2.092   2.765 -0.1420  0.1111  0.2590
28899W        W44030  10.614  17.216  13.101  0.1473  0.3890 -0.1730
28900W        W44031  14.413   4.676  11.488  0.2306  0.1221 -0.1775
28901W        W44032   5.612   1.033   4.993 -0.2481 -0.3717 -0.0368
28902W        W44033   6.869  13.762  13.103  0.2620 -0.2043 -0.1683
28903W        W44034  15.326   7.036  14.808 -0.0790 -0.4046  0.2128
28904W        W44035  12.930   6.556  11.752  0.3204 -0.0250  0.2132
28905W        W44036   5.813  10.332   0.713  0.1294  0.0412  0.0050
28906W        W44037  16.903   8.804   3.256  0.0954 -0.0553 -0.1402
28907W        W44038   5.108  14.030  13.678  0.0146  0.0265 -0.0247
28908W        W44039   6.643   8.781   4.775  0.0342 -0.2083 -0.0749
28909W        W44040   4.758  16.102  11.956 -0.2931 -0.1221  0.1102
28910W        W44041   1.855   9.610  14.344  0.0931  0.0563  0.2486
28911W        W44042  18.311  17.264  15.044  0.0872 -0.1922 -0.0159
28912W        W44043   4.561   9.477   3.456  0.2365 -0.0942  0.2179
28913W        W44044  12.475  17.312   1.793 -0.1642 -0.3531 -0.0659
28914W        W44045  15.037   5.827   4.033 -0.2333  0.3268 -0.0897
28915W        W44046   1.978   2.132   3.899 -0.0488  0.2795  0.0385
28916W        W44047  12.566  11.521   2.764  0.3824  0.0310 -0.0505
28917W        W44048  11.512   0.223  14.052  0.2258  0.0037  0.1491
28918W        W44049   6.310   3.534  15.755  0.2367 -0.0527  0.2295
28919W        W44050   1.893   9.442   3.987  0.2081 -0.2690  0.1405
28920W        W44051  12.109   5.826  14.072  0.1117 -0.1835 -0.0824
28921W        W44052   7.943   7.204  14.499 -0.0091  0.2949 -0.0583
28922W        W44053  15.534   1.574   3.753 -0.2293  0.0219  0.2840
28923W        W44054   0.965  18.002   0.693  0.4687  0.1844 -0.4511
28924W        W44055   8.904   0.251  14.757  0.1784 -0.1619 -0.1852
28925W        W44056   5.531  10.139  13.437  0.0028 -0.0311  0.0748
28926W        W44057   8.877  15.315  13.113 -0.0913 -0.0408 -0.0010
28927W        W44058  17.027   2.351  10.837  0.1385  0.0920  0.0511
28928W        W44059  11.273   0.227   3.820  0.1985  0.0335 -0.1743
28929W        W44060   9.033  14.255  12.178 -0.1570  0.0398 -0.1443
28930W        W44061   4.689   7.080   3.928  0.1157  0.0332  0.1193
28931W        W44062  15.553   2.926  13.438  0.1074  0.0134 -0.4209
28932W        W44063  14.994   4.720   0.773  0.0056 -0.0286  0.1634
28933W        W44064   6.160   7.303  12.421  0.1968 -0.3678  0.4009
28934W        W44065  13.838  12.618  12.768 -0.0582 -0.3481  0.0749
28935W        W44066  17.036  14.185  11.035  0.1335  0.1715  0.0258
28936W        W44067  12.898   7.105  10.801 -0.0227  0.0136 -0.0014
28937W        W44068  14.524  11.841  13.218 -0.1256 -0.1225 -0.0187
28938W        W44069   3.468  16.646   5.603  0.0665 -0.0556 -0.0595
28939W        W44070   1.905  14.531   3.607  0.0118  0.0021 -0.1580
28940W        W44071   1.404  13.187   1.871  0.4438  0.1117 -0.0048
28941W        W44072  14.405   6.839  10.976 -0.2090 -0.3630 -0.3620
28942W        W44073  17.215  13.762   3.323  0.1134  0.1080 -0.0767
28943W        W44074  17.042  15.821  15.832  0.0553  0.0460  0.2911
28944W        W44075   7.903  18.318   2.145 -0.2631 -0.0882 -0.1139
28945W        W44076   3.048   5.133  13.450  0.3961 -0.1168 -0.1829
28946W        W44077   3.330   8.437   3.232  0.0456 -0.3097 -0.1730
28947W        W44078  13.178  17.506  15.273 -0.1099 -0.1170  0.1228
28948W        W44079   9.458   6.044  10.593 -0.0797 -0.2094  0.0310
28949W        W44080   4.342  11.060  14.470 -0.1813  0.0711  0.0550
28950W        W44081   0.768   4.770   4.758  0.0459 -0.0980 -0.0233
28951W        W44082   2.111   1.011  12.598 -0.1942 -0.2411 -0.0788
28952W        W44083   1.416  14.058  12.347 -0.2347  0.0368  0.2698
28953W        W44084  17.694   9.160  13.396 -0.1498 -0.3331  0.1793
28954W        W44085  13.662   3.963  14.812  0.0768 -0.0963  0.1189
28955W        W44086  10.799  10.288   2.328  0.1325 -0.0640  0.3638
28956W        W44087   9.473  18.150  12.772 -0.2786 -0.1978 -0.0584
28957W        W44088   4.502  16.118   1.576 -0.0042  0.2432 -0.1044
28958W        W44089  12.881  18.092   6.048 -0.3247  0.1868 -0.2217
28959W        W44090   0.119   7.887  13.995  0.0327 -0.1837  0.2603
28960W        W44091   5.732  12.945   2.529 -0.2702 -0.1076 -0.1742
28961W        W44092   1.841   3.640  15.392  0.3039  0.0679 -0.1113
28962W        W44093   2.178   0.759   1.615 -0.0490 -0.0790  0.0241
28963W        W44094  11.015  15.878  14.692  0.5376 -0.0808  0.0274
28964W        W44095  16.147  17.193  14.294  0.0561  0.1571 -0.2333
28965W        W44096   2.558  15.403  14.801 -0.0019 -0.0408  0.0407
28966W        W44097  13.522  13.642   1.185 -0.0601 -0.2455  0.1972
28967W        W44098   4.231   6.578  16.084 -0.0192  0.2220  0.0321
28968W        W44099  12.945   8.492   4.898 -0.0258 -0.3026 -0.1169
28969W        W44100   7.995   9.887   3.494 -0.0215  0.1492 -0.2677
28970W        W44101   5.508  18.155  11.645  0.0986  0.0024 -0.2182
28971W        W44102  11.447   2.508   4.940 -0.2160 -0.2643  0.0152
28972W        W44103   6.905  11.042  15.865 -0.1775  0.0926  0.0112
28973W        W44104  13.949   0.923  15.895 -0.0148  0.0806 -0.0100
28974W        W44105   4.425  17.163   3.628  0.3722  0.1587  0.2184
28975W        W44106   3.313   7.288  13.979 -0.1220  0.3025  0.0873
28976W        W44107   5.536  17.344   0.130  0.2803 -0.0467 -0.2413
28977W        W44108  11.018   8.170   5.362  0.1899  0.1956 -0.2256
28978W        W44109   8.783   1.992   4.657 -0.0080 -0.0500 -0.1648
28979W        W44110   5.188   9.058   4.652 -0.0694  0.1268  0.2254
28980W        W44111  18.024  14.700  14.860 -0.0226  0.1384  0.0998
28981W        W44112  15.317   3.595   6.257 -0.1048  0.3067 -0.1463
28982W        W44113   0.007   2.997   4.581  0.1103 -0.0689 -0.1805
28983W        W44114   8.549  14.188  10.972 -0.2179  0.2720 -0.1559
28984W        W44115  17.409   8.553  10.428  0.0690 -0.0609 -0.0496
28985W        W44116  13.636  14.304  14.041 -0.0476 -0.2157  0.1461
28986W        W44117  18.083  17.371   0.440 -0.0123  0.0149  0.0385
28987W        W44118   1.926  10.139   2.337  0.1096  0.0850  0.1267
28988W        W44119   0.129   5.692   5.901 -0.0696  0.1074 -0.0566
28989W        W44120  11.800   3.498   5.733 -0.1614  0.0870 -0.3360
28990W        W44121  10.602  16.332  11.339  0.0424  0.2545  0.0786
28991W        W44122  11.190  16.386   0.856  0.2950 -0.2175  0.3188
28992W        W44123   4.162  12.719  12.347 -0.0646  0.5200  0.0298
28993W        W44124  12.166  10.534  14.533  0.1296 -0.0866 -0.1994
28994W        W44125  11.599  11.914   2.473 -0.1123 -0.1674  0.1565
28995W        W44126   3.647  11.535  13.367 -0.0190 -0.1679 -0.1078
28996W        W44127  11.741  12.035   0.776 -0.2210 -0.4217  0.5368
28997W        W44128  14.028  15.438  11.706  0.3928 -0.3546  0.1373
28998W        W44129   4.158   2.096   3.483  0.2074 -0.3654  0.2632
28999W        W44130  10.235  11.308   4.833  0.1105  0.2790  0.1485
29000W        W44131  11.202   2.298   4.055  0.0865 -0.1023 -0.0578
29001W        W44132   0.752  16.973   4.579 -0.4627 -0.4492  0.0191
29002W        W44133   7.466   2.968  12.109 -0.0501  0.1956  0.0739
29003W        W44134   8.838  17.898   0.442 -0.0201 -0.2349  0.2958
29004W        W44135   0.736  15.964   3.480  0.0815 -0.0115 -0.0371
29005W        W44136  14.525   4.714   5.441 -0.2289  0.1027  0.2490
29006W        W44137   4.284  16.047   2.038 -0.1289  0.0988 -0.0588
29007W        W44138  13.045   7.822  14.223 -0.0040 -0.0207  0.0180
29008W        W44139   5.000   0.749   5.654  0.0430  0.1154  0.3365
29009W        W44140  14.010   5.987   1.657  0.4475  0.0802 -0.1465
29010W        W44141   3.585  14.447   1.589 -0.0423  0.0130  0.0187
29011W        W44142   6.385   6.455   3.206 -0.0336  0.0548 -0.0548
29012W        W44143  12.377   7.639   0.541  0.1617  0.0403 -0.1612
29013W        W44144  17.889  17.414   4.082  0.1738  0.0793  0.0836
29014W        W44145  13.819  13.435   2.593  0.0113 -0.0149  0.1030
29015W        W44146   0.574  15.405   5.262 -0.1578  0.1967  0.0728
29016W        W44147   6.795   7.961  12.153  0.0814 -0.2044  0.3247
29017W        W44148  10.713   2.520   1.424  0.2707  0.1172 -0.2022
29018W        W44149   9.075   8.561   2.004  0.0108 -0.0608  0.0644
29019W        W44150  11.135   5.485   2.641 -0.1906 -0.2014 -0.2620
29020W        W44151  16.846  17.073  12.587  0.0053 -0.1576  0.1321
29021W        W44152  16.842   9.231   4.528  0.0895  0.1083  0.1275
29022W        W44153   1.810  17.354   5.971 -0.0194  0.1224 -0.0375
29023W        W44154   9.326  15.287  12.940 -0.1306  0.1033  0.1181
29024W        W44155  17.760  15.440  15.245  0.0578  0.2515  0.1905
29025W        W44156   7.180   1.660  12.458 -0.0454  0.1091  0.1476
29026W        W44157   4.769  13.710  11.137  0.0497  0.2035  0.1873
29027W        W44158   4.418   3.070   0.229  0.0015 -0.0564 -0.0709
29028W        W44159  15.988  10.017   5.530  0.0039  0.0679  0.4069
29029W        W44160  14.067  13.325   4.337  0.0544 -0.0489  0.0151
29030W        W44161  16.609   1.462  14.000 -0.1129 -0.2038  0.0891
29031W        W44162   6.633   3.508   1.779  0.1462  0.1746  0.0745
29032W        W44163   3.366  10.323   3.455 -0.2438 -0.0670  0.4726
29033W        W44164   1.884   1.617  14.708  0.1977  0.0148  0.1158
29034W        W44165  11.491  14.390   1.198  0.0742  0.2592 -0.0321
29035W        W44166  10.112   8.785   4.447  0.1567 -0.0011  0.0160
29036W        W44167   5.239  17.181  15.347 -0.1862 -0.2671 -0.2083
29037W        W44168  17.705  14.163  15.990  0.1009 -0.0831  0.0216
29038W        W44169  18.070   2.934  14.011  0.1700 -0.0136 -0.1636
29039W        W44170  11.155   8.613  10.403  0.0887 -0.0398  0.0824
29040W        W44171  11.583   3.733  13.770 -0.0985  0.0211  0.0993
29041W        W44172  10.185   9.226  11.322  0.3280  0.1465 -0.1197
29042W        W44173  17.875   6.631  15.092  0.0658  0.1747 -0.0594
29043W        W44174   1.529  10.975   4.772 -0.2255  0.1459  0.0276
29044W        W44175   3.087   5.943   2.936 -0.0068  0.0566  0.0611
29045W        W44176   3.350  16.604   3.703 -0.3889 -0.0193 -0.0880
29046W        W44177  17.937   4.090   1.036  0.5105  0.0583  0.3207
29047W        W44178   4.413   1.812   5.094  0.2391  0.1994  0.1124
29048W        W44179   6.323   9.189   4.403 -0.0379  0.1591 -0.0517
29049W        W44180   9.181   9.672   0.650  0.1355 -0.0417 -0.0742
29050W        W44181   1.111   9.234  13.650  0.0935 -0.0586  0.0863
29051W        W44182   0.441   0.358  12.997  0.1124 -0.4222 -0.1204
29052W        W44183  15.591   7.402  15.764 -0.1092  0.2824 -0.1494
29053W        W44184  14.776  12.226   4.642 -0.1280 -0.0770  0.0640
29054W        W44185  11.447  14.487  14.462 -0.3590  0.0894  0.2625
29055W        W44186  17.323   0.922  14.274 -0.3400  0.2417 -0.3390
29056W        W44187   6.241   8.681   4.497  0.1306  0.0856 -0.1252
29057W        W44188  14.144  16.896   5.527 -0.2260  0.1448 -0.1211
29058W        W44189   4.903  15.546  11.904  0.1539  0.2197 -0.0039
29059W        W44190   8.682  16.674  12.851 -0.0363  0.2280 -0.2433
29060W        W44191   2.759  16.479  12.432 -0.2728 -0.0212  0.2424
29061W        W44192   4.619  17.612   3.455 -0.0417  0.2043 -0.1610
29062W        W44193  17.944   0.530   2.763  0.2471  0.3244  0.0322
29063W        W44194  17.132  16.124  13.244  0.1196  0.2255 -0.1810
29064W        W44195  14.787   9.930  14.279  0.0364  0.0886  0.5092
29065W        W44196  10.991  16.329  14.500 -0.1434 -0.2527 -0.1232
29066W        W44197   6.424   4.294  15.121 -0.4275 -0.2270 -0.3363
29067W        W44198   3.603  15.952   3.969  0.2430 -0.1172  0.1185
29068W        W44199  11.870   9.664   3.256  0.0011 -0.0244 -0.0457
29069W        W44200   7.184  10.918   1.395  0.2050 -0.4618  0.2834
29070W        W44201   7.550  16.875   2.479  0.0364 -0.1438  0.1534
29071W        W44202  11.647   4.374   4.012 -0.1491  0.0563  0.0277
29072W        W44203  15.935   8.274   0.374  0.1028  0.2192 -0.1422
29073W        W44204  11.145   3.873   1.175 -0.0853  0.1247 -0.0439
29074W        W44205  18.365   9.529   1.071 -0.2454 -0.1043  0.1789
29075W        W44206   8.291   4.007   5.634 -0.2714  0.2686  0.0083
29076W        W44207  10.809  12.023  10.292  0.2972  0.1157  0.1945
29077W        W44208   2.696   4.975  14.972 -0.0483 -0.0102 -0.5447
29078W        W44209   3.300  11.235   5.716  0.0629 -0.2696  0.0084
29079W        W44210  14.916   0.692   2.959  0.3337  0.1910 -0.0743
29080W        W44211   2.719   9.589  11.453 -0.0629 -0.1447 -0.1269
29081W        W44212   7.763   2.904   6.080 -0.0489  0.0601 -0.0262
29082W        W44213   0.444  17.591   3.372  0.0584 -0.1265 -0.2487
29083W        W44214  14.919   5.748  12.567 -0.0299  0.5269  0.1544
29084W        W44215   4.437  11.615   1.585 -0.1259  0.0609 -0.1200
29085W        W44216  11.535  12.919  11.424  0.2037  0.1820  0.1117
29086W        W44217   9.663   6.056  11.943  0.1639  0.1313  0.0841
29087W        W44218   7.265  11.348  15.866 -0.3068 -0.0862 -0.2739
29088W        W44219   5.570  12.762   5.536  0.1375 -0.1012  0.3190
29089W        W44220  13.027   1.778   0.614 -0.1303  0.2448 -0.0873
29090W        W44221   8.747  10.691  14.080 -0.0577 -0.0622  0.0113
29091W        W44222   0.292  17.991  14.449  0.0619 -0.1603 -0.0711
29092W        W44223   4.540  16.872  10.888  0.0292 -0.1507 -0.1631
29093W        W44224  17.624   0.828   4.443 -0.0528 -0.1411  0.1448
29094W        W44225  13.597  12.778  13.771 -0.3852 -0.1149  0.2601
29095W        W44226   2.439   7.231   1.987 -0.0421  0.0290  0.3199
29096W        W44227  17.829   5.670  10.855 -0.3576 -0.0110  0.0326
29097W        W44228   7.068   0.538  12.105  0.1433 -0.1707 -0.0149
29098W        W44229  11.216  13.635  11.312 -0.4547  0.4568 -0.3404
29099W        W44230   6.328  10.044  13.154 -0.3785 -0.0083 -0.0698
29100W        W44231   0.628  16.065   6.537 -0.2541  0.1534 -0.4346
29101W        W44232   8.365  16.137  11.701  0.0065  0.4366  0.1851
29102W        W44233   5.200   4.358  15.649 -0.2163 -0.0186 -0.4165
29103W        W44234   6.694  15.270   3.142  0.1046  0.1153  0.2162
29104W        W44235  15.174   3.942  15.165  0.2064  0.4543  0.0318
29105W        W44236   0.525  15.794   1.757  0.0196  0.5263  0.0726
29106W        W44237   7.198   4.073  13.208 -0.3833  0.0610  0.3553
29107W        W44238   6.901   1.972   1.306  0.0950 -0.2197 -0.0893
29108W        W44239   7.316  17.808   0.916 -0.0943 -0.3346  0.1082
29109W        W44240   2.356   0.048   0.777 -0.2842 -0.0058  0.3212
29110W        W44241   2.517   0.577   4.566  0.2086  0.1715  0.1822
29111W        W44242   9.880   7.736   6.105 -0.1661  0.1355  0.1107
29112W        W44243   3.931   5.945  11.607  0.1686 -0.2725  0.1135
29113W        W44244  16.806  11.746   5.500 -0.0425 -0.2152 -0.0096
29114W        W44245   9.496  13.431  11.742  0.1814  0.1276 -0.1329
29115W        W44246   8.077   1.618  11.502  0.3036  0.1966 -0.2857
29116W        W44247  12.165  14.829   4.315  0.3362 -0.5469 -0.0694
29117W        W44248  17.717   2.719   5.285 -0.4014 -0.0634  0.0311
29118W        W44249   2.571   4.261   4.193 -0.1300  0.3582  0.1928
29119W        W44250   1.826   2.644  13.642  0.2912 -0.0001  0.0094
29120W        W44251   7.633  17.682  14.335 -0.2501 -0.3055 -0.0748
29121W        W44252   0.560   0.617   3.598  0.1939 -0.0239 -0.0797
29122W        W44253  16.727  11.008   0.889  0.0588  0.3956  0.0050
29123W        W44254   3.482   6.018   2.011 -0.0441 -0.4196 -0.1213
29124W        W44255  17.026   9.424  10.981 -0.3331 -0.0201 -0.0270
29125W        W44256   9.581   5.144   1.087 -0.3161  0.0002  0.0855
29126W        W44257  16.502   4.419  12.447 -0.0540 -0.1455  0.2555
29127W        W44258   0.710   5.265  15.319 -0.1206 -0.3547 -0.0834
29128W        W44259   1.335  12.520  13.209  0.1156  0.1873  0.2620
29129W        W44260   3.016  10.085   0.164 -0.3652 -0.0614  0.0456
29130W        W44261   4.326  11.027  11.622  0.1721  0.0205  0.4093
29131W        W44262   5.210   0.600  12.195 -0.3035  0.3456  0.0894
29132W        W44263   4.615  13.808  10.447  0.4197 -0.3068  0.0020
29133W        W44264  16.323   0.435  13.960  0.1522 -0.0851 -0.2281
29134W        W44265  17.777   8.039   4.511  0.1941 -0.1212  0.0112
29135W        W44266   6.716   9.960  12.193  0.3725 -0.2583  0.1254
29136W        W44267   4.473  10.087  11.314  0.0730 -0.0473  0.0523
29137W        W44268   5.216   1.569   3.387  0.0703  0.2568 -0.0868
29138W        W44269   2.995   8.529   2.019 -0.2378 -0.2162 -0.0357
29139W        W44270   5.133   2.724   0.541 -0.0550 -0.0634 -0.3552
29140W        W44271   2.601   0.752   2.992 -0.1535  0.3564  0.2262
29141W        W44272   9.995  11.599  10.680  0.0009 -0.1867  0.0506
29142W        W44273   5.994  12.228   0.593 -0.1772  0.2292  0.0313
29143W        W44274  17.865  15.009   1.587  0.0812 -0.1082 -0.0549
29144W        W44275  10.942  11.695  13.048 -0.0989 -0.0986  0.1351
29145W        W44276   5.191  12.743   2.600  0.1070  0.1249 -0.0909
29146W        W44277   1.620   5.665  11.312 -0.0127 -0.1607  0.1677
29147W        W44278   1.622   6.929  11.163  0.1548 -0.2643  0.0275
29148W        W44279  12.758   5.298   2.244  0.3414  0.4086  0.0900
29149W        W44280   6.199  15.942  14.396 -0.1299  0.2147 -0.0227
29150W        W44281  10.282  15.183  14.920  0.1453  0.1049  0.2895
29151W        W44282   4.600   5.015   0.048 -0.0105  0.2001 -0.1096
29152W        W44283  11.874   4.229  14.365  0.2356  0.0913  0.1470
29153W        W44284  16.938  14.147  15.593 -0.0950  0.2241  0.0225
29154W        W44285   9.823   0.960  15.859  0.2200  0.1224  0.1257
29155W        W44286  17.425  15.925   1.169 -0.2634  0.0540  0.0508
29156W        W44287  13.231   9.264  12.337  0.2485  0.1158  0.0316
29157W        W44288  12.984  15.701   2.502 -0.0842 -0.0368  0.0355
29158W        W44289  15.103   0.723  12.981 -0.0415  0.3626  0.2376
29159W        W44290   4.629  10.084  13.268 -0.2016  0.2210 -0.0441
29160W        W44291  12.409   0.404   3.634  0.1583  0.0480 -0.2842
29161W        W44292   6.623   9.839   5.083 -0.3107 -0.0553 -0.1439
29162W        W44293  16.847  17.774   1.630 -0.2858  0.3132  0.0724
29163W        W44294  10.492   5.979   5.236 -0.1348 -0.1450  0.0865
29164W        W44295   3.830   0.553  14.904 -0.1530 -0.0367  0.0837
29165W        W44296   1.428   8.377   0.569 -0.2622 -0.0305  0.1221
29166W        W44297   7.364  17.391  10.513 -0.1309 -0.5046 -0.0040
29167W        W44298   5.849   4.346  15.173  0.0391 -0.4622  0.1997
29168W        W44299  18.197   9.910   1.562  0.0575  0.1170  0.2849
29169W        W44300   6.590   8.802  10.521 -0.0233 -0.2315  0.0378
29170W        W44301  10.268  11.920   3.602 -0.0289 -0.3179  0.3534
29171W        W44302   3.514   8.758   2.020  0.2255  0.3379  0.0164
29172W        W44303  11.632   1.417   3.006 -0.1941 -0.0816 -0.3428
29173W        W44304  15.046   2.162  15.307  0.4346 -0.1071  0.1072
29174W        W44305   1.777   1.515   1.497 -0.0230  0.2243 -0.3304
29175W        W44306   2.569   4.328  12.573 -0.1271  0.2281 -0.0650
29176W        W44307   9.205   9.459   6.197 -0.2144  0.0064  0.1483
29177W        W44308  11.535  16.240   1.324  0.0507  0.2317 -0.1239
29178W        W44309  18.168   1.635  14.519  0.0369 -0.1795 -0.0667
29179W        W44310   9.523   7.399  14.564 -0.0180  0.1389  0.0982
29180W        W44311  16.822   9.815  11.641 -0.0304  0.1301 -0.0199
29181W        W44312   3.716  13.977  10.378 -0.0408 -0.2822  0.4079
29182W        W44313   3.408   9.913  14.386  0.0381  0.4420  0.2522
29183W        W44314  10.665   4.408   2.847  0.1249 -0.1098  0.0601
29184W        W44315  17.832   2.219   2.943  0.0731 -0.1678 -0.1791
29185W        W44316   4.776   4.053   5.589  0.1008 -0.2307  0.0129
29186W        W44317  11.514  15.095   2.411 -0.1081  0.0047 -0.1452
29187W        W44318  15.968   4.487  14.103  0.0035 -0.0791  0.2163
29188W        W44319   2.942  15.971  12.571  0.1709 -0.0006  0.1606
29189W        W44320  12.880   9.763  16.035 -0.2648 -0.0968 -0.1734
29190W        W44321  12.537   3.289  15.545 -0.1396  0.1403  0.1195
29191W        W44322   5.865   6.684   3.304 -0.1936 -0.1907  0.0283
29192W        W44323   2.381   0.003   5.524  0.2073  0.0238 -0.2513
29193W        W44324   1.370   6.233  11.379 -0.1665 -0.3668  0.3048
29194W        W44325   5.469   8.920  12.777 -0.1210  0.0413 -0.4886
29195W        W44326  11.009   9.171   4.075  0.1797  0.1842 -0.5037
29196W        W44327   0.387   3.831   2.339 -0.2944  0.1157 -0.2024
29197W        W44328   4.883  17.632  14.121  0.4278  0.1162 -0.1543
29198W        W44329   1.236   4.356   1.916 -0.0629  0.0271 -0.1339
29199W        W44330  11.859   2.111   5.750  0.2273  0.2244 -0.1325
29200W        W44331   1.882  14.947   0.615 -0.0183 -0.1702 -0.0741
29201W        W44332   3.791  17.969   2.067 -0.0151 -0.0635 -0.1181
29202W        W44333  17.120   7.773  13.065  0.0394 -0.0701  0.0249
29203W        W44334   2.644  15.375   1.836  0.2586 -0.0160 -0.2872
29204W        W44335   4.840   0.345  13.779 -0.2987  0.2212 -0.2439
29205W        W44336  10.233   1.925   6.004 -0.0383 -0.0430 -0.1456
29206W        W44337   0.898   2.255   4.484 -0.1953 -0.2189 -0.1459
29207W        W44338  15.729  14.878   1.736 -0.0717 -0.2061  0.1162
29208W        W44339   8.787   7.454  15.567  0.1445  0.1906 -0.1305
29209W        W44340  15.319  13.852   4.975 -0.0278 -0.1694 -0.3753
29210W        W44341  10.787  11.539   2.145  0.0731 -0.1593 -0.1312
29211W        W44342  12.753   5.702   5.203 -0.0951 -0.1425  0.0211
29212W        W44343  17.099  11.148  12.525 -0.2610 -0.1915  0.0691
29213W        W44344   6.989  15.217   2.746 -0.2288  0.1746  0.1037
29214W        W44345  13.323  11.191  15.814 -0.3894 -0.2806 -0.1892
29215W        W44346   8.354   9.494  14.586 -0.0380 -0.0968  0.1359
29216W        W44347   6.689   0.406   3.946 -0.2178  0.1291  0.3927
29217W        W44348  11.536  15.728  10.471  0.2857 -0.2144  0.0705
29218W        W44349  15.041   5.910  10.931 -0.0492  0.1056 -0.2995
29219W        W44350  16.945  11.225  11.693  0.0633  0.1367  0.1730
29220W        W44351   0.237  13.435   0.895  0.1779  0.2117  0.1132
29221W        W44352   7.410  11.990  15.382  0.0923  0.1239  0.3363
29222W        W44353   2.690  14.599  12.326  0.0439 -0.1435  0.1547
29223W        W44354  15.965   0.963   1.981  0.2424 -0.1490 -0.2307
29224W        W44355  12.432   8.570   4.835 -0.4882  0.0769  0.1236
29225W        W44356   2.685  10.344   1.122 -0.3438  0.0379  0.2154
29226W        W44357   8.798   7.152   5.432  0.0838 -0.0203  0.0111
29227W        W44358   8.307   7.758   0.447  0.2322  0.2189  0.2205
29228W        W44359   3.206  10.399  13.974  0.1088  0.0309 -0.0026
29229W        W44360   1.188   9.449  10.624  0.3850  0.1125  0.0200
29230W        W44361  13.787   1.999   2.681 -0.1277  0.0892  0.1149
29231W        W44362  12.727   5.202  15.847 -0.1794  0.0672  0.2032
29232W        W44363   2.075  12.807  12.021 -0.1241 -0.0006 -0.0910
29233W        W44364   0.278  17.425   0.239 -0.0412 -0.1644 -0.2216
29234W        W44365   3.394  14.987  13.240  0.1678  0.0975  0.0617
29235W        W44366   2.261   1.806   4.123  0.2786  0.0705  0.2235
29236W        W44367   6.114   9.564  16.018  0.2211  0.1061 -0.3519
29237W        W44368  10.457   1.501   5.928 -0.1120  0.1139  0.1716
29238W        W44369  12.054   8.348  12.685  0.0324  0.1717 -0.2579
29239W        W44370   3.660   8.827   2.687 -0.0806 -0.2242  0.1840
29240W        W44371   2.115  10.597   9.468 -0.4723  0.0784 -0.1915
29241W        W44372   2.120   8.999   5.253  0.0333  0.1229 -0.4722
29242W        W44373  17.921   3.930  15.508 -0.1302 -0.0790  0.3699
29243W        W44374   8.071   2.731  11.089  0.2816 -0.0750 -0.3518
29244W        W44375   4.086   9.863  15.187 -0.1040  0.1639 -0.3162
29245W        W44376   4.533   7.380  14.263  0.0854  0.1578 -0.0539
29246W        W44377   3.352   0.122  13.518  0.0311  0.0862 -0.1492
29247W        W44378  10.088  14.149   4.955  0.0709 -0.4142 -0.0333
29248W        W44379   8.005   3.230  14.050  0.0997 -0.1240  0.1753
29249W        W44380   9.612   1.864  12.915 -0.1507  0.0199 -0.2430
29250W        W44381   7.934   0.142  15.515 -0.0766  0.0847 -0.2069
29251W        W44382  17.210  10.072   5.242 -0.0583 -0.2213  0.0206
29252W        W44383   7.093   9.505  13.207  0.0717  0.1662 -0.0025
29253W        W44384   5.919   5.251   3.215 -0.0361  0.2199  0.1605
29254W        W44385   1.460  10.603  16.115  0.2994  0.2834  0.0755
29255W        W44386  16.985   3.114  13.156  0.0563  0.1086  0.2774
29256W        W44387   2.382  10.453   3.686  0.0661  0.1760 -0.0703
29257W        W44388   9.384   4.111   2.093 -0.1164 -0.0308 -0.2488
29258W        W44389   7.598  10.597   4.725 -0.0543 -0.1115  0.0585
29259W        W44390  16.249  18.127   1.339  0.1363 -0.2524 -0.1570
29260W        W44391   1.889  17.065  13.470 -0.0575 -0.0579  0.1322
29261W        W44392   1.646  11.747  12.862  0.0166 -0.0270  0.0406
29262W        W44393  13.190  16.981  11.359  0.1175 -0.2842 -0.0138
29263W        W44394   8.882   6.879   0.332  0.1607  0.0474  0.0263
29264W        W44395   3.012   7.420  15.228 -0.6647 -0.0080  0.1695
29265W        W44396  16.173  16.740   3.208  0.2606 -0.3256  0.3575
29266W        W44397   8.099   3.552   4.299 -0.2499  0.0594 -0.1171
29267W        W44398   2.969   3.908   4.149  0.1331 -0.3169  0.3519
29268W        W44399   2.613   7.531  10.625 -0.3169  0.0891 -0.0212
29269W        W44400   7.427   9.437   0.445  0.2021  0.3552 -0.0192
29270W        W44401   6.501   8.375   1.144  0.2988 -0.0225 -0.3917
29271W        W44402   6.310   4.543   4.520  0.2039 -0.0502  0.1428
29272W        W44403   0.946   0.467   4.143 -0.2595  0.0308  0.1319
29273W        W44404  15.871  14.923  13.309  0.2180 -0.2319 -0.1641
29274W        W44405  16.602  12.631  14.064 -0.1430 -0.0949  0.0110
29275W        W44406   1.795   9.840  10.255 -0.1390 -0.0635 -0.0742
29276W        W44407   9.789   3.685  14.795 -0.0469 -0.2919  0.0070
29277W        W44408   9.117  13.170   5.567  0.1101  0.0230  0.1526
29278W        W44409  14.051  14.586  14.483  0.1710 -0.0155  0.1554
29279W        W44410   9.187   8.612   0.947  0.0902  0.1307 -0.1063
29280W        W44411  18.121   5.156  15.094  0.1126  0.1274 -0.1216
29281W        W44412   2.118  15.395  11.877  0.4383 -0.0901 -0.1418
29282W        W44413   6.082  10.829   3.336  0.0710 -0.0260  0.1442
29283W        W44414   6.973  12.599  14.757  0.2174 -0.1767  0.1956
29284W        W44415   6.199   0.869   3.031  0.0981  0.1695 -0.0753
29285W        W44416   4.274   6.838   1.706  0.0012 -0.1902 -0.1085
29286W        W44417  17.203  17.218  11.622 -0.1509  0.2651 -0.1638
29287W        W44418   3.907   3.052   1.094 -0.0582  0.1000 -0.1405
29288W        W44419  15.694  13.271  16.144  0.2891  0.1116 -0.1831
29289W        W44420  11.913  15.690   0.411  0.3425 -0.0074  0.3522
29290W        W44421   6.389  16.821   0.532  0.1787 -0.1103  0.0899
29291W        W44422   8.772  15.368  11.616  0.2603  0.0120  0.2228
29292W        W44423   0.637   2.688   5.590 -0.1362  0.0007 -0.0554
29293W        W44424   7.319   5.407  11.932 -0.2695  0.1123  0.0102
29294W        W44425   0.191   3.970  14.748 -0.2479 -0.0538 -0.1537
29295W        W44426   3.720  17.569  14.061 -0.1958 -0.2166 -0.2924
29296W        W44427  13.915   0.754   0.246  0.2767  0.0752  0.0296
29297W        W44428   5.632  16.548   3.021 -0.3907 -0.1696 -0.2049
29298W        W44429   3.043  10.533  16.079  0.0182 -0.0863  0.0466
29299W        W44430   0.772   2.315   5.001  0.0563  0.0937 -0.2790
29300W        W44431  11.422   1.266   2.529  0.2052  0.0703 -0.0349
29301W        W44432  15.891  14.417   1.843 -0.1482  0.0125 -0.2677
29302W        W44433  16.760  16.391   0.569  0.1688 -0.0222  0.0717
29303W        W44434   7.488   4.752   1.688 -0.1579 -0.0382 -0.0794
29304W        W44435  12.696  15.662  11.615  0.0448 -0.1393 -0.1178
29305W        W44436   9.416   6.256  14.831 -0.2532 -0.2117  0.1757
29306W        W44437  15.135   3.359   1.356 -0.0456  0.1567  0.1838
29307W        W44438   6.810  11.683  12.465  0.0318  0.1550 -0.2056
29308W        W44439   1.283  14.400   0.055 -0.0983 -0.0533  0.0273
29309W        W44440  16.037   4.958  14.920  0.0724 -0.1213 -0.1888
29310W        W44441  13.687  13.876  14.825  0.2138 -0.0693 -0.1945
29311W        W44442  13.587  13.377   1.628 -0.2034  0.0293  0.2392
29312W        W44443   7.948   7.594  11.579 -0.1402  0.2128  0.2140
29313W        W44444  16.307   2.385  14.290 -0.4070 -0.0433  0.0530
29314W        W44445   0.378   4.941   1.589 -0.2579  0.2168  0.0808
29315W        W44446  17.204   3.108   3.598 -0.0359 -0.3897  0.2320
29316W        W44447   6.142   0.314  12.596  0.0017  0.1324 -0.1489
29317W        W44448  10.004   2.454   2.610  0.1459 -0.1494 -0.0851
29318W        W44449  13.634  11.059  12.279 -0.2252 -0.2639 -0.1375
29319W        W44450  13.725   5.057  13.944 -0.4775 -0.0193 -0.0848
29320W        W44451   4.735   3.272  14.067  0.3826 -0.1013  0.1161
29321W        W44452   9.386  16.259   2.276  0.0862  0.2131  0.1376
29322W        W44453   7.901   7.027  15.161  0.0466  0.0924  0.0122
29323W        W44454   6.355  16.670  15.756  0.1744 -0.1450 -0.1081
29324W        W44455  16.203  16.632  13.385 -0.0836  0.1660 -0.1885
29325W        W44456  17.423   6.955   1.656  0.0251  0.1392  0.1887
29326W        W44457  15.648   7.158  10.938 -0.1985 -0.0621 -0.0304
29327W        W44458   4.141   2.274  13.432  0.0447  0.3639 -0.4867
29328W        W44459   6.289  12.945  12.933 -0.1992 -0.1299 -0.2555
29329W        W44460  17.588   4.338   4.432  0.0211 -0.0575 -0.0600
29330W        W44461   1.937   5.137   0.483 -0.0009 -0.1158 -0.1073
29331W        W44462  18.036  12.124  13.219 -0.0572 -0.0735 -0.3846
29332W        W44463  12.388   4.643  10.987 -0.0748  0.2107  0.1760
29333W        W44464  11.853   8.510   0.150 -0.1004  0.0897 -0.0035
29334W        W44465   6.486  11.325   3.924 -0.0367 -0.1592  0.2612
29335W        W44466   0.379   0.131  14.127  0.1286 -0.0548 -0.1157
29336W        W44467  18.153  12.024   0.684 -0.0596 -0.1159 -0.0054
29337W        W44468   3.301   3.233  12.701 -0.1181 -0.0539  0.0638
29338W        W44469   8.082   2.804   5.314  0.2292  0.0716  0.1175
29339W        W44470   0.238  13.414  14.940  0.0715  0.1302  0.0455
29340W        W44471  13.791  10.319   2.723  0.1677  0.3176 -0.1818
29341W        W44472  17.816   8.016   3.065 -0.1030 -0.0060 -0.1753
29342W        W44473  15.433   6.085   2.048 -0.0602 -0.0063  0.0080
29343W        W44474  13.692   3.545   4.581  0.5912 -0.1990  0.3671
29344W        W44475   8.706  15.267  13.531  0.0933  0.0837 -0.1420
29345W        W44476  12.671   2.841   5.163 -0.0910  0.0527  0.0062
29346W        W44477  13.335   8.255   1.565  0.1553  0.1528 -0.2869
29347W        W44478   3.870   6.213  15.969  0.3395 -0.0858 -0.0574
29348W        W44479  16.424   8.418  12.656  0.1002  0.0465  0.2707
29349W        W44480  17.038  16.371  10.687  0.1825  0.0351 -0.1950
29350W        W44481  17.997   0.978  13.703 -0.3112  0.1595  0.2896
29351W        W44482   6.066   4.231   2.862 -0.0965 -0.0637  0.1032
29352W        W44483   3.371  12.346   2.656  0.0611 -0.1067 -0.1006
29353W        W44484   1.991  17.866   3.265 -0.1852  0.0568 -0.0769
29354W        W44485   3.220  12.556   4.433  0.0804  0.1196  0.0379
29355W        W44486   7.645   0.047   4.267 -0.0142 -0.0133 -0.2835
29356W        W44487   0.967  11.566  14.619 -0.3145  0.1795  0.1313
29357W        W44488   8.230   4.020   2.536 -0.0640  0.1221 -0.3702
29358W        W44489  17.194  14.595  15.777 -0.2350  0.4220 -0.1196
29359W        W44490   4.748   4.729   1.402  0.0132 -0.0772 -0.0047
29360W        W44491  11.868  18.207   1.939 -0.0443  0.1043 -0.5011
29361W        W44492  16.469   8.619   1.111  0.1053 -0.0801  0.2643
29362W        W44493   8.483   1.112   2.646 -0.0403  0.1073 -0.0557
29363W        W44494   2.891   0.531  12.858  0.2100 -0.0663  0.3705
29364W        W44495   9.776   6.917   4.605  0.0905 -0.0239  0.1016
29365W        W44496   6.383  17.562  13.332  0.0131  0.1293 -0.1217
29366W        W44497  11.847  11.236  15.936  0.1872  0.1362  0.0098
29367W        W44498   5.532  12.063   1.456 -0.0353 -0.1118  0.2017
29368W        W44499   9.258  16.396   5.236 -0.0347  0.1207  0.0043
29369W        W44500   7.815   6.269   4.788 -0.1440 -0.3891  0.1836
29370W        W44501  18.351   8.773  13.803  0.1291  0.1555 -0.2248
29371W        W44502   6.041   8.280  14.832  0.1290 -0.2361  0.0258
29372W        W44503  11.260   8.626  15.433 -0.0066  0.0289  0.0829
29373W        W44504  14.926   1.003  14.182  0.0694  0.0937 -0.0214
29374W        W44505   9.222  11.919   3.714  0.0468  0.1704  0.1305
29375W        W44506  10.635   3.210  12.972 -0.0875  0.1725 -0.2472
29376W        W44507  10.496  10.564   4.226 -0.0101  0.2461  0.0002
29377W        W44508   6.298  10.030  16.061 -0.1619  0.0254 -0.1132
29378W        W44509  11.877  14.208   3.584 -0.0128 -0.2793  0.2100
29379W        W44510   7.128  11.830  11.384 -0.2149 -0.1955 -0.0634
29380W        W44511  11.184   4.725   4.697 -0.0189 -0.0503  0.1698
29381W        W44512  13.055  15.047   5.867  0.1060  0.0541  0.3200
29382W        W44513  14.719   0.043  16.035  0.1261  0.0759  0.0939
29383W        W44514   7.927   5.892  11.791  0.0502  0.0441 -0.0642
29384W        W44515  13.711   7.319  15.094 -0.2926 -0.1495 -0.0438
29385W        W44516   3.978  11.235   1.332 -0.1988  0.1238  0.0277
29386W        W44517   1.189   4.571  14.070  0.2420 -0.2171 -0.2326
29387W        W44518   4.860   5.990   5.147  0.1646  0.0271 -0.2673
29388W        W44519  10.369  15.351   3.512  0.1131 -0.1059  0.0879
29389W        W44520  14.903   2.482  14.154 -0.0936  0.0957 -0.0992
29390W        W44521   1.591   5.330   2.666 -0.0110  0.0842  0.1250
29391W        W44522  15.564  17.062   1.886  0.0355 -0.0689  0.2087
29392W        W44523   6.810   6.213   4.750 -0.0654  0.0594 -0.0515
29393W        W44524   6.523  15.330   3.842  0.1011 -0.4371  0.0080
29394W        W44525   1.455  14.198  14.033 -0.4750  0.0095  0.0900
29395W        W44526   9.271   0.240  12.989 -0.2133  0.2184 -0.0438
29396W        W44527   0.597   5.079   4.083 -0.1484  0.0458 -0.0084
29397W        W44528  10.618   9.349  12.580 -0.0355 -0.1156  0.0610
29398W        W44529   7.135   8.923   1.442 -0.1225 -0.1591 -0.0962
29399W        W44530  17.640  17.223  15.850  0.1483 -0.1850 -0.1402
29400W        W44531   1.892  17.330  12.015 -0.1631  0.0646 -0.0767
29401W        W44532   5.146  15.572   3.936 -0.0018  0.1729 -0.2633
29402W        W44533  15.287   1.736  13.580 -0.3837  0.1381 -0.0501
29403W        W44534  16.587   3.211   0.341  0.2567 -0.2144  0.1384
29404W        W44535   7.625  14.150   1.269  0.1337 -0.1910  0.0105
29405W        W44536   8.991   1.202  12.609  0.0467 -0.0258  0.0533
29406W        W44537  17.149  18.135   1.861  0.1088 -0.0164 -0.0153
29407W        W44538   5.714   0.768   2.886 -0.2089  0.1738 -0.0243
29408W        W44539   5.511  16.053   0.408  0.1298  0.3786 -0.1625
29409W        W44540   8.596   8.866   3.359  0.2034  0.4816  0.0885
29410W        W44541  16.815   5.423  11.607 -0.1726  0.0870  0.0868
29411W        W44542  13.269   2.224   0.543  0.1011 -0.0455 -0.0520
29412W        W44543   8.519  16.833  15.437  0.1234  0.0205  0.0713
29413W        W44544  14.229   4.992  11.802  0.0617 -0.3768  0.1153
29414W        W44545   0.634  12.113  14.680  0.1604 -0.0175  0.4113
29415W        W44546  16.671   2.466   3.332  0.0769  0.1752  0.3764
29416W        W44547  16.852  10.119  14.474 -0.1676  0.0027  0.0562
29417W        W44548  17.195  11.013  14.115 -0.0262  0.2728  0.0562
29418W        W44549   6.395   8.452   2.451  0.1018  0.1268  0.0951
29419W        W44550   3.805   7.302   1.599  0.0549  0.0436 -0.0897
29420W        W44551   4.192  17.216  14.151  0.1189  0.1826  0.3090
29421W        W44552  13.763   0.508  13.041 -0.0308 -0.0322 -0.3712
29422W        W44553  14.924   8.182   0.772 -0.0892 -0.0421 -0.1211
29423W        W44554  12.024   6.137  11.684  0.1336  0.1359 -0.1842
29424W        W44555   1.779  12.602  14.040  0.0338  0.1260 -0.0048
29425W        W44556   8.824  11.530   1.970 -0.2072  0.1400  0.1346
29426W        W44557   3.985  13.232   2.964 -0.1900  0.2572 -0.3118
29427W        W44558  14.339   3.536  13.058  0.0785 -0.1897  0.1218
29428W        W44559  13.206   5.679   2.512  0.0555 -0.3632 -0.0443
29429W        W44560  16.164  11.296   1.493 -0.2304 -0.0947  0.2947
29430W        W44561   7.597   8.186  11.021  0.2972 -0.0357  0.1847
29431W        W44562  16.267   7.095  12.321  0.3698  0.1457  0.2000
29432W        W44563  10.415  10.129   0.527 -0.1228  0.2192  0.0905
29433W        W44564   9.696   0.884   2.190  0.2771 -0.1253 -0.0480
29434W        W44565   0.778  16.761   2.342  0.1355  0.0106  0.1637
29435W        W44566   6.137  18.008  10.966 -0.0614  0.1564  0.2048
29436W        W44567  18.034   6.708  12.570 -0.0761 -0.0450  0.1031
29437W        W44568  17.948  10.900  15.736 -0.2427 -0.0557  0.2983
29438W        W44569  12.012   0.416  13.287 -0.1498 -0.1411 -0.0181
29439W        W44570   4.334   2.691   1.711 -0.0187  0.0454 -0.0810
29440W        W44571  13.124   7.174   4.443  0.2041  0.2478  0.1970
29441W        W44572   7.298   3.565   2.009 -0.1625  0.2371 -0.1900
29442W        W44573  10.360   4.677  13.653  0.0209  0.2157 -0.1952
29443W        W44574   1.717  16.063   4.613 -0.0535  0.2386 -0.2294
29444W        W44575   9.071   5.397   3.647  0.2867  0.2165  0.0380
29445W        W44576  13.819   7.312   6.024  0.1358  0.4278  0.4279
29446W        W44577   6.123   8.007  13.993  0.1083 -0.0681 -0.2723
29447W        W44578   3.872  16.712  15.411 -0.0046 -0.1696  0.3623
29448W        W44579   3.292   1.447  12.275  0.4037  0.1461 -0.3465
29449W        W44580   7.035   4.403  11.650 -0.0006  0.3992 -0.3324
29450W        W44581   3.670  15.035  14.331  0.1685 -0.0601  0.0347
29451W        W44582  12.565   7.305   2.326  0.1283 -0.1591 -0.0551
29452W        W44583  10.172  10.313  13.492 -0.1542 -0.1108 -0.2792
29453W        W44584  11.855   7.581   4.439 -0.1241  0.0602  0.0153
29454W        W44585  15.700   4.917  12.350 -0.3258  0.0963 -0.0753
29455W        W44586  17.901   7.066   3.632  0.0159 -0.1311 -0.0801
29456W        W44587  17.414   9.406  14.967 -0.1473 -0.0638 -0.4097
29457W        W44588  12.963  14.210  15.994 -0.0453 -0.1354  0.0749
29458W        W44589   2.156   0.575  12.925 -0.2878 -0.0198 -0.2700
29459W        W44590  11.180  14.115   3.900  0.0912 -0.1851 -0.0782
29460W        W44591  11.982  15.196   3.151  0.0271  0.1020  0.0662
29461W        W44592   4.468  14.775  11.378 -0.2950  0.1186  0.1276
29462W        W44593   0.812   6.995   0.875  0.0753  0.0008  0.2169
29463W        W44594  16.372   5.811   1.625 -0.2993  0.0360  0.0699
29464W        W44595  14.662  13.460  11.232 -0.2133 -0.0103 -0.1277
29465W        W44596   4.765   0.634   3.449 -0.1563  0.2426  0.1565
29466W        W44597   1.722   1.532   5.707 -0.2589  0.4121 -0.2751
29467W        W44598   5.129   6.628   1.982 -0.0791  0.1133  0.1860
29468W        W44599  13.995  16.733   5.028 -0.0269 -0.1854 -0.1409
29469W        W44600   2.729  14.590   2.101  0.0410  0.1125  0.0656
29470W        W44601  10.420  15.891  15.636 -0.0058  0.0203  0.3148
29471W        W44602   4.671   6.962   0.759 -0.0217 -0.2149 -0.1218
29472W        W44603  16.904   9.521  12.123  0.1382 -0.0034  0.0226
29473W        W44604  16.321   8.278  11.185 -0.2223  0.3835 -0.2977
29474W        W44605   7.865   8.917  13.638  0.0344  0.1273 -0.0113
29475W        W44606   8.350   9.914  15.398 -0.0116  0.0212 -0.1844
29476W        W44607   0.247  13.786   5.426 -0.0497  0.4193 -0.1134
29477W        W44608  17.887  10.286  11.841  0.2910  0.2366  0.1493
29478W        W44609  15.912   3.940  15.339  0.0006  0.1406  0.3210
29479W        W44610   4.560   1.914  16.036  0.1260 -0.0110  0.0805
29480W        W44611   4.674   8.143  15.584 -0.0499  0.0780 -0.0549
29481W        W44612  12.975  14.105   1.764  0.3586  0.1525  0.0309
29482W        W44613  10.041   8.990   3.947  0.3132  0.1759 -0.3537
29483W        W44614  13.533  11.121  11.794 -0.1568  0.0788  0.1384
29484W        W44615  13.281  17.909   5.309 -0.1027  0.1610  0.1567
29485W        W44616   6.504   1.365   4.692 -0.0412 -0.2693 -0.1636
29486W        W44617  11.525  16.097   0.497 -0.0974 -0.0546  0.0422
29487W        W44618  10.317   7.440  13.736 -0.0182 -0.0900  0.1628
29488W        W44619  18.284  12.972  13.618 -0.1255  0.0497  0.0933
29489W        W44620   6.447   0.889   5.612  0.1404 -0.3291 -0.0932
29490W        W44621  15.849   9.661  15.788  0.0706 -0.1875 -0.1718
29491W        W44622   9.118   9.891  13.012  0.0547 -0.0085  0.0989
29492W        W44623   3.472   0.951   2.466 -0.0279  0.0182  0.0920
29493W        W44624  15.264   6.547   2.186  0.0104 -0.0468 -0.0875
29494W        W44625  13.789   1.112  14.736 -0.1324  0.0524  0.2097
29495W        W44626   1.770  16.476   3.778  0.0115 -0.1649  0.1550
29496W        W44627  12.699  12.374   2.613  0.1158  0.2711  0.2311
29497W        W44628  18.289   6.686  13.989  0.0135  0.0348 -0.2587
29498W        W44629  13.175   6.403  11.274 -0.1827  0.0269 -0.0980
29499W        W44630   0.272   8.411   5.379  0.1981 -0.1240 -0.1040
29500W        W44631  14.261  10.492   2.953 -0.1631 -0.1387  0.0353
29501W        W44632  10.306   5.337   5.073 -0.1177 -0.1419 -0.0372
29502W        W44633  15.177  16.720  13.852 -0.1159 -0.3726  0.0960
29503W        W44634   5.395   3.103   1.426  0.0420 -0.0828  0.1724
29504W        W44635   9.987  10.070  12.601 -0.0250  0.0957 -0.2218
29505W        W44636   2.818  12.527   0.283  0.0463 -0.0302  0.1280
29506W        W44637   5.284   8.129   0.493  0.1571  0.1259  0.0279
29507W        W44638   2.177  18.206   2.974  0.1885  0.2714 -0.1121
29508W        W44639   7.842  15.108  15.680  0.2059 -0.1182  0.0629
29509W        W44640   7.404  17.458   1.544  0.0282  0.2558 -0.3655
29510W        W44641   6.393   1.553   1.454 -0.1433 -0.1840  0.2280
29511W        W44642   1.606   3.126  11.549 -0.2633  0.1517  0.2143
29512W        W44643   7.283  13.848   2.716 -0.2220 -0.1098  0.1050
29513W        W44644  11.733   3.331  14.555  0.1670 -0.2520 -0.2066
29514W        W44645   8.103   2.660   4.837  0.1088  0.1958  0.2349
29515W        W44646   0.115  14.981  14.739  0.1203 -0.0319 -0.0337
29516W        W44647  14.190   4.324   0.736  0.2538 -0.1692  0.0423
29517W        W44648  14.701   0.247   5.486 -0.2030  0.1899 -0.1243
29518W        W44649  16.603  16.947  13.022  0.0327 -0.0183 -0.0197
29519W        W44650   7.941  15.312   1.351  0.1450  0.0325 -0.1681
29520W        W44651   0.609   3.013  14.923  0.1431  0.0362  0.4094
29521W        W44652   7.258   9.930   1.806 -0.2353  0.1831  0.3174
29522W        W44653   5.830  17.349  15.486 -0.1267 -0.3206  0.0700
29523W        W44654  12.184   8.092  13.997 -0.3157 -0.1295 -0.3166
29524W        W44655   4.482   7.334  15.563  0.0124 -0.2517 -0.1008
29525W        W44656  16.299  14.402  14.890  0.2061 -0.1363  0.3204
29526W        W44657   0.408   3.426  14.628 -0.0124  0.0381 -0.0656
29527W        W44658   2.876   0.175  11.758 -0.0599  0.1456  0.2079
29528W        W44659  17.223   4.615  10.798 -0.2978 -0.0781  0.0924
29529W        W44660   2.244   9.455   0.101 -0.1032 -0.1501 -0.0632
29530W        W44661  11.052  17.704  11.910 -0.0743 -0.0551  0.0280
29531W        W44662  14.633   2.582  15.564  0.1496 -0.2964  0.1472
29532W        W44663   8.259  13.900  10.217 -0.2146 -0.2648 -0.1268
29533W        W44664  11.453   1.055   0.495  0.0752  0.1303 -0.0011
29534W        W44665  17.442   3.608  11.858 -0.1219  0.1071  0.0273
29535W        W44666   0.654   0.443  10.626 -0.0194 -0.0427 -0.0655
29536W        W44667   7.305   5.009   3.278 -0.1214  0.0986  0.2736
29537W        W44668  17.859   1.494  12.365  0.0900 -0.0046 -0.1500
29538W        W44669   0.077   9.195  12.848  0.0124 -0.0831 -0.0997
29539W        W44670   1.235  11.005  13.581  0.3939 -0.0899 -0.0080
29540W        W44671   6.944   6.054  11.414  0.0127  0.2524 -0.1254
29541W        W44672  14.285  14.323   0.156  0.0182 -0.0618 -0.2202
29542W        W44673   3.804  17.535   5.494 -0.1466 -0.1730  0.0004
29543W        W44674   2.142   3.302   0.853 -0.0111  0.0431  0.2788
29544W        W44675   0.866   6.158  11.136 -0.3032 -0.0213 -0.1422
29545W        W44676   9.933  16.792  11.656  0.3468 -0.3158 -0.0619
29546W        W44677   9.416  17.501   1.294  0.1128  0.0176  0.1887
29547W        W44678  11.070   7.012   3.350  0.3499 -0.3362 -0.0628
29548W        W44679  12.026   4.359   3.098 -0.1934  0.0176  0.1132
29549W        W44680  12.110  10.355   1.775 -0.2328 -0.0256 -0.3277
29550W        W44681  13.093  15.859   3.004  0.1249  0.0994 -0.2666
29551W        W44682   4.407  17.567  12.269 -0.2208  0.0911 -0.1091
29552W        W44683   9.625   6.789  11.584  0.1320 -0.0043 -0.0094
29553W        W44684   6.718   2.865  10.866  0.2691  0.0303  0.0279
29554W        W44685   5.190  16.208  13.833 -0.1693  0.3807  0.0998
29555W        W44686  14.740  11.323   4.791 -0.2406  0.1475  0.1325
29556W        W44687   5.778  12.553  12.154  0.4385 -0.3194 -0.2567
29557W        W44688   3.542   2.154   1.079  0.0169 -0.4336 -0.1436
29558W        W44689  16.367  15.991   1.247 -0.1452 -0.1933  0.1066
29559W        W44690  12.667  10.156   0.215  0.2824  0.2700  0.0095
29560W        W44691   5.080   7.405  12.182  0.2379 -0.2110  0.0409
29561W        W44692   8.272  14.297   0.218 -0.1362 -0.1014 -0.4548
29562W        W44693   6.005  10.683  15.436  0.3205 -0.0158 -0.0813
29563W        W44694  16.752   7.922   5.529  0.1412 -0.1898 -0.1189
29564W        W44695  13.364  15.098  15.700 -0.1972  0.1645  0.0718
29565W        W44696   5.268  17.554   1.615  0.2554  0.2494  0.2052
29566W        W44697  17.372  13.443   3.673  0.0014 -0.1160  0.3853
29567W        W44698   1.001   1.580   2.094 -0.1666  0.0617 -0.2898
29568W        W44699   5.389   7.610   3.407  0.1163  0.3441 -0.3919
29569W        W44700   5.225  16.446  15.599 -0.1295  0.1014 -0.1470
29570W        W44701  16.328  16.322   4.184 -0.0283  0.0529 -0.0730
29571W        W44702  16.700   5.603   0.364  0.1489 -0.1731  0.1469
29572W        W44703   7.755   8.949  14.707 -0.1470 -0.2908  0.1154
29573W        W44704   8.010  10.617  14.819  0.0375  0.0340 -0.2341
29574W        W44705  15.632   4.662  15.137 -0.1843  0.0038 -0.1274
29575W        W44706  12.749  16.120   2.206 -0.1586  0.1240  0.0723
29576W        W44707  16.551   5.823  10.916 -0.1715 -0.4598 -0.1452
29577W        W44708  11.368  12.365  13.636  0.1795  0.0680 -0.1264
29578W        W44709  12.501   9.974  12.120 -0.0717 -0.2346 -0.0368
29579W        W44710   4.670  10.786   5.208 -0.1055  0.5025  0.1317
29580W        W44711   9.340   3.079   3.635 -0.2079 -0.3561  0.1086
29581W        W44712   5.675  13.504  16.009 -0.2582 -0.1624 -0.1945
29582W        W44713   8.102   3.093   2.013 -0.2139 -0.0300  0.0955
29583W        W44714   9.357  12.353   5.137 -0.2443  0.0502  0.3686
29584W        W44715  13.885   2.177  13.894 -0.1518 -0.0409  0.0664
29585W        W44716   7.686  14.947  11.700 -0.0826  0.1572 -0.1077
29586W        W44717  12.133  18.212   4.014  0.2419  0.2933  0.1164
29587W        W44718  18.311   8.529  11.138 -0.0821 -0.2107 -0.0918
29588W        W44719  11.921  14.779  10.750 -0.1086 -0.0100 -0.2672
29589W        W44720  13.287  15.179  14.312  0.0609  0.1491  0.0759
29590W        W44721   4.116  10.529  14.510 -0.0495 -0.1970 -0.0859
29591W        W44722   7.933  14.895   0.503  0.1796  0.1800 -0.1131
29592W        W44723   6.024   3.691   5.093  0.1704 -0.1763  0.1762
29593W        W44724  13.304  18.101   3.495 -0.0118 -0.0143 -0.0805
29594W        W44725  14.494   0.435  12.351  0.2164 -0.0989  0.1664
29595W        W44726   7.026   2.699  13.104  0.1593 -0.0944  0.0347
29596W        W44727   5.910   7.600   0.750 -0.0668 -0.1497 -0.0451
29597W        W44728  14.077  10.681   2.512 -0.1885  0.1274  0.1002
29598W        W44729   3.057   9.702  15.058  0.0694 -0.0714  0.0649
29599W        W44730  13.472   6.395   4.816 -0.0721 -0.0340 -0.2646
29600W        W44731   0.592   2.755  11.678  0.0871 -0.0322 -0.0383
29601W        W44732  13.913   1.157   4.194 -0.0275 -0.2809  0.1305
29602W        W44733  11.192   2.362  12.066 -0.1343  0.2593  0.0631
29603W        W44734  16.429   3.309   4.717 -0.0192  0.0266 -0.1645
29604W        W44735  11.910   8.371  14.363  0.0020 -0.1856 -0.1370
29605W        W44736  14.366  12.844  12.765  0.2396  0.0437 -0.0064
29606W        W44737  12.848  16.330   1.371 -0.0653 -0.0821  0.1398
29607W        W44738   0.471   5.525   3.906  0.1231 -0.1029  0.0779
29608W        W44739   1.994  13.533   5.106 -0.0896 -0.2513 -0.0238
29609W        W44740   7.102   5.939   4.411 -0.1176  0.0733 -0.0325
29610W        W44741   2.751   0.159   1.112  0.1724  0.0788 -0.0732
29611W        W44742   6.061   5.306  11.709  0.0673 -0.0670  0.0833
29612W        W44743   5.341  17.008   4.208 -0.0925 -0.0198  0.0996
29613W        W44744  10.763   9.673  14.909  0.0832 -0.3098 -0.1435
29614W        W44745   6.072  11.130   5.460 -0.2691 -0.0687 -0.0563
29615W        W44746  14.405   2.391  12.089  0.1315 -0.1357 -0.0773
29616W        W44747  17.703  13.844  11.724 -0.1740  0.0275  0.1795
29617W        W44748  16.726  14.824  13.632 -0.2125  0.2365  0.0328
29618W        W44749  13.715   9.769   1.466  0.3130 -0.0099 -0.0820
29619W        W44750   0.779   5.709  10.920 -0.0433 -0.0959  0.2708
29620W        W44751   0.924   2.678  12.790 -0.0886 -0.2488 -0.0818
29621W        W44752   4.736  15.822   5.541  0.2563  0.1885  0.2142
29622W        W44753  17.457   3.231  15.253  0.1012  0.2450 -0.0943
29623W        W44754  11.762  14.919   3.946 -0.0929  0.0851  0.0759
29624W        W44755   6.303   8.663   5.225  0.1112 -0.0596 -0.1757
29625W        W44756  14.779   6.608  14.110 -0.0135  0.0171  0.0410
29626W        W44757   2.372  12.931   4.238 -0.2936  0.2248  0.4684
29627W        W44758   3.381   4.989  14.270 -0.1537 -0.2237  0.1366
29628W        W44759   2.872   1.999  13.080  0.1871  0.3764  0.0528
29629W        W44760   3.550   4.263   3.902  0.0479 -0.3428  0.2458
29630W        W44761  15.622  14.445   5.000  0.0719  0.2017  0.0777
29631W        W44762   4.937   1.221   4.499  0.0651 -0.2392 -0.1830
29632W        W44763   2.040  17.380   4.550  0.1028  0.1151  0.1998
29633W        W44764  12.399  12.247  13.976  0.1897 -0.0540 -0.0564
29634W        W44765  10.087   9.890  15.962  0.0032  0.2529  0.0720
29635W        W44766   5.040  11.927   4.465 -0.0321 -0.1418  0.1321
29636W        W44767   3.773  12.648  12.635 -0.0121  0.1085  0.0011
29637W        W44768   8.900   9.171   5.776  0.1787  0.2459 -0.3202
29638W        W44769   5.778  17.198   4.476 -0.0034  0.2715  0.0889
29639W        W44770  17.510  16.070   2.671  0.0778 -0.0439 -0.0615
29640W        W44771  10.695   0.779   3.257 -0.0804 -0.0499 -0.1048
29641W        W44772  13.388  11.875  12.807 -0.1704  0.1291  0.0590
29642W        W44773  11.544  10.080  11.923 -0.0908 -0.0080 -0.0732
29643W        W44774   7.538  11.573  14.395  0.0612  0.4357  0.1861
29644W        W44775  11.578  13.216   4.497 -0.1995 -0.1746 -0.2993
29645W        W44776  13.617  17.520   1.662  0.3641 -0.1984  0.3426
29646W        W44777   0.982  11.270   1.721 -0.1722 -0.0175  0.0023
29647W        W44778   1.806   0.541  10.957  0.2715  0.1854  0.0492
29648W        W44779  17.096  16.830  13.008  0.2660 -0.2325  0.0912
29649W        W44780  16.942  12.768   2.567  0.1714  0.1998  0.1518
29650W        W44781   5.440   2.254  12.556  0.0344 -0.2746 -0.2251
29651W        W44782   9.054  15.465   0.167 -0.1139 -0.0893  0.2867
29652W        W44783   8.551  16.052   0.579 -0.2565 -0.2237  0.1189
29653W        W44784   3.579   4.548  14.177  0.0245  0.0178 -0.1479
29654W        W44785  13.379  17.808   4.666 -0.1339  0.1755  0.1690
29655W        W44786   8.912  11.683  10.888  0.0478 -0.1546 -0.0510
29656W        W44787   8.951  15.855   2.198  0.0069  0.1203  0.1809
29657W        W44788  11.609  11.242   1.193 -0.0697 -0.1460  0.0364
29658W        W44789   7.674   6.272  12.920 -0.2959 -0.1190  0.0120
29659W        W44790   8.035  11.299  13.763  0.0640 -0.0558 -0.0477
29660W        W44791   7.745   6.884   4.270  0.3041 -0.0622 -0.0250
29661W        W44792  12.031   8.116  12.240 -0.1407 -0.2449 -0.2504
29662W        W44793  13.493  14.128  10.966  0.1187 -0.2435 -0.0500
29663W        W44794   8.146  10.210   2.397  0.2274  0.1847 -0.1940
29664W        W44795  17.558   5.059   0.150 -0.0604  0.0532  0.0952
29665W        W44796   4.195  14.677   3.150 -0.0445  0.1706  0.2163
29666W        W44797   6.664   7.535  13.642  0.1505 -0.0156  0.1652
29667W        W44798   4.209  14.572   4.581  0.2266  0.2402 -0.3134
29668W        W44799   6.344  10.749  14.297 -0.0184  0.2115  0.0988
29669W        W44800  15.539  10.267  12.845 -0.1143 -0.0141 -0.0346
29670W        W44801   2.662   6.454   1.309 -0.2770 -0.0759 -0.0879
29671W        W44802  16.429  15.413   3.852  0.0035 -0.2698 -0.2444
29672W        W44803   0.885   8.724  15.317  0.1219  0.0717 -0.0157
29673W        W44804   4.735   2.089   3.572  0.1284 -0.3057 -0.0861
29674W        W44805   3.528  16.996  16.107 -0.1564  0.0911 -0.1954
29675W        W44806   9.129   5.953   5.359 -0.1517  0.1182  0.2307
29676W        W44807  17.584  17.464   3.636 -0.1835 -0.3539 -0.0602
29677W        W44808  11.626  14.249  15.431 -0.2002  0.0966  0.2755
29678W        W44809  14.499   2.127   3.030  0.2208  0.0507 -0.1282
29679W        W44810   5.101   8.695  13.088  0.0002  0.2653  0.1463
29680W        W44811   6.455  15.682  15.609 -0.0110 -0.0448 -0.2008
29681W        W44812   2.222   5.610  15.868  0.2300  0.1031  0.0279
29682W        W44813  10.754  11.890  10.790 -0.0169  0.0394 -0.0503
29683W        W44814   8.875   0.218  11.086 -0.2417 -0.0307 -0.0554
29684W        W44815  15.061   7.505   4.037  0.2743 -0.1983  0.2228
29685W        W44816  15.078  11.762  11.619 -0.1760 -0.0063 -0.0830
29686W        W44817  15.888  13.284  14.558  0.0344  0.0854 -0.1151
29687W        W44818  17.188  13.176  11.857  0.2107  0.0159 -0.1515
29688W        W44819  18.305   0.255   6.742 -0.1077  0.2669 -0.0186
29689W        W44820   4.021   1.101  12.150 -0.1699  0.1561  0.0459
29690W        W44821   4.779   6.597   3.374 -0.0086 -0.0171  0.3142
29691W        W44822  13.506  13.626  14.042  0.0573 -0.4437 -0.1934
29692W        W44823   8.046  18.271  10.167 -0.1794 -0.0700 -0.0074
29693W        W44824   2.425   6.527   3.222 -0.2226 -0.1599  0.2780
29694W        W44825   6.277   5.787  13.545  0.0340  0.0154 -0.2443
29695W        W44826   7.865  17.443  15.922 -0.1674  0.0040 -0.4248
29696W        W44827  12.923  16.657  12.483 -0.2187  0.0778  0.1417
29697W        W44828  16.671  16.895   1.203  0.0755 -0.1458 -0.3015
29698W        W44829   3.366  11.964   1.644 -0.0375 -0.2632  0.2567
29699W        W44830   1.617  10.085   9.775 -0.0485  0.2646  0.1249
29700W        W44831  12.202   2.749  11.440 -0.0791  0.3685 -0.1737
29701W        W44832  16.115  16.841  10.508  0.1977 -0.0983  0.1679
29702W        W44833  17.528  17.529  12.480 -0.0877  0.1832  0.1118
29703W        W44834   4.125  15.806   4.114 -0.2039  0.1055  0.0813
29704W        W44835  10.978   3.146   2.257 -0.0281  0.0038  0.0855
29705W        W44836  17.513  17.664   2.680  0.0129 -0.2555  0.1119
29706W        W44837  17.629   2.393  12.599  0.1186 -0.3216  0.0191
29707W        W44838   0.762   1.579   1.216 -0.1583  0.2773 -0.3779
29708W        W44839  15.346   4.671  14.041 -0.2308 -0.0307  0.2006
29709W        W44840  16.532   9.018  15.969  0.0987  0.0192 -0.0591
29710W        W44841   8.693   4.866   4.402  0.3518  0.1605  0.0245
29711W        W44842   1.169   8.046   0.255  0.1730  0.1753  0.1691
29712W        W44843   8.719   8.714   2.854  0.0299  0.1864  0.2370
29713W        W44844   9.040  17.278  12.158  0.2004 -0.4413 -0.0008
29714W        W44845  12.129   0.015   0.104  0.0894  0.0020 -0.1217
29715W        W44846  17.443  10.879  12.905 -0.0242  0.0494 -0.1572
29716W        W44847   1.763   7.217   2.298 -0.0078 -0.0293  0.2093
29717W        W44848   1.889   1.511  14.013 -0.0929  0.0683 -0.2427
29718W        W44849  17.340   0.821   0.469  0.0918  0.1244 -0.1361
29719W        W44850   2.465   9.332  15.775 -0.1438  0.0755  0.3342
29720W        W44851   4.787   0.464   1.083  0.0884  0.2736 -0.0919
29721W        W44852  13.655  10.404   0.545 -0.1243 -0.1587  0.0439
29722W        W44853   0.662  10.576   1.485  0.1160  0.3468 -0.1930
29723W        W44854  17.341   6.907  11.595  0.0830  0.0100  0.1051
29724W        W44855  10.834  14.165  12.043  0.0450  0.0973  0.0525
29725W        W44856   2.845   1.822  14.018 -0.0704  0.2484 -0.0654
29726W        W44857   3.432   9.735   1.764  0.0604  0.0622  0.0647
29727W        W44858   5.798  15.830   0.805  0.1037  0.1999 -0.2144
29728W        W44859   2.074  18.060  14.162  0.1944  0.0767  0.3478
29729W        W44860  17.044  16.223  11.163  0.0345 -0.0734  0.1170
29730W        W44861  12.805  11.023   2.697  0.3125 -0.1316  0.2259
29731W        W44862   6.818   7.642   4.820 -0.1363  0.1281  0.3928
29732W        W44863   8.335   8.832   0.817  0.2223  0.2920 -0.2298
29733W        W44864   5.526   0.974  12.338  0.1809  0.1685 -0.0507
29734W        W44865   4.995   5.673  14.706  0.0590 -0.2105 -0.2983
29735W        W44866  15.573  14.272  13.877  0.2773 -0.2857  0.1271
29736W        W44867  18.299  16.286  10.309  0.1785  0.1212 -0.0807
29737W        W44868  12.984   4.504  15.839 -0.1103  0.0246 -0.0510
29738W        W44869  18.123  17.171   6.374  0.1014 -0.1640 -0.2992
29739W        W44870   9.897  12.203   4.380 -0.1810  0.1456  0.1194
29740W        W44871  13.554   1.100  12.896  0.0788  0.1197 -0.0323
29741W        W44872  17.084   8.490  11.560 -0.0625 -0.0626  0.0783
29742W        W44873  17.922  17.083  13.229  0.4147  0.0278  0.2199
29743W        W44874  16.609  14.574   1.223  0.2019  0.2890 -0.0771
29744W        W44875  16.680  12.072   5.149 -0.3849 -0.2550  0.1360
29745W        W44876  10.411  10.446  14.348 -0.0066  0.0910 -0.3366
29746W        W44877  18.064  15.026  14.439 -0.1854 -0.1662 -0.0694
29747W        W44878   8.096  10.118  12.933  0.2175 -0.1684  0.0840
29748W        W44879   3.336   0.126  10.853  0.1985 -0.0279  0.3334
29749W        W44880   8.125   9.889  11.271 -0.1387  0.2360  0.3295
29750W        W44881   3.611   1.074   2.927  0.0525 -0.0287 -0.2640
29751W        W44882  12.165   3.663  15.736 -0.0453 -0.2187  0.2118
29752W        W44883  12.307   4.730   4.995  0.0862  0.1117  0.2862
29753W        W44884   4.410  15.339  11.991 -0.1343 -0.0805 -0.2199
29754W        W44885   2.499  17.685   3.396  0.0029 -0.0451 -0.3146
29755W        W44886  16.767  15.575  11.051 -0.2247 -0.2324 -0.1730
29756W        W44887   1.752   1.435  11.354 -0.0390 -0.2502  0.0737
29757W        W44888  13.957  13.975  15.651 -0.0431  0.0568 -0.0964
29758W        W44889  13.247  10.668  13.581  0.1782 -0.1381 -0.0667
29759W        W44890   1.020  17.242   1.470  0.4071  0.2337 -0.2751
29760W        W44891   0.960  18.018  15.293  0.2361  0.3591 -0.0422
29761W        W44892  10.409   3.625  12.016  0.2567  0.2707 -0.0692
29762W        W44893  14.452   1.330   2.950 -0.0984  0.0694 -0.0487
29763W        W44894   7.311  16.393   3.384 -0.3918  0.3960  0.4172
29764W        W44895   9.984   6.820   5.024 -0.0495 -0.0086  0.1482
29765W        W44896   6.474   1.731   2.254  0.1717  0.1567  0.0372
29766W        W44897  13.406   1.800  15.011 -0.1833 -0.2693  0.0232
29767W        W44898   9.119  14.922   2.189  0.2799  0.1642  0.1573
29768W        W44899  11.947   0.126   1.480  0.1691 -0.3929 -0.1038
29769W        W44900  17.723  12.152  14.905  0.1573  0.0963  0.3522
29770W        W44901   7.110   0.504  15.766 -0.2423  0.2445 -0.0357
29771W        W44902  12.293  11.073   4.064  0.0821  0.3772 -0.1375
29772W        W44903   5.540   8.400  13.141 -0.0254  0.2160  0.0688
29773W        W44904  12.830  14.232  14.475 -0.1391  0.1246 -0.3000
29774W        W44905   1.823  16.398  11.157  0.0424 -0.2720 -0.0085
29775W        W44906   4.845   8.757   5.014  0.0632  0.4404  0.1344
29776W        W44907   4.284  17.371  11.058 -0.3603  0.0639 -0.0496
29777W        W44908   1.073  14.043  10.939  0.3271 -0.1041 -0.0179
29778W        W44909   3.522   3.075  12.076 -0.0176 -0.0619  0.0060
29779W        W44910   0.117   1.939  11.931 -0.1155  0.1049 -0.2332
29780W        W44911  18.244   9.707  10.204  0.1184  0.1710 -0.1267
29781W        W44912  17.545  16.815   0.995  0.0125  0.0249 -0.4752
29782W        W44913   1.264  14.751   4.197 -0.2215 -0.0847 -0.1273
29783W        W44914  11.290   6.399   1.816  0.1718  0.2341 -0.3475
29784W        W44915  14.482  18.099   3.971 -0.0973  0.0331  0.1893
29785W        W44916   3.976   9.398  13.736  0.5031 -0.1923  0.2427
29786W        W44917   1.198  11.701  14.140  0.1002  0.0615  0.2249
29787W        W44918  18.259   0.930   2.100 -0.0182  0.3158  0.3096
29788W        W44919  11.257   3.236  15.039  0.4766  0.0627  0.0536
29789W        W44920  12.700   8.875   1.616  0.0283  0.0918  0.1345
29790W        W44921   1.537   0.999   5.971  0.4459 -0.2355 -0.0564
29791W        W44922   9.598   1.475  11.623  0.1053  0.0773 -0.0600
29792W        W44923  16.568  11.509  14.882 -0.1446 -0.0843 -0.2709
29793W        W44924  16.825  17.945  11.216 -0.1082 -0.0004  0.2858
29794W        W44925   1.204   4.340  12.700 -0.1000 -0.1836  0.0051
29795W        W44926   9.614  14.927   2.643 -0.2931 -0.2468  0.3470
29796W        W44927  11.211   8.764  12.035  0.0132  0.1233 -0.0685
29797W        W44928  12.524  16.135  11.875  0.2405  0.0339  0.0688
29798W        W44929  17.411  15.638  14.219  0.1586  0.1394  0.0455
29799W        W44930   9.178   7.558   1.176 -0.2039  0.1449  0.3064
29800W        W44931   8.264   6.880   3.492 -0.1049 -0.4415 -0.2598
29801W        W44932   3.290  16.144   3.514 -0.4240 -0.1582 -0.0586
29802W        W44933   3.883  16.933   5.394  0.1301  0.0252  0.2470
29803W        W44934   1.054   4.498  12.191  0.1268 -0.0700  0.2040
29804W        W44935   9.069  15.607   2.628 -0.0044  0.0363  0.1213
29805W        W44936   4.995   3.589   5.547 -0.2538 -0.2057  0.2432
29806W        W44937  14.065  10.512  12.996 -0.1111 -0.0038  0.1142
29807W        W44938  10.050  14.793   1.045  0.0876  0.0304 -0.1640
29808W        W44939   6.620  15.738  11.956 -0.2067 -0.2193  0.1298
29809W        W44940   6.064  13.244   1.560  0.4694 -0.0628  0.2532
29810W        W44941  12.871   5.114   0.500 -0.3425  0.0237 -0.1808
29811W        W44942   9.735  15.907   4.001  0.3060  0.0441  0.2450
29812W        W44943  14.899   7.520   2.539  0.1613 -0.0940 -0.0824
29813W        W44944   5.178   2.245   0.515 -0.0517 -0.2652  0.3092
29814W        W44945   3.178   9.625   2.604 -0.2171 -0.0905  0.0567
29815W        W44946  16.071   7.181  12.816  0.0206 -0.1576  0.2365
29816W        W44947  10.737   7.308   0.508 -0.2502 -0.1591 -0.0564
29817W        W44948   9.874   4.215   4.142  0.0118 -0.2188  0.0719
29818W        W44949  10.780   2.193  10.068  0.1841 -0.0451 -0.0150
29819W        W44950  10.711   2.873  13.549 -0.0694 -0.0953  0.1755
29820W        W44951   6.175  13.652  11.105 -0.0081  0.0667  0.2397
29821W        W44952  10.069  13.006  10.579  0.0499  0.4108  0.1891
29822W        W44953  17.284   4.463   4.053  0.0860  0.2007  0.0751
29823W        W44954  13.879  12.182   5.244 -0.1727  0.0212  0.0447
29824W        W44955  11.290  16.516  12.616 -0.2485  0.1338 -0.1319
29825W        W44956  10.443   7.259   2.613 -0.3096  0.1767 -0.0877
29826W        W44957  11.020  13.148   5.529  0.1093  0.1143  0.1236
29827W        W44958  16.789   0.944   1.532 -0.1922 -0.0791  0.1130
29828W        W44959  14.549  11.640  14.370 -0.1080  0.1382  0.0627
29829W        W44960   6.975   4.501  12.274 -0.0221 -0.1561 -0.0063
29830W        W44961  12.899   9.104   0.337  0.1927 -0.0233 -0.1163
29831W        W44962  13.722   7.061   1.757  0.0240  0.1565 -0.3616
29832W        W44963  17.227   9.257  15.421  0.2049 -0.0815 -0.1513
29833W        W44964   0.067   0.340  13.844 -0.1904  0.0746 -0.0222
29834W        W44965   8.742   8.558   3.719  0.0282 -0.3518 -0.1807
29835W        W44966  17.557   7.550   5.513  0.0219 -0.0061 -0.0567
29836W        W44967  10.201  17.895   0.195 -0.1035 -0.1001 -0.0423
29837W        W44968   7.364   0.604  14.995 -0.0489  0.1935  0.0709
29838W        W44969  13.773  10.025   4.541 -0.1210 -0.0563 -0.0574
29839W        W44970   2.493  13.003   0.260 -0.0914 -0.1590 -0.3812
29840W        W44971   1.398   9.282   2.830 -0.1338  0.2694  0.0231
29841W        W44972  11.353  15.610  12.110  0.0045  0.0838  0.1188
29842W        W44973  15.649  12.768  12.271 -0.0632 -0.0994 -0.2047
29843W        W44974   1.745  14.097   3.411  0.1016 -0.0260 -0.2799
29844W        W44975  15.841   2.892  10.349  0.1106 -0.0119  0.1460
29845W        W44976   4.611  18.232   0.356  0.0965  0.1779  0.2393
29846W        W44977  18.059   4.708  14.920  0.0264  0.5528  0.1011
29847W        W44978  14.835  16.966   0.557  0.0866  0.0314 -0.0408
29848W        W44979   0.023   0.415   3.855  0.3526 -0.0887 -0.1232
29849W        W44980  10.487   4.941  12.823  0.0062  0.0766  0.0640
29850W        W44981   1.515   9.367  14.805  0.2120  0.3069  0.0326
29851W        W44982  15.260   0.865  11.340 -0.1539 -0.2439  0.3214
29852W        W44983   7.433  10.308   5.356 -0.1151 -0.0794  0.2194
29853W        W44984  12.727  14.205   4.699  0.0889  0.1893  0.1881
29854W        W44985  12.280   0.741  14.212  0.2283  0.2454  0.0605
29855W        W44986   0.356   2.638  12.780 -0.0333  0.0840 -0.2728
29856W        W44987  10.941   6.087  12.504  0.1221 -0.2475  0.0909
29857W        W44988  18.029   0.982  12.282 -0.1308  0.5791 -0.1632
29858W        W44989  12.983  15.263   2.984 -0.2151 -0.0355 -0.2600
29859W        W44990  16.219   4.679   4.367  0.3165  0.0802  0.1795
29860W        W44991   8.962   8.870  13.839 -0.0284  0.0460 -0.5442
29861W        W44992   2.052   4.063  15.062  0.3204  0.1383 -0.2620
29862W        W44993  17.835   2.382   0.093  0.4367  0.1910 -0.0031
29863W        W44994  12.052   2.328   1.729 -0.0047 -0.0512  0.0865
29864W        W44995  14.731   6.766  13.631 -0.0308 -0.0886  0.1455
29865W        W44996   8.648  15.370  14.280 -0.1978  0.1992  0.2913
29866W        W44997   7.043  11.347  11.617  0.0533 -0.2007 -0.0603
29867W        W44998  11.857   1.612  14.807 -0.0540  0.0907  0.1649
29868W        W44999   6.796   2.002  11.395 -0.2364 -0.0769  0.0618
29869W        W45000  16.719  10.422   0.217  0.0242 -0.1203  0.2744
29870W        W45001  15.810  17.899  12.062 -0.4220  0.0021 -0.2355
29871W        W45002   6.978  11.943   4.688  0.1252  0.3438 -0.0383
29872W        W45003  14.978   1.854   5.183  0.2530 -0.0447  0.0630
29873W        W45004   2.365   8.120   0.331 -0.1270 -0.0261  0.0176
29874W        W45005  14.576  15.069   1.009  0.1576  0.2436  0.2038
29875W        W45006  11.162  12.487   3.118  0.0078  0.2289  0.1891
29876W        W45007  11.242  14.117  14.118 -0.0747  0.1084 -0.0394
29877W        W45008  14.864   9.286  12.895 -0.1408 -0.1861  0.0848
29878W        W45009   0.338  15.265  11.990  0.0103 -0.1410 -0.0038
29879W        W45010  16.909   4.379   0.701  0.0223  0.2938  0.1685
29880W        W45011   6.138  16.929  11.611 -0.2699 -0.0556  0.2564
29881W        W45012  17.401   1.895  12.544 -0.4437 -0.1151  0.1716
29882W        W45013  17.669  10.720   1.497 -0.1018 -0.2117  0.1138
29883W        W45014  13.494   2.808  15.959  0.2517  0.1272  0.1474
29884W        W45015   6.545   1.915   1.761 -0.1327  0.0713 -0.1905
29885W        W45016   8.913   2.772   4.933 -0.0242  0.2807  0.4733
29886W        W45017   3.239   4.764   0.557  0.2304  0.0152 -0.1744
29887W        W45018   5.272   1.247  11.688  0.0095 -0.2832  0.0815
29888W        W45019  11.734  17.747  12.098  0.0278  0.0032 -0.1800
29889W        W45020   7.624  17.847   3.359 -0.1489  0.0452  0.1143
29890W        W45021  13.280  11.947   3.331  0.2829 -0.0119  0.0078
29891W        W45022  11.648   3.073   5.163  0.1356 -0.2725  0.0042
29892W        W45023   1.678  18.304   3.143  0.0214  0.1077  0.2363
29893W        W45024   0.568   1.568  15.167 -0.0348  0.1545 -0.0574
29894W        W45025   6.024  15.686   0.258 -0.0723 -0.1616 -0.0004
29895W        W45026  14.610   3.399   1.537  0.5564  0.1984 -0.3052
29896W        W45027   7.135   1.879  11.777 -0.4793 -0.0422 -0.1241
29897W        W45028  15.119   8.459   0.425  0.2586  0.1635 -0.0321
29898W        W45029   6.587   9.659   6.128  0.0339  0.1416 -0.1041
29899W        W45030  16.376   1.208  12.840  0.2360 -0.0580 -0.0366
29900W        W45031  11.709   6.404   0.539  0.0837 -0.0721 -0.0739
29901W        W45032   4.136   6.110   3.690  0.0068 -0.0943  0.0836
29902W        W45033   8.688   8.737   1.716 -0.2863 -0.0935 -0.0130
29903W        W45034   3.410  16.604   1.603 -0.0729  0.1672  0.2877
29904W        W45035   4.221  14.522  11.005  0.0525  0.1974 -0.0910
29905W        W45036   0.369  15.797   4.835  0.1088 -0.2151 -0.0506
29906W        W45037   4.395  12.367   0.355  0.1599 -0.0818 -0.3695
29907W        W45038  15.546   6.739  15.205 -0.0977  0.0433  0.1726
29908W        W45039   5.968   1.077  11.964  0.2663 -0.1803 -0.1565
29909W        W45040   2.806   8.914  15.678 -0.1587  0.0429  0.1466
29910W        W45041   7.681  18.332   1.744  0.1359 -0.2577  0.0385
29911W        W45042   8.198  14.626   3.153 -0.0204  0.0529 -0.0383
29912W        W45043   0.014  16.257  14.060 -0.3328 -0.1467  0.1317
29913W        W45044  17.614   7.237   5.941  0.4145  0.1638 -0.4193
29914W        W45045   7.938   1.034  15.465 -0.2575  0.2168 -0.0622
29915W        W45046   7.590   2.569   4.163 -0.0617  0.0373 -0.2488
29916W        W45047  17.923  15.438  14.225  0.0011 -0.1223 -0.0483
29917W        W45048   0.655  16.326   2.490 -0.0292  0.1697  0.0286
29918W        W45049  11.521  16.195   3.547  0.0919  0.2520 -0.3246
29919W        W45050   8.012   0.842   3.302 -0.4567  0.1737 -0.1846
29920W        W45051   1.795  13.834  11.308  0.0475 -0.1512 -0.1605
29921W        W45052   0.710   2.781   5.124  0.0839  0.1902 -0.2454
29922W        W45053  12.631   6.497  15.792 -0.0746 -0.1466  0.2032
29923W        W45054  10.330   6.151  15.011 -0.2019  0.3700  0.0332
29924W        W45055   0.375   3.412   3.321 -0.2411  0.1857  0.2732
29925W        W45056  11.803   5.407  14.015  0.2669  0.0015  0.0398
29926W        W45057   5.517  16.520  14.683  0.0987  0.1248  0.0600
29927W        W45058  17.957   0.653   6.077 -0.0254 -0.1841  0.1571
29928W        W45059  14.894   5.565  15.967  0.1892 -0.0062  0.3383
29929W        W45060  18.003   4.950   0.986  0.1197  0.5721 -0.2636
29930W        W45061   3.115  11.555  11.105 -0.0182 -0.3176 -0.1294
29931W        W45062  17.740  13.029   3.579 -0.0221  0.1959 -0.1486
29932W        W45063  10.236   7.794   4.872  0.0279  0.0972  0.1120
29933W        W45064   9.026   3.911   3.604  0.3036 -0.1471 -0.2501
29934W        W45065   2.174   8.276  12.838 -0.1596  0.1843  0.0499
29935W        W45066   3.871   6.556   0.836  0.1374 -0.0353  0.1220
29936W        W45067   7.974   7.079  11.180  0.3193 -0.1385 -0.2827
29937W        W45068  13.249  13.566   1.986  0.4023 -0.1323  0.1400
29938W        W45069  14.308   6.974  15.769  0.0401 -0.1189 -0.0892
29939W        W45070  13.852   0.591  15.524 -0.1461 -0.1164 -0.0594
29940W        W45071   2.102  13.119  16.013 -0.1480  0.1686  0.1029
29941W        W45072  10.050   8.473   1.072 -0.3512  0.5049  0.0577
29942W        W45073  11.549  14.929   4.902  0.0891 -0.0835  0.1527
29943W        W45074  10.701  14.166  11.118 -0.0678 -0.1545  0.2026
29944W        W45075  17.914  18.323  14.028  0.0392 -0.1293 -0.0665
29945W        W45076   8.045  12.684   1.632  0.3295 -0.0507 -0.1862
29946W        W45077  10.501  11.719  12.740  0.1591 -0.0176  0.0538
29947W        W45078   4.032   0.218   4.632 -0.0078  0.0982 -0.0038
29948W        W45079   7.503   3.399  11.055  0.2848 -0.0218  0.1042
29949W        W45080  16.725  16.532  15.414 -0.0384 -0.1115 -0.0664
29950W        W45081   3.962   0.830  10.604  0.0875  0.3511 -0.2378
29951W        W45082   5.880  16.277   2.108  0.1959 -0.3419  0.0298
29952W        W45083  13.973   2.345   4.658  0.1448 -0.4092 -0.1246
29953W        W45084  15.023   5.447   4.316 -0.0991  0.0997 -0.0956
29954W        W45085   5.689  10.745   2.546 -0.0677 -0.0560  0.1955
29955W        W45086  15.029  11.458   1.030 -0.2245 -0.1611 -0.4079
29956W        W45087   8.619   2.477   4.430 -0.0812 -0.0580  0.1070
29957W        W45088   3.226  16.171   4.509 -0.0462  0.3674  0.0831
29958W        W45089   1.365  13.357  15.665 -0.0902  0.2297  0.0406
29959W        W45090   4.656  16.334   0.292 -0.2014  0.1336  0.0721
29960W        W45091  16.696   0.805   4.667 -0.1358  0.0279  0.2795
29961W        W45092   9.814  16.977   1.276  0.2553  0.1545 -0.2011
29962W        W45093  14.760  16.449  11.094  0.0529 -0.0590 -0.2115
29963W        W45094  17.069   9.670   0.081 -0.0594 -0.0114  0.0930
29964W        W45095  12.784  15.188   4.743 -0.3794 -0.1002  0.1845
29965W        W45096   9.998  15.135   1.480  0.1126  0.0001 -0.0013
29966W        W45097  17.490  18.200  13.164 -0.2974 -0.1148 -0.0812
29967W        W45098   5.350   9.289   0.330 -0.1927  0.1092  0.1805
29968W        W45099  11.005   7.529   4.563  0.0979 -0.3586 -0.0411
29969W        W45100   9.843  11.124   3.952  0.0666  0.1602 -0.1024
29970W        W45101   1.644   5.548   1.594  0.1342 -0.2050  0.2787
29971W        W45102   8.810   5.693   2.414 -0.2615 -0.1808 -0.1217
29972W        W45103  17.302   0.291   3.529  0.0269  0.3376 -0.0639
29973W        W45104   0.940   5.499   4.076  0.2452  0.0311 -0.1831
29974W        W45105  12.324   8.889   3.589  0.0922 -0.0080 -0.1729
29975W        W45106   1.501   4.657  12.332 -0.0621  0.2456  0.0454
29976W        W45107   1.046  17.466   3.079  0.0545  0.0864 -0.4134
29977W        W45108  12.328  15.031   2.472 -0.3435 -0.1827  0.0440
29978W        W45109   1.567  10.768  13.939  0.0312  0.0085  0.0108
29979W        W45110   1.570   8.357   2.588  0.0022  0.2020 -0.2664
29980W        W45111  17.864  11.602   3.785  0.0696 -0.0989 -0.2002
29981W        W45112   4.426   8.053  16.046  0.3099 -0.0651  0.0917
29982W        W45113   9.509   0.273  14.817  0.0478  0.1712 -0.1647
29983W        W45114  11.040   3.441   1.005 -0.2091  0.3578  0.0402
29984W        W45115   7.143   8.163  12.531  0.1247  0.3749 -0.1953
29985W        W45116   7.062  10.447  14.965 -0.1841  0.3552 -0.4801
29986W        W45117  13.018   5.160   4.578  0.1628 -0.0482  0.2297
29987W        W45118   4.030  12.806  13.460  0.1624 -0.2411 -0.0996
29988W        W45119   5.445  15.738   1.282  0.0152  0.3312  0.0679
29989W        W45120  17.638   1.264  15.839  0.1679  0.0184  0.1187
29990W        W45121  12.668  16.486   3.540 -0.0758 -0.0439  0.1495
29991W        W45122   0.567   9.447   1.044 -0.2245 -0.1514 -0.3477
29992W        W45123  12.598  17.105   3.459  0.3925  0.0880 -0.1806
29993W        W45124  12.036   0.964  13.198 -0.1247 -0.1702 -0.1190
29994W        W45125   2.448  16.601   4.422 -0.1489 -0.2213 -0.0788
29995W        W45126  13.348  10.088  13.413 -0.0527 -0.1423  0.1993
29996W        W45127   2.312   6.143   0.034 -0.0489 -0.2856  0.0413
29997W        W45128   2.295   0.104  14.467  0.0147 -0.1372  0.0571
29998W        W45129   9.197   2.693   0.826 -0.2299  0.0521 -0.1995
29999W        W45130   5.708   6.201   3.735  0.0318  0.1356  0.2778
30000W        W45131  13.178  18.261   0.881 -0.1018  0.1929 -0.4754
30001W        W45132   1.372   3.087   3.643 -0.1153 -0.0411 -0.0218
30002W        W45133   7.314   7.933  10.714 -0.0366 -0.1514  0.0406
30003W        W45134  15.738   0.197  14.719 -0.1938 -0.0648 -0.0936
30004W        W45135  15.095   9.859  12.942 -0.3432  0.3264  0.2677
30005W        W45136   8.696   2.796   6.374  0.0859  0.0735 -0.0720
30006W        W45137   0.631   6.669   2.984 -0.1831 -0.1284 -0.2193
30007W        W45138  17.238   1.029   4.162  0.0805 -0.0237  0.2356
30008W        W45139   9.668   4.586  12.523  0.0887  0.0806  0.1108
30009W        W45140  12.506   7.537   3.319 -0.4397  0.3323 -0.4189
30010W        W45141   3.608   5.712   2.365 -0.0723  0.1630 -0.0044
30011W        W45142   6.080   8.274  12.879 -0.3136 -0.2967  0.0813
30012W        W45143   4.373   3.026   4.609 -0.0719 -0.0368 -0.0761
30013W        W45144  10.649  15.181  11.216  0.2015 -0.0642 -0.3650
30014W        W45145   6.575  17.730  12.279 -0.0803  0.1460 -0.0185
30015W        W45146  16.341  13.583  13.800  0.1177 -0.0193 -0.1981
30016W        W45147   5.477   1.426   1.024  0.2179  0.3255 -0.1532
30017W        W45148   2.447   5.169  12.016  0.0902 -0.2284  0.0810
30018W        W45149   6.710  14.359   2.332 -0.1807  0.1608 -0.1851
30019W        W45150  11.056   5.106  15.340  0.1502  0.3269  0.0150
30020W        W45151   9.184  14.770  15.321 -0.2344  0.4719  0.2358
30021W        W45152  16.994  17.153  16.077 -0.1250  0.0401  0.6071
30022W        W45153   8.810   9.558   4.314 -0.1367 -0.1591 -0.2338
30023W        W45154  15.768  14.503   4.507  0.1288 -0.0098  0.2956
30024W        W45155   4.794   1.036   1.164  0.0704  0.0132  0.2906
30025W        W45156  15.971   8.791   4.476  0.0451 -0.0575  0.4960
30026W        W45157  10.765  13.790   1.364 -0.1997 -0.2238  0.0479
30027W        W45158   1.093   5.587  15.065 -0.3144  0.0046 -0.0309
30028W        W45159  15.374   0.737   3.818  0.2046 -0.1989 -0.1042
30029W        W45160   5.843   0.789   5.733  0.2571 -0.0504 -0.2868
30030W        W45161   5.455   7.293   1.030  0.1817  0.0557  0.2225
30031W        W45162  16.270   7.609   4.340 -0.0711  0.0251 -0.0211
30032W        W45163  13.479  16.884  13.886  0.2911 -0.3525  0.1551
30033W        W45164  12.445   0.887   4.023 -0.0609  0.1823 -0.2411
30034W        W45165  10.648  14.697  10.434  0.2528 -0.2366 -0.0267
30035W        W45166   0.868   4.981   6.371  0.0130 -0.1091 -0.1314
30036W        W45167   6.863  12.717  15.225  0.1176 -0.0696  0.1302
30037W        W45168   9.179  15.079  11.429  0.0309 -0.1887 -0.1653
30038W        W45169  10.919   4.607   5.269  0.0756  0.0633  0.1243
30039W        W45170   6.509   3.944   3.514  0.0531  0.1912 -0.0713
30040W        W45171   6.192  10.509   4.240 -0.1471  0.1544 -0.2095
30041W        W45172   8.382   9.416   4.110  0.0751  0.1061  0.0545
30042W        W45173   0.209   1.406  15.929 -0.0677 -0.0289 -0.0107
30043W        W45174  15.757   1.097   0.630 -0.0735 -0.2918  0.2243
30044W        W45175   5.202  14.298  12.145  0.0148 -0.0686 -0.0701
30045W        W45176   6.703   8.303  14.819 -0.2655  0.1782 -0.1993
30046W        W45177  14.637  17.765  13.981  0.4225 -0.0964 -0.2314
30047W        W45178   5.955   9.500   2.970 -0.0785  0.0863  0.2711
30048W        W45179  15.766  17.563  15.463 -0.1261  0.3628 -0.0113
30049W        W45180  10.821  17.559  11.387  0.2576 -0.0241 -0.2263
30050W        W45181  16.478   4.903   1.109  0.0565  0.0947 -0.0737
30051W        W45182   8.138   2.588   3.860 -0.0807  0.0205  0.1654
30052W        W45183  14.118   0.528  14.100  0.2639  0.0770 -0.3018
30053W        W45184   7.975  16.930   3.370 -0.1582 -0.3284 -0.0019
30054W        W45185  14.489  15.643  10.975  0.0246 -0.0842  0.1815
30055W        W45186   2.316  14.559  15.941  0.1265  0.6996 -0.2070
30056W        W45187   2.283   2.799   5.097  0.2143 -0.1129 -0.0437
30057W        W45188   8.309  14.179   4.418  0.0108  0.1028  0.1879
30058W        W45189  13.181   7.989  14.675  0.2652  0.1607 -0.1187
30059W        W45190  11.359   8.278   1.552 -0.1253 -0.1597  0.1251
30060W        W45191   7.065   5.947   2.939 -0.1918 -0.1547 -0.1903
30061W        W45192  14.212   4.983   1.849 -0.0506 -0.0284  0.0372
30062W        W45193   7.070   3.191  11.010  0.0607  0.0423  0.4234
30063W        W45194   3.967   0.823   2.274 -0.1865 -0.1633  0.0232
30064W        W45195  13.757  10.556   1.286 -0.0486 -0.0401 -0.0361
30065W        W45196   1.668   4.052   1.808 -0.0219  0.0317  0.0402
30066W        W45197   9.338  14.071   3.784 -0.0585  0.0161 -0.0638
30067W        W45198   4.396   4.310   1.509 -0.0217 -0.2364  0.0250
30068W        W45199   6.582  10.219  13.715  0.3648 -0.0947  0.0081
30069W        W45200   2.486  13.422  14.232 -0.0102 -0.1972  0.1469
30070W        W45201   8.686   5.316   2.056  0.0137 -0.0080 -0.0997
30071W        W45202  17.748  12.744   1.001  0.0992 -0.2162  0.1893
30072W        W45203  12.539  13.702   1.178 -0.0238  0.2115 -0.0928
30073W        W45204   5.649  17.209   1.005  0.2084 -0.1004  0.2178
30074W        W45205  18.346  14.383   0.347 -0.0410  0.1759  0.4621
30075W        W45206   8.590   3.371   2.906 -0.0696  0.1348 -0.1157
30076W        W45207  10.144   0.495  15.609 -0.0037  0.0234 -0.0399
30077W        W45208  14.951  12.895  12.008 -0.3190 -0.2034 -0.1653
30078W        W45209   0.896  17.233   2.422 -0.0086 -0.3385 -0.2266
30079W        W45210   7.620   0.491   0.571 -0.0133  0.0886 -0.3398
30080W        W45211   6.384  14.026  11.440  0.1768  0.1602  0.1145
30081W        W45212   4.441  13.336  11.230  0.0113  0.0323 -0.0142
30082W        W45213  17.267  11.933  12.965 -0.1784 -0.0067 -0.2504
30083W        W45214  13.363  17.891  14.975  0.1037  0.1640 -0.1332
30084W        W45215  18.078   2.509   5.618 -0.0627 -0.3035  0.0329
30085W        W45216  16.777  11.258   5.195  0.1053 -0.0776 -0.0496
30086W        W45217  13.145   5.564   5.472  0.2530 -0.0050 -0.3522
30087W        W45218   3.124  15.514  12.606  0.1230 -0.3157  0.3244
30088W        W45219  13.872   4.649   1.001  0.1778 -0.1429  0.1492
30089W        W45220   2.164   0.841  11.947 -0.1302 -0.1178  0.1689
30090W        W45221   8.437  11.148   1.676  0.0975 -0.2629 -0.2240
30091W        W45222  14.446   1.733  11.687  0.2691 -0.1177  0.3418
30092W        W45223   5.663  14.590  12.230 -0.0653 -0.0209  0.2177
30093W        W45224   3.433  10.252  11.677 -0.1600 -0.2330  0.0473
30094W        W45225   8.221  17.766  10.428 -0.3005 -0.0664  0.2269
30095W        W45226  17.378  14.176   0.816  0.1905  0.0243 -0.0485
30096W        W45227   5.256  10.951   2.821 -0.3897  0.0608 -0.1030
30097W        W45228   5.342  13.226   2.920 -0.0739  0.1635  0.0446
30098W        W45229  13.310   7.842  11.983  0.2480  0.2194  0.0422
30099W        W45230  11.712   6.736  10.948 -0.0101  0.1680 -0.0829
30100W        W45231   9.624  13.101  14.539 -0.2416 -0.5750  0.0488
30101W        W45232   7.720   1.784   1.693  0.1145  0.1000  0.0656
30102W        W45233  15.561   3.051   2.402  0.0013  0.1845 -0.1197
30103W        W45234  16.954  16.923   2.682  0.4144  0.1124  0.1795
30104W        W45235  17.939   3.595   4.230  0.3046  0.1190 -0.0463
30105W        W45236  15.073  15.083   3.203  0.3155  0.3925 -0.2389
30106W        W45237  17.579  14.878   5.059 -0.0652 -0.1330 -0.0930
30107W        W45238  15.361  10.591  10.389  0.0038  0.0293  0.2029
30108W        W45239  17.051   6.990  13.366 -0.1870 -0.0264 -0.2392
30109W        W45240   5.373  12.663  15.487 -0.1025  0.0522  0.0839
30110W        W45241   8.265   0.336   3.391 -0.1209  0.1203 -0.1497
30111W        W45242   0.894  15.622  14.608 -0.0996 -0.1869  0.0335
30112W        W45243   2.262   5.529  13.371  0.2768  0.1730 -0.1916
30113W        W45244   6.607  11.116   0.765  0.0418 -0.2699 -0.2183
30114W        W45245  16.044  11.774  12.684 -0.0806 -0.1989  0.0619
30115W        W45246   8.918  10.375  15.895  0.2630 -0.1692  0.1817
30116W        W45247   9.123   5.414  16.073 -0.0874  0.0115  0.1546
30117W        W45248   1.581   7.638  10.476 -0.0612  0.0238  0.0204
30118W        W45249   1.312  14.432  13.148  0.4459  0.0835 -0.0795
30119W        W45250  10.320   2.317  11.859  0.0740 -0.0304 -0.0887
30120W        W45251   7.981   9.402  11.064 -0.0008 -0.0709 -0.0111
30121W        W45252  10.700  10.283  11.273 -0.1273 -0.2218  0.0997
30122W        W45253  15.783   0.268   2.046  0.0972  0.3356 -0.2104
30123W        W45254  17.754   7.328  11.737 -0.0093  0.1347  0.0074
30124W        W45255  12.272   6.961  11.324  0.0042 -0.1044  0.2206
30125W        W45256  12.134  17.051  15.183  0.0387 -0.1976  0.2610
30126W        W45257   0.523   9.983   5.672  0.1595  0.1366 -0.2447
30127W        W45258   9.024  11.858   5.385 -0.1107 -0.0477 -0.0093
30128W        W45259   1.473  13.693   0.927  0.3612  0.1286 -0.0728
30129W        W45260   4.350  12.788   3.665 -0.1781 -0.3779 -0.1215
30130W        W45261  12.521  17.951  12.761 -0.0372 -0.1101 -0.0265
30131W        W45262  17.251  13.995   1.773 -0.3003  0.0816 -0.2415
30132W        W45263  11.530  17.090   4.143  0.0905  0.3415 -0.0566
30133W        W45264   5.571  13.010  12.100 -0.1891 -0.2068  0.1335
30134W        W45265  10.618  18.102  15.452 -0.2153  0.2251 -0.4470
30135W        W45266  14.752  14.135  15.116 -0.0918  0.0261 -0.2961
30136W        W45267   1.980   7.357   1.838 -0.0580 -0.3436 -0.1603
30137W        W45268   6.344  10.331   2.720  0.1328 -0.0100  0.0719
30138W        W45269   0.830   8.827   0.528  0.0105  0.1725 -0.0995
30139W        W45270   0.208  11.071   2.508  0.2397 -0.0360 -0.0505
30140W        W45271  10.439   2.782  14.990 -0.1182 -0.0618 -0.3097
30141W        W45272  13.872   3.349  15.360  0.1491  0.0896 -0.0100
30142W        W45273   0.402   7.930   5.210  0.2802 -0.0573 -0.2017
30143W        W45274   3.378  17.852   0.085  0.2005 -0.0430  0.0081
30144W        W45275   5.518   5.286   4.953  0.2957  0.0908 -0.1063
30145W        W45276  13.692   0.288  13.968 -0.0306 -0.0962  0.0151
30146W        W45277  17.926   3.166  14.490  0.1376  0.1265  0.1125
30147W        W45278  11.797   7.542   1.713 -0.2300  0.1281  0.0724
30148W        W45279   4.147  18.045   0.107 -0.1422  0.3986 -0.3976
30149W        W45280   0.464   0.457  15.447  0.3121 -0.0586 -0.1054
30150W        W45281   7.811  16.170  13.547  0.1216 -0.0366  0.2289
30151W        W45282   9.376  10.146  11.648  0.0441 -0.2268  0.0587
30152W        W45283  15.316   0.938  13.864 -0.0990 -0.0893 -0.1238
30153W        W45284   1.847   4.182   5.414 -0.4185 -0.0711  0.1695
30154W        W45285   6.946   6.857   1.171 -0.0977  0.0940 -0.0051
30155W        W45286  17.374  17.906  11.609 -0.1652 -0.0023  0.0292
30156W        W45287  11.041   9.902   4.247  0.0189 -0.2274  0.2256
30157W        W45288  17.110  14.533  14.703 -0.0256  0.3864  0.1544
30158W        W45289   3.733   3.867  16.032  0.0096  0.2037  0.0108
30159W        W45290   9.800   3.341   3.629  0.0664  0.2341  0.1448
30160W        W45291   2.902   2.690  15.350  0.1906  0.1990  0.2661
30161W        W45292  16.713   7.062   0.482 -0.0897 -0.2654 -0.0978
30162W        W45293   7.869   3.495   6.372  0.2255 -0.0926  0.1088
30163W        W45294  12.507  17.022   5.845 -0.0744 -0.2644  0.0760
30164W        W45295  17.070  15.076  14.507 -0.0278 -0.1027 -0.0965
30165W        W45296  12.035   4.989   1.040  0.0621 -0.1971  0.1500
30166W        W45297   8.894   6.307  11.230 -0.1507 -0.2568  0.1683
30167W        W45298   8.169  17.155   4.170 -0.1611 -0.0213 -0.0460
30168W        W45299   7.468   6.084   0.810 -0.0818  0.0303  0.0159
30169W        W45300   5.258  16.204  12.524 -0.2010 -0.1424  0.4254
30170W        W45301  15.535   4.069   4.633 -0.1058  0.0717 -0.2160
30171W        W45302  17.608   8.464  14.936 -0.0622 -0.3331  0.0406
30172W        W45303  16.210  14.281   1.417  0.2630  0.1445  0.3498
30173W        W45304  14.212   2.915  11.252 -0.0293 -0.0207 -0.0641
30174W        W45305   6.057   3.960   3.310 -0.0082 -0.0989  0.0236
30175W        W45306   9.099  15.067   2.668 -0.3776 -0.0677 -0.2431
30176W        W45307   9.053  13.642  11.576  0.0146 -0.0465  0.0358
30177W        W45308   1.793   8.102   1.252  0.1159  0.2491 -0.2186
30178W        W45309   4.025  13.631   1.560  0.1493 -0.1570  0.0206
30179W        W45310   7.581  10.406  10.786 -0.1716 -0.1282 -0.1469
30180W        W45311  11.102  14.471  13.274  0.1583 -0.3132  0.1992
30181W        W45312   9.089   7.545   0.259 -0.1385  0.0755  0.4501
30182W        W45313  16.482   2.337   4.469  0.1806 -0.0166  0.0115
30183W        W45314   6.617  10.587   5.029  0.0509  0.0254  0.1308
30184W        W45315   8.433   1.170   0.889 -0.0226  0.0350  0.0761
30185W        W45316   1.933  14.311   2.214  0.1121  0.1268  0.0884
30186W        W45317   6.260   5.419  14.006  0.2579 -0.0587  0.0754
30187W        W45318   1.015  14.763   0.288 -0.2051 -0.3099 -0.0451
30188W        W45319   9.794  17.574   0.180  0.2246  0.0014 -0.1486
30189W        W45320   3.019  13.769   0.091  0.0222 -0.1402 -0.2496
30190W        W45321  14.515   6.794   2.075  0.2043  0.0154  0.1339
30191W        W45322  13.486   3.778   1.724  0.0994  0.1081  0.1645
30192W        W45323  13.972  10.928   4.170  0.2441 -0.2437 -0.0950
30193W        W45324  14.118  13.490  11.131  0.0859  0.0473  0.1540
30194W        W45325   7.694  18.225  14.225  0.1032 -0.2614 -0.2241
30195W        W45326   3.629   0.026   2.208 -0.0429  0.0679  0.4105
30196W        W45327   8.344   0.199  11.341  0.0655 -0.0449  0.1296
30197W        W45328   5.647   4.569   4.176 -0.0501 -0.5504 -0.0127
30198W        W45329   9.746   2.816   4.353  0.0531 -0.2353  0.1232
30199W        W45330   2.028  17.109  11.165  0.2092 -0.0899 -0.2384
30200W        W45331  13.131  13.270  10.844  0.0058  0.1523  0.2141
30201W        W45332  10.923   7.508   2.489 -0.1630 -0.1781  0.0712
30202W        W45333  13.584   7.612   2.785  0.3706 -0.4394 -0.0972
30203W        W45334  17.956  16.059  15.928 -0.2732  0.1304 -0.1116
30204W        W45335  16.496  13.264  11.244  0.1253 -0.1701 -0.1276
30205W        W45336  18.166  12.184  15.084  0.0666  0.1648 -0.0674
30206W        W45337   8.726   4.365   0.930 -0.0105 -0.1860 -0.1483
30207W        W45338   2.859  17.230   9.665 -0.0774  0.0729 -0.1155
30208W        W45339  14.070   5.493   2.522 -0.0842 -0.1728 -0.2081
30209W        W45340   8.068   2.869   3.387 -0.0291 -0.2035 -0.2215
30210W        W45341   5.365  12.911   1.238 -0.3954 -0.2229 -0.1614
30211W        W45342   2.605  10.069  10.664 -0.0659  0.2690 -0.1110
30212W        W45343   2.790   2.251   1.566  0.2002 -0.0015  0.0677
30213W        W45344  11.608  15.929   1.760  0.1446 -0.2842  0.1371
30214W        W45345   8.384  11.924  14.860 -0.1329 -0.1176 -0.0694
30215W        W45346  16.016   5.381   2.487  0.2138 -0.3022  0.0956
30216W        W45347  13.205   1.590  15.414  0.0113  0.1326  0.0433
30217W        W45348   7.682  18.196  11.598 -0.4437  0.1765 -0.1242
30218W        W45349   1.336  16.511  13.702 -0.2801  0.1459 -0.0572
30219W        W45350   4.279  18.121  11.391  0.2985 -0.1079  0.1351
30220W        W45351  18.221  10.902   0.015 -0.1384 -0.4116 -0.1861
30221W        W45352  11.705  16.195  10.648 -0.0105 -0.0831 -0.1880
30222W        W45353   8.644   7.742  14.121  0.2898  0.3130 -0.1539
30223W        W45354   9.833  17.504   5.472 -0.2187  0.1811 -0.2529
30224W        W45355   3.221  12.599   3.931  0.0082  0.0739 -0.1374
30225W        W45356  17.361  15.684   2.386 -0.3796  0.0252 -0.1983
30226W        W45357   7.579   6.730   0.268 -0.1553  0.0764  0.1592
30227W        W45358  11.254   4.653   0.757  0.0934 -0.3694 -0.0992
30228W        W45359  18.365  13.770   2.517  0.0742 -0.1261  0.3252
30229W        W45360   5.450  15.806  13.899  0.0567 -0.0547  0.0747
30230W        W45361   0.781   4.761  12.635 -0.1379  0.1897 -0.0463
30231W        W45362  12.921  18.082   0.495  0.0094 -0.1498  0.2215
30232W        W45363  18.196   2.016  15.418  0.0703 -0.2106 -0.0393
30233W        W45364   0.113   6.352   4.602  0.0250  0.2932  0.1112
30234W        W45365   4.053  13.221   4.551  0.0786 -0.1099  0.2768
30235W        W45366  11.729   8.554   2.609  0.1093  0.0898 -0.1234
30236W        W45367   3.226   4.230   3.053 -0.0818  0.1455 -0.0175
30237W        W45368  16.466  14.893   5.230 -0.1640  0.0769  0.2050
30238W        W45369  18.121   0.719   3.567  0.1716  0.2651  0.2474
30239W        W45370   8.552  12.003  14.374  0.1149  0.0061 -0.0176
30240W        W45371   3.297   0.344  14.707 -0.0703  0.3360 -0.2280
30241W        W45372   2.357   1.879  11.902  0.1246  0.0667 -0.1486
30242W        W45373  12.257   2.246   3.161 -0.0742 -0.1741  0.0214
30243W        W45374  16.080  17.220  10.904 -0.1264 -0.0282 -0.0863
30244W        W45375   6.877   6.413   2.239  0.1892  0.2184 -0.0197
30245W        W45376   7.684  13.567  15.914 -0.0730  0.0259 -0.1968
30246W        W45377  17.811   3.968  10.642  0.1006 -0.1228  0.1009
30247W        W45378   7.822   3.004   2.437 -0.0923  0.0625  0.3513
30248W        W45379  17.693  12.390   3.123 -0.1532 -0.0897  0.2482
30249W        W45380  13.169   7.617   0.966 -0.1286 -0.0172 -0.3212
30250W        W45381   7.439  10.271  11.634 -0.0152 -0.0624  0.0018
30251W        W45382   2.576  10.203   2.869  0.0326 -0.1198  0.1318
30252W        W45383  15.512  11.247   0.825 -0.0401  0.1782  0.2199
30253W        W45384   5.590   1.994   2.136 -0.1006 -0.1497  0.6457
30254W        W45385   7.669  17.092   3.800  0.0384  0.0447  0.0680
30255W        W45386  15.358   2.704   5.970  0.3126  0.0215 -0.0553
30256W        W45387  10.494   1.733   4.174 -0.1102  0.3340 -0.1352
30257W        W45388  10.113  15.277  11.750  0.2933 -0.1107 -0.0367
30258W        W45389   1.424   4.320   5.664 -0.1238  0.1926  0.2355
30259W        W45390   7.469   9.304  16.064 -0.2783 -0.0113 -0.1872
30260W        W45391   7.559   2.509   5.745 -0.0115 -0.1006  0.0972
30261W        W45392  17.096   1.407   0.894 -0.3892 -0.0614 -0.1536
30262W        W45393   7.566   5.408  13.627 -0.2075 -0.1000 -0.0712
30263W        W45394   2.380  11.168   3.801 -0.1046  0.0172 -0.0692
30264W        W45395   3.063  12.250   2.249  0.0126 -0.0814  0.0486
30265W        W45396   8.050   0.839  13.651  0.1059  0.1977 -0.0727
30266W        W45397  17.300   6.689   2.981  0.0133  0.0698 -0.0225
30267W        W45398   4.312   3.464  12.832 -0.3584  0.1334 -0.1913
30268W        W45399  13.644   1.453  11.494 -0.1476 -0.2490 -0.3030
30269W        W45400  14.780   0.817  12.080 -0.0576  0.1318  0.2309
30270W        W45401  18.361   7.509  15.460 -0.0484 -0.1817 -0.2145
30271W        W45402   9.316  18.169  12.274  0.0947  0.0683  0.4760
30272W        W45403   9.267  13.215   0.584 -0.3787  0.1272 -0.3594
30273W        W45404  13.945  13.301   5.236  0.0021 -0.4051  0.1212
30274W        W45405   3.125  16.870  15.204  0.0893  0.0341 -0.3064
30275W        W45406  11.199  17.835  13.876  0.1120  0.5679  0.1468
30276W        W45407  11.986  11.621  12.597  0.0901  0.0001  0.1708
30277W        W45408   4.899   3.468   0.899 -0.1375 -0.0661  0.4754
30278W        W45409   6.858  13.125  10.599  0.0538 -0.2135 -0.0040
30279W        W45410  14.662   4.215   0.955  0.0251  0.1324  0.0373
30280W        W45411  10.443   8.788   4.836 -0.0693 -0.2126 -0.2911
30281W        W45412  15.921   5.852   3.843  0.1533 -0.1383 -0.1429
30282W        W45413  16.224  12.375   5.558  0.3308  0.3329 -0.2228
30283W        W45414  10.303   0.905  15.924  0.2330 -0.2348  0.0963
30284W        W45415  16.311  15.548  15.622  0.0285 -0.2319  0.0427
30285W        W45416   2.084  11.625  15.047  0.2710  0.2613 -0.1885
30286W        W45417  10.067   1.316  12.945 -0.0339  0.0328  0.0777
30287W        W45418   5.969  11.528   4.094 -0.2276 -0.1300  0.3657
30288W        W45419  11.519  11.676   5.173 -0.4240  0.0052 -0.1735
30289W        W45420  11.867  12.356  13.144  0.0256  0.0493 -0.0515
30290W        W45421  12.690   6.772  11.186 -0.0145 -0.0569  0.1316
30291W        W45422  17.458   6.576   0.382  0.1768 -0.3434  0.1756
30292W        W45423   0.889  13.570  14.163 -0.2691 -0.1902 -0.1981
30293W        W45424  13.367  10.866   2.037  0.0065  0.1819  0.4767
30294W        W45425  15.502  11.791   4.028  0.3511 -0.1709 -0.0225
30295W        W45426   3.664   4.231  14.534  0.1091  0.3382 -0.0569
30296W        W45427   4.646   6.953   0.118  0.2600  0.0526 -0.0144
30297W        W45428   4.453   6.247  12.940 -0.1198  0.2547  0.2449
30298W        W45429  10.635   7.868   3.324 -0.1544 -0.1116 -0.2754
30299W        W45430   4.200  14.091   6.387  0.0814 -0.2180 -0.1441
30300W        W45431  17.742   3.950  16.059 -0.0423 -0.2987 -0.1562
30301W        W45432   5.685  17.031  10.827 -0.4018  0.2908 -0.3117
30302W        W45433   3.677   3.232  13.272 -0.0277 -0.2792  0.1536
30303W        W45434   6.321  13.166   4.816 -0.2791 -0.2143  0.0321
30304W        W45435   1.606  10.977  12.260  0.1540 -0.0060 -0.2904
30305W        W45436   6.489  17.719   1.085 -0.1051  0.1320 -0.0534
30306W        W45437  11.849  12.789   0.368 -0.0667  0.1649 -0.0922
30307W        W45438   8.740   4.705   1.983  0.2466 -0.1209  0.1670
30308W        W45439   9.567   2.431   2.880  0.3860 -0.0492  0.1841
30309W        W45440  17.168  15.345   2.741 -0.1841  0.0450  0.0208
30310W        W45441   3.772   3.209  14.131 -0.1687  0.1931  0.2765
30311W        W45442   8.864  14.894   4.142  0.4741 -0.0401  0.0989
30312W        W45443   7.299  11.930   0.613  0.4392 -0.1232 -0.0937
30313W        W45444   4.215   4.859   3.866  0.0482 -0.1988 -0.1406
30314W        W45445  15.821   2.027   3.931  0.1006 -0.1321 -0.2894
30315W        W45446  17.839  14.047   0.859  0.1595  0.1719 -0.2463
30316W        W45447   9.471   3.932  14.472  0.0252  0.2036 -0.0471
30317W        W45448   8.151   0.611  12.395  0.4391 -0.1495 -0.5756
30318W        W45449  15.508   5.510   4.164 -0.0752  0.1213  0.3446
30319W        W45450  12.393   7.377  11.676  0.1401 -0.2528 -0.3344
30320W        W45451  10.687   9.414   2.673 -0.2625 -0.2205 -0.2562
30321W        W45452  16.312   6.695   1.168 -0.2078 -0.3835 -0.2341
30322W        W45453   5.040  14.064   4.412 -0.2256 -0.2927 -0.1921
30323W        W45454  11.494  13.683  14.075 -0.1640 -0.1981 -0.1860
30324W        W45455  11.127  17.220  11.132 -0.3601  0.2595  0.0334
30325W        W45456   5.281   6.600  12.567 -0.0829 -0.1255 -0.0019
30326W        W45457  12.191   0.462   4.664 -0.0397  0.1604  0.2539
30327W        W45458   9.167  13.063  13.535  0.0457  0.0302  0.0518
30328W        W45459   4.794  15.818   3.718  0.0615  0.0473  0.1165
30329W        W45460   7.122  18.301  14.955  0.1820  0.2959 -0.2482
30330W        W45461  18.314   1.137  15.187 -0.1319  0.1730  0.0328
30331W        W45462   1.695   5.604  14.127  0.1963 -0.1666 -0.3525
30332W        W45463   6.250   1.332   2.766 -0.0506 -0.1644  0.2874
30333W        W45464   5.944   6.132  13.690  0.0163  0.2185  0.2229
30334W        W45465  11.385  10.103   0.995 -0.1919 -0.1430 -0.2652
30335W        W45466   0.025  10.354  14.088 -0.2837  0.0856  0.1658
30336W        W45467   5.100   1.676  12.395 -0.2471 -0.0706  0.1830
30337W        W45468  15.297   2.120  15.823 -0.0803  0.0663  0.0749
30338W        W45469   9.185   4.459   1.840  0.0859  0.0031 -0.1853
30339W        W45470   0.742   9.467   2.598  0.2890  0.0049 -0.0798
30340W        W45471  13.262  11.157   1.543  0.1419  0.0026  0.0504
30341W        W45472  17.432  17.741   1.933  0.0019  0.2270  0.3755
30342W        W45473  11.995  16.260   2.705 -0.0652 -0.4620 -0.1536
30343W        W45474   4.573  11.867   1.192  0.0555 -0.4185  0.1582
30344W        W45475   3.614   0.513   2.098 -0.1615 -0.1707 -0.0094
30345W        W45476   8.464  12.335   3.337  0.1450 -0.0918 -0.0901
30346W        W45477  18.184   4.727   5.115 -0.2185 -0.0422  0.1219
30347W        W45478   4.564   0.942   4.256  0.3500  0.0727 -0.1497
30348W        W45479   6.376  14.127   0.934 -0.1221 -0.0253  0.3254
30349W        W45480   2.468  15.961  13.613  0.2735  0.1088  0.1515
30350W        W45481   8.632  12.006  13.764  0.0529  0.1206 -0.0239
30351W        W45482   9.464   0.677   1.735  0.1687  0.0018 -0.0156
30352W        W45483  13.457   7.736   5.228 -0.1351  0.0684 -0.2413
30353W        W45484  12.062   5.209   1.490  0.2405  0.2136 -0.1605
30354W        W45485  12.236  12.932   5.746 -0.0695 -0.3603 -0.2505
30355W        W45486  17.197   6.345   2.597  0.0140  0.0866  0.1100
30356W        W45487   2.588   8.741   5.248  0.0096  0.2191  0.3472
30357W        W45488  11.935  10.567  12.725  0.1588  0.0094 -0.1192
30358W        W45489   6.412  18.212  12.404 -0.0050  0.2219  0.0723
30359W        W45490   9.092  16.744  11.427 -0.2025  0.1124 -0.0882
30360W        W45491  14.366   9.434   1.908  0.0539 -0.2924  0.2374
30361W        W45492  10.850  13.269   1.126  0.0732  0.0864 -0.1867
30362W        W45493  15.868   9.456   2.455  0.3622 -0.0669 -0.2206
30363W        W45494   9.047   2.962  12.025  0.1540 -0.1812 -0.1580
30364W        W45495  17.445  12.509   1.444  0.1850  0.0985  0.1021
30365W        W45496   6.425  14.732   2.649 -0.0224  0.0660 -0.1593
30366W        W45497  16.601  12.609   0.395  0.1362 -0.0060  0.2091
30367W        W45498   2.636   1.805  12.585 -0.1673  0.2791 -0.0138
30368W        W45499  12.323   2.203  11.679  0.2274 -0.0616  0.2202
30369W        W45500   6.275  15.738   0.676  0.2890  0.1446  0.1451
30370W        W45501  13.501  12.449  11.951  0.1557 -0.0927 -0.2274
30371W        W45502   6.276   5.615   0.633 -0.0600 -0.2880  0.1807
30372W        W45503   1.801  11.536   4.563  0.0684  0.3533  0.2875
30373W        W45504   5.129  15.014  12.828  0.1011  0.0429 -0.1654
30374W        W45505   3.104  17.115  13.517  0.0773  0.2557 -0.1304
30375W        W45506   6.914  11.019  13.743  0.2745 -0.1488  0.1300
30376W        W45507  16.679   5.952   4.626  0.1763  0.3773  0.3308
30377W        W45508   4.978   8.018  14.936  0.0559  0.1548 -0.1001
30378W        W45509   1.272   0.044   2.900  0.0078  0.2785  0.2810
30379W        W45510  15.027  16.643   5.582 -0.1278 -0.1608 -0.0062
30380W        W45511   4.571  11.708   2.651  0.1182  0.1870 -0.1621
30381W        W45512  11.917  16.022  12.076 -0.1674  0.1174  0.0627
30382W        W45513  15.590   0.226  13.949 -0.0335 -0.1404  0.0383
30383W        W45514   2.727  17.116  15.064  0.0368  0.2254 -0.0903
30384W        W45515  11.175   0.177  10.614  0.0246 -0.0510  0.1021
30385W        W45516  11.170  16.488   5.265 -0.0435  0.2157  0.1704
30386W        W45517  11.568   2.151   0.128  0.2693  0.2510 -0.0734
30387W        W45518  17.618  13.444   5.416  0.1627 -0.0836 -0.2163
30388W        W45519   5.583  18.026   3.898  0.0123 -0.2421 -0.3891
30389W        W45520  13.943  18.101  13.845  0.0763  0.1653 -0.0495
30390W        W45521  14.349  13.772  12.913  0.1006  0.2272 -0.3192
30391W        W45522  12.989  17.522  15.833  0.0723  0.0076  0.1737
30392W        W45523   0.270  15.692   3.015 -0.1593 -0.2414  0.0179
30393W        W45524   1.667   6.957  14.545 -0.2793  0.0638  0.1393
30394W        W45525  17.090  14.836   5.250 -0.0043 -0.2140 -0.0308
30395W        W45526  18.076   2.248  15.843 -0.1335  0.0839  0.0343
30396W        W45527   7.797  17.569   5.567  0.0889 -0.2354 -0.1548
30397W        W45528   5.440   9.178   3.176  0.1159  0.0551  0.1253
30398W        W45529   3.663   1.480   5.176 -0.1945  0.1572  0.0845
30399W        W45530   9.057  14.579   1.767  0.3599  0.0816 -0.0625
30400W        W45531  15.208  17.659   3.457 -0.1594 -0.0144 -0.1676
30401W        W45532   1.000   3.485   3.635  0.0950  0.0361  0.1416
30402W        W45533  12.808  14.738   3.307  0.3269 -0.0256 -0.1973
30403W        W45534  10.078   5.166  15.130 -0.1154  0.1574 -0.2722
30404W        W45535   0.255  14.669   5.626  0.0981  0.0978 -0.2325
30405W        W45536  12.907   1.865  15.114 -0.1104 -0.2773 -0.3214
30406W        W45537   9.898   6.221  14.686 -0.3072 -0.0157  0.0894
30407W        W45538   0.107   6.373  14.480 -0.1367  0.0256 -0.2972
30408W        W45539  13.576   5.337   4.633 -0.0679 -0.2565 -0.0862
30409W        W45540  14.679   1.113   4.832  0.1373 -0.0414  0.0320
30410W        W45541   8.515  13.252   4.546 -0.0372 -0.1848 -0.1801
30411W        W45542   9.289  13.994   1.730  0.0482  0.1926  0.2577
30412W        W45543  11.086  14.111   1.212 -0.2033  0.4682  0.0991
30413W        W45544   6.546  15.423  13.779  0.1058  0.0002  0.1094
30414W        W45545  13.195   1.198   1.623  0.1920  0.0394  0.0303
30415W        W45546   0.010   5.273   5.195 -0.0492  0.1873  0.4426
30416W        W45547   8.402   6.480  13.930  0.2600 -0.4696  0.1673
30417W        W45548  17.216   2.598   1.368 -0.1761 -0.1127  0.1939
30418W        W45549   2.459   6.156  11.996  0.1053  0.1199  0.2222
30419W        W45550   2.887  13.418  15.529 -0.2283 -0.0725 -0.0708
30420W        W45551   1.243  15.279  13.962 -0.0932  0.0011  0.4627
30421W        W45552  10.116  13.994  11.453 -0.1752  0.1922 -0.2851
30422W        W45553   2.831   8.551  13.803 -0.1124  0.0263  0.1715
30423W        W45554   6.405  16.563   4.377 -0.0491 -0.0224 -0.3067
30424W        W45555   1.544  17.481  15.790 -0.0029  0.0778  0.1515
30425W        W45556   0.557  16.172   5.724 -0.1448 -0.2653 -0.1652
30426W        W45557  13.382   3.420  13.501  0.1902 -0.0534  0.0239
30427W        W45558   8.318   9.620  13.031  0.3304  0.4902  0.3176
30428W        W45559  11.839  17.280   0.128  0.0183  0.2815  0.1856
30429W        W45560   3.828   9.168  12.699 -0.3230 -0.0749 -0.0676
30430W        W45561  10.543  13.526  13.201 -0.0123 -0.2248 -0.1553
30431W        W45562   2.273  13.250  12.034 -0.3664 -0.1037  0.1055
30432W        W45563   2.442  15.847   3.718  0.0972 -0.0157  0.0039
30433W        W45564  15.967  10.520  12.795 -0.0947 -0.4157  0.1499
30434W        W45565  17.705  10.660   5.363 -0.2436  0.3027  0.1193
30435W        W45566   0.961  10.339   4.491 -0.1989  0.0479  0.1413
30436W        W45567   9.151  14.649   3.497 -0.0588  0.1489  0.3371
30437W        W45568  15.627  17.257   5.419  0.0458 -0.1256  0.1977
30438W        W45569   5.843   5.135  15.874  0.1931 -0.0519 -0.2492
30439W        W45570  17.782  12.337  13.580 -0.1046  0.0466 -0.3006
30440W        W45571  17.967  15.215  11.375  0.3729 -0.2353 -0.0821
30441W        W45572   2.916   7.310   0.237 -0.0790 -0.0639  0.2912
30442W        W45573  17.292  17.510  16.073  0.1939  0.2656 -0.0223
30443W        W45574   7.028  15.976   0.775 -0.0369  0.0469 -0.0184
30444W        W45575  12.634   8.167   1.903  0.2706 -0.0149  0.0513
30445W        W45576  12.225  16.849   5.421  0.1588 -0.1170 -0.0790
30446W        W45577   5.361  11.676   4.797  0.1464  0.0325  0.0815
30447W        W45578  16.746  16.764  14.588 -0.1602 -0.0209 -0.0681
30448W        W45579   4.686   7.445  10.773 -0.0649 -0.0251  0.0712
30449W        W45580   6.013  17.543   1.778  0.1199  0.0471 -0.2621
30450W        W45581  11.551   1.435  12.444  0.2088  0.4240 -0.0810
30451W        W45582   2.259  13.904   2.243 -0.3247 -0.0129  0.2992
30452W        W45583  14.997  15.163   5.128 -0.0398  0.0450  0.3041
30453W        W45584   0.890  10.925  15.297  0.0558 -0.4654  0.2825
30454W        W45585  11.968  13.591  14.803  0.0472  0.1506  0.1044
30455W        W45586   4.176  16.547   2.834  0.1327  0.1362 -0.0064
30456W        W45587  10.715  11.365  16.063  0.1288 -0.0621 -0.2420
30457W        W45588  17.287   4.073  10.698  0.0976 -0.0644  0.0100
30458W        W45589   0.288   9.568  15.973  0.3267  0.1518 -0.0824
30459W        W45590  15.850   1.123  12.909 -0.1002  0.3316 -0.1117
30460W        W45591   4.048  15.232   1.175 -0.0517 -0.2653 -0.0283
30461W        W45592   7.868   8.246  15.478  0.3655  0.0119  0.1924
30462W        W45593   0.566   0.870   2.590 -0.1414  0.0047 -0.0297
30463W        W45594   3.758   0.403   4.279  0.0801  0.1618  0.4824
30464W        W45595  15.971  17.380   3.752 -0.2268  0.2335  0.1420
30465W        W45596   1.883   7.385   4.291  0.1545  0.0063 -0.1216
30466W        W45597   0.810   0.809  10.930 -0.2658  0.1009  0.1340
30467W        W45598   5.108   2.154  13.437  0.0810  0.0373 -0.1745
30468W        W45599  14.022   9.095   4.212 -0.2832 -0.0889 -0.0133
30469W        W45600   4.877   3.268   1.322 -0.2471  0.0254  0.0381
30470W        W45601  12.711   8.780  14.644 -0.0513 -0.1361  0.1048
30471W        W45602   5.268   7.729   2.899  0.1313  0.0216  0.0316
30472W        W45603   8.743   9.858   0.676  0.2459  0.1279 -0.2027
30473W        W45604   7.569   1.870   4.317 -0.0987 -0.3245 -0.3011
30474W        W45605   0.535   6.014  10.049 -0.0186 -0.3327  0.0446
30475W        W45606  12.442  15.157  13.889 -0.2044 -0.2758 -0.0276
30476W        W45607   0.758   8.850   3.388 -0.1330  0.3054  0.0140
30477W        W45608  14.303   5.509  16.071  0.0325 -0.0460  0.0296
30478W        W45609  16.009  16.554   0.691 -0.1055  0.0643 -0.0926
30479W        W45610   9.047  15.744   0.629  0.3913  0.0108 -0.0381
30480W        W45611   5.129  16.950  13.236 -0.0245 -0.0071 -0.4295
30481W        W45612   9.703   7.578  12.057  0.3209 -0.0050  0.0542
30482W        W45613  15.364   6.642   1.480 -0.0578  0.2318 -0.2210
30483W        W45614   4.271   1.536  11.303  0.0597  0.1854 -0.0658
30484W        W45615   3.253  15.758   1.363 -0.0550  0.0616 -0.1989
30485W        W45616   2.269   3.153  12.658 -0.0930  0.2192  0.2250
30486W        W45617   8.373   2.358  11.787 -0.0442 -0.1140 -0.0611
30487W        W45618  12.426  17.344  14.081  0.4204  0.0290 -0.0479
30488W        W45619   5.218   9.912   2.968  0.1649 -0.0013 -0.2294
30489W        W45620  15.961   4.941  14.353  0.0155 -0.2626  0.0190
30490W        W45621  13.388   7.501   1.819  0.0470 -0.1283 -0.1815
30491W        W45622   7.189  14.713   0.684  0.0995  0.2260 -0.0184
30492W        W45623   6.387  11.288   2.526  0.1174 -0.0721  0.3219
30493W        W45624   0.524   0.273   3.983 -0.0625  0.1199 -0.2231
30494W        W45625  15.076   4.230   1.236 -0.3997  0.0402  0.1163
30495W        W45626   9.484   1.322   4.377 -0.2255 -0.2646  0.0297
30496W        W45627   4.144   2.060  11.902  0.0613  0.2426  0.0292
30497W        W45628   9.481  17.208  15.192  0.1662 -0.1111 -0.0551
30498W        W45629   5.744   4.408   4.684  0.0241 -0.0180 -0.0943
30499W        W45630  10.992   4.383   1.067  0.1291  0.1037 -0.1904
30500W        W45631   4.905   3.678  10.888  0.5362 -0.0456  0.0194
30501W        W45632  11.731  14.232  12.339 -0.0357  0.1753 -0.2589
30502W        W45633  15.514   8.327  11.706 -0.3727 -0.2929 -0.2480
30503W        W45634   7.782   9.368  13.486  0.0471 -0.1107 -0.0776
30504W        W45635  11.620  10.480   4.186 -0.1408 -0.2018 -0.0174
30505W        W45636   4.848  15.618  15.581 -0.5226 -0.0103  0.3488
30506W        W45637  14.799  17.540   2.352  0.1537  0.1026  0.2430
30507W        W45638  13.654  12.682   2.704 -0.2389  0.1835  0.0147
30508W        W45639   9.220   2.203  13.246  0.1609 -0.2533  0.0731
30509W        W45640   5.508   7.297  10.842  0.2633  0.0491  0.1195
30510W        W45641  18.241  15.715  14.496 -0.1696  0.4194  0.2115
30511W        W45642   0.239  13.861   4.004  0.1327 -0.1526  0.0025
30512W        W45643  11.882   8.077   2.475  0.1045 -0.1094  0.1503
30513W        W45644  13.129  17.763  13.886  0.1901 -0.3913  0.1197
30514W        W45645   1.949  16.409  11.880  0.3615  0.3262 -0.0058
30515W        W45646   6.685  12.113  12.830  0.3230  0.0473  0.4430
30516W        W45647   0.231   7.649  14.447  0.0089  0.0879 -0.1479
30517W        W45648   9.218  16.654  12.807  0.0255 -0.1303 -0.2209
30518W        W45649   2.374  14.008  12.760  0.2384 -0.0549 -0.0069
30519W        W45650   1.572  11.776   2.216  0.1744 -0.0828  0.1065
30520W        W45651   7.619  17.144   4.354  0.1609 -0.1477  0.0709
30521W        W45652   8.861   3.504   1.151  0.1381 -0.1456  0.3508
30522W        W45653   9.061   9.412  12.299  0.1616  0.1970  0.3964
30523W        W45654  14.496   7.882  12.122  0.0990  0.2507  0.1937
30524W        W45655   5.688  15.302  13.954  0.0689  0.1277 -0.1874
30525W        W45656  15.970   6.951   0.020  0.2205  0.0206 -0.4008
30526W        W45657   9.769   3.798  12.680 -0.0884 -0.1507  0.0840
30527W        W45658   1.116   6.175   1.174  0.0019 -0.2378 -0.3043
30528W        W45659   6.865   9.355   4.065 -0.0010 -0.0983 -0.0190
30529W        W45660   8.252   1.832  15.646  0.3648  0.0700  0.1895
30530W        W45661   7.581   3.881  12.906  0.2051  0.4110  0.1040
30531W        W45662   8.657  16.923   4.143 -0.0656  0.0100 -0.3058
30532W        W45663  13.921  12.650  15.875 -0.3120 -0.0257 -0.1132
30533W        W45664  10.941   6.575  12.536  0.0391  0.2647  0.0697
30534W        W45665  10.115  15.224  13.320  0.0730 -0.3071  0.1248
30535W        W45666  11.580   2.816   2.773 -0.0068  0.1891 -0.2584
30536W        W45667   9.514   7.303   4.874 -0.0079  0.0565  0.2589
30537W        W45668  15.230   4.604  14.786 -0.2613  0.1673  0.4372
30538W        W45669  10.775  18.215  10.834 -0.2159  0.1110  0.0705
30539W        W45670   8.873   4.107  11.417 -0.0536 -0.0246  0.0349
30540W        W45671   0.686  14.844   2.185 -0.1767  0.3193 -0.0504
30541W        W45672   2.247   0.005  16.028  0.2714  0.2048  0.1420
30542W        W45673   4.248   7.311  13.854  0.0151  0.0547  0.1555
30543W        W45674   1.090   9.791  13.746  0.3052 -0.3726  0.3369
30544W        W45675  17.403  11.002   2.299 -0.4427  0.2168 -0.0649
30545W        W45676   3.065  13.985  11.191 -0.0403  0.0110  0.0403
30546W        W45677   2.139  13.962   3.104 -0.1197  0.0180  0.2394
30547W        W45678   6.502  13.464   4.372  0.1958 -0.0136 -0.3076
30548W        W45679  15.425   8.594  14.806  0.0354  0.2064  0.1397
30549W        W45680   2.206   3.421  10.379  0.0672 -0.0208 -0.2521
30550W        W45681   2.206  10.925   1.626  0.3209 -0.0556  0.1417
30551W        W45682   6.291  16.098  11.734 -0.0037 -0.1396 -0.2758
30552W        W45683   5.923   6.143  15.717  0.0018  0.2560  0.1722
30553W        W45684  11.160   3.439   3.868 -0.1538  0.2642  0.3249
30554W        W45685  10.075  10.265  14.012 -0.1330 -0.1731  0.0819
30555W        W45686   9.687  11.163   5.016 -0.0170 -0.0209 -0.1323
30556W        W45687   4.571   7.027  14.696 -0.1707 -0.0124 -0.0005
30557W        W45688   7.911   2.221  13.521 -0.4790  0.4557 -0.4273
30558W        W45689  12.895  13.774  12.705 -0.0164  0.0766 -0.2584
30559W        W45690   3.891   3.951   4.132  0.1597  0.0165 -0.2672
30560W        W45691   2.281  15.689  11.544 -0.3936  0.0290 -0.2349
30561W        W45692   7.093   9.909  11.509 -0.3110 -0.0663 -0.1475
30562W        W45693   6.159   4.364   1.828 -0.1547 -0.1831  0.0925
30563W        W45694   9.741   7.743  11.074 -0.0474 -0.0039 -0.0993
30564W        W45695   4.252   5.917   2.688  0.0298 -0.0672  0.1675
30565W        W45696   9.024   1.852  11.842  0.0006  0.2248  0.0379
30566W        W45697   8.931   3.431  12.247  0.0826 -0.1375 -0.0976
30567W        W45698   2.525   2.275  15.418 -0.2094  0.1469  0.0968
30568W        W45699  15.839  15.803   1.349 -0.1702  0.0304 -0.0123
30569W        W45700   7.356   0.036  11.913  0.3071 -0.0909  0.1198
30570W        W45701  12.861   5.531  13.651 -0.1704  0.1082  0.1687
30571W        W45702  14.015  10.763   4.693 -0.3894 -0.4555 -0.2544
30572W        W45703   6.195   2.588  12.091  0.1126  0.2814  0.0715
30573W        W45704   0.808  10.378   0.989 -0.2026 -0.0297 -0.0675
30574W        W45705   0.901  18.127  12.790 -0.1354  0.0813  0.2187
30575W        W45706  13.240  15.038   3.435 -0.0680  0.2469  0.2294
30576W        W45707  15.804   4.482  15.943  0.1286 -0.1942 -0.0745
30577W        W45708   4.856   4.228   4.259 -0.0049 -0.0414  0.3069
30578W        W45709  18.361   7.602   3.422 -0.0598  0.1160 -0.0460
30579W        W45710  15.340   8.686   2.453  0.0103  0.2941 -0.1030
30580W        W45711   5.710  14.051   2.657  0.0573  0.0622 -0.1246
30581W        W45712   8.426   0.560   2.654  0.0096  0.2164  0.3573
30582W        W45713   3.322  17.663  12.029  0.2739 -0.2108  0.0540
30583W        W45714  17.422   9.067  14.148 -0.0384  0.1488 -0.1133
30584W        W45715   3.145  11.235   0.147  0.3057 -0.1917  0.0207
30585W        W45716  15.843   7.910  11.762 -0.0833  0.0205 -0.1672
30586W        W45717   8.321   0.629   4.754 -0.0237 -0.0685  0.0604
30587W        W45718  14.530  10.665  12.384  0.1263 -0.2114 -0.1562
30588W        W45719  16.224  17.801   5.114 -0.1429  0.0949  0.1898
30589W        W45720  16.860  14.978  11.415 -0.2947  0.2793 -0.0930
30590W        W45721   3.902   4.025   1.684  0.0261  0.1640 -0.2321
30591W        W45722   0.917   5.701  11.825  0.0574  0.3194 -0.1931
30592W        W45723   1.014  17.963  11.269 -0.2151  0.2249 -0.5418
30593W        W45724   8.312   6.394  13.449  0.2057 -0.1174 -0.1444
30594W        W45725   9.978  15.072   2.951  0.0227 -0.1054  0.2492
30595W        W45726  11.610   9.382  15.279  0.0411 -0.0523  0.0501
30596W        W45727   0.006  15.862   1.502 -0.2403  0.0633  0.2632
30597W        W45728   8.285   3.762   0.162  0.2370 -0.0972 -0.2042
30598W        W45729  10.377   1.673  13.991  0.1953  0.0735  0.0972
30599W        W45730  12.915   6.025   3.610 -0.0432  0.2004  0.1730
30600W        W45731   6.653   6.095   2.619 -0.0776  0.1326  0.0882
30601W        W45732   8.323   7.915   3.162  0.1068  0.1492 -0.1435
30602W        W45733  16.306  11.342   5.458 -0.2467  0.0668  0.0434
30603W        W45734   6.816  10.993   1.741  0.0354  0.2821  0.0382
30604W        W45735   3.525   1.502  11.806  0.0207 -0.0284  0.0924
30605W        W45736  16.979   7.086   3.243 -0.0463  0.0084 -0.0815
30606W        W45737  10.124  10.793  13.721 -0.0987 -0.0669 -0.0175
30607W        W45738   3.734  17.086  11.813  0.1238  0.1664  0.2625
30608W        W45739  17.504   0.285   2.796 -0.3347  0.0930  0.0199
30609W        W45740  15.881  11.272   3.290 -0.1437  0.1332 -0.1473
30610W        W45741   8.608   8.467  11.180  0.0308  0.3061 -0.2447
30611W        W45742   5.580  10.240  14.486 -0.0846 -0.1814  0.2137
30612W        W45743  11.940  11.645  13.511 -0.0296  0.3235  0.1640
30613W        W45744  12.317   1.060  12.820  0.2304 -0.2732 -0.1754
30614W        W45745  14.092  11.170  13.541 -0.0483 -0.5055 -0.3028
30615W        W45746  13.563   5.446   0.569 -0.1519  0.0974 -0.3932
30616W        W45747  17.145   6.167   4.668  0.1265 -0.2802  0.1675
30617W        W45748   9.017   2.547  11.167 -0.1782 -0.0240  0.1026
30618W        W45749  10.268   2.662  16.087  0.1494 -0.0166  0.3447
30619W        W45750   9.556   6.638   2.374  0.1517  0.2338 -0.3695
30620W        W45751   1.225   9.826   0.327 -0.0655  0.1150  0.4423
30621W        W45752   9.613   3.226   1.067 -0.0321  0.0002  0.0747
30622W        W45753  16.958   7.735  11.394  0.1912  0.0554  0.3010
30623W        W45754   4.927   5.935   3.326  0.0112 -0.2319 -0.2066
30624W        W45755   1.590   2.812  14.089 -0.3644 -0.3902 -0.1885
30625W        W45756  14.741   1.359  12.794  0.0925 -0.0881  0.0994
30626W        W45757  11.965   0.732  10.934  0.1622 -0.0370 -0.0573
30627W        W45758   2.494  11.871  12.849 -0.1663  0.0304  0.0769
30628W        W45759   9.715  13.931  10.427 -0.4142 -0.2528  0.0280
30629W        W45760  10.194   4.066  14.624  0.0765 -0.0263  0.1607
30630W        W45761  10.031  14.757  14.729  0.0392  0.3347 -0.0958
30631W        W45762  14.779   7.487   3.612  0.0250  0.3337  0.1659
30632W        W45763   9.484   2.556  14.889 -0.0740 -0.0480  0.1895
30633W        W45764  17.376  11.628  10.818 -0.0788  0.1413 -0.2921
30634W        W45765  15.974   8.483  15.511  0.1052 -0.0116  0.1395
30635W        W45766   6.147  17.320  14.391  0.0650  0.0162 -0.1456
30636W        W45767  14.200   9.058   0.173 -0.1372  0.0498  0.2052
30637W        W45768   9.540   5.720   3.520 -0.2185 -0.0562 -0.1838
30638W        W45769   6.417  15.734  13.412 -0.0512  0.0294 -0.2325
30639W        W45770  12.024   9.156   3.263  0.2941 -0.2427  0.0475
30640W        W45771   9.790   2.479   0.022 -0.0007  0.3084 -0.1031
30641W        W45772  16.349  10.346   4.352 -0.0675  0.0474 -0.0185
30642W        W45773   2.848   9.418  12.920 -0.3773  0.0701 -0.0027
30643W        W45774  13.418  16.965   5.075  0.0193 -0.0062 -0.2663
30644W        W45775  13.532   5.546  13.068  0.0964 -0.1001  0.0109
30645W        W45776  15.069  10.293   5.238 -0.0170 -0.2238  0.2208
30646W        W45777   0.496   7.795  11.105 -0.1815  0.0574  0.0658
30647W        W45778   1.973  14.938  11.158  0.0334 -0.2642 -0.1917
30648W        W45779   9.804   0.305  13.886  0.0055 -0.1176  0.0115
30649W        W45780   0.585   8.865  14.776 -0.0675 -0.1176  0.4652
30650W        W45781  10.800  16.005  16.113 -0.0399  0.1619  0.1942
30651W        W45782   4.069  17.598   4.667 -0.1742 -0.3075  0.0485
30652W        W45783  10.596  16.522  14.917  0.1208  0.3047  0.1021
30653W        W45784  11.103  15.707  15.126  0.0318  0.2090 -0.0298
30654W        W45785  12.870  10.014   4.893 -0.1783  0.2207 -0.2282
30655W        W45786   5.412   8.185   1.143  0.1746  0.1600  0.1016
30656W        W45787   3.552   9.121  14.862  0.0971 -0.1289 -0.3678
30657W        W45788  15.261   1.871   1.666  0.3154 -0.0685  0.0825
30658W        W45789  12.601  12.452   3.774  0.1975  0.2041 -0.2953
30659W        W45790   7.887  10.424  12.157  0.4445  0.0117  0.1071
30660W        W45791  13.220   2.190  14.774  0.0289 -0.0058 -0.2863
30661W        W45792   5.644  15.607  14.419 -0.0371  0.2847  0.2828
30662W        W45793  13.041   2.589   5.989  0.2476 -0.0154 -0.0614
30663W        W45794  13.113  10.568   3.869 -0.1587  0.0715  0.2527
30664W        W45795   2.758  14.374  16.087 -0.0540  0.1308  0.2867
30665W        W45796  16.032   5.690  15.256  0.3782  0.2046  0.0158
30666W        W45797   1.457   7.634   1.332 -0.1740  0.0094 -0.3227
30667W        W45798  12.619   0.518   0.440 -0.0188 -0.2219  0.0395
30668W        W45799   0.141  14.695  12.606 -0.0035 -0.1104  0.0310
30669W        W45800  15.917   4.149   5.558  0.0684  0.3296  0.2794
30670W        W45801  11.047   6.024   5.085 -0.0195  0.2577 -0.0888
30671W        W45802   1.849  15.976  10.827  0.2266  0.0658 -0.0190
30672W        W45803  11.740   1.426  13.816  0.1977 -0.0130  0.0771
30673W        W45804  17.631  13.372  15.311  0.0618 -0.1961 -0.1784
30674W        W45805  11.405   1.809   4.349 -0.0069 -0.0853 -0.0979
30675W        W45806  17.967  15.884   5.359 -0.0741 -0.0142  0.3532
30676W        W45807   3.730   6.632   3.009 -0.1250  0.1446  0.0894
30677W        W45808   3.974   7.002   2.804 -0.1487  0.1362  0.1648
30678W        W45809   0.974  10.605   4.070 -0.2406 -0.2713  0.1092
30679W        W45810  13.911  14.115   1.792  0.1962 -0.0891  0.0810
30680W        W45811   8.892   2.701   5.431 -0.1288 -0.1665 -0.1813
30681W        W45812   9.572   1.137   1.484 -0.1047 -0.1292 -0.1072
30682W        W45813  14.628   0.076  14.637  0.0057  0.1211  0.0111
30683W        W45814   1.443   2.458  11.670  0.2009  0.1944 -0.2019
30684W        W45815   5.996   8.095  16.067  0.0810  0.2737  0.1976
30685W        W45816   7.238  15.770   4.111  0.0560  0.0557  0.0705
30686W        W45817   5.063  17.502   2.609 -0.0392  0.0238  0.1890
30687W        W45818   7.327  18.195   2.024  0.4024  0.1924  0.2825
30688W        W45819   4.119  17.608  12.718 -0.0467  0.1778 -0.1229
30689W        W45820  16.970   1.344   5.837  0.4044 -0.0146 -0.0273
30690W        W45821   8.019  17.887   1.691  0.1693 -0.2163 -0.1730
30691W        W45822   4.399  14.521   3.679 -0.1362  0.1200 -0.0913
30692W        W45823   1.912   1.809  13.559 -0.0746 -0.1956  0.0697
30693W        W45824   2.981  12.846   5.687  0.2101  0.0899  0.2868
30694W        W45825   8.957  14.998   5.533  0.2868  0.0492  0.2531
30695W        W45826  14.931  15.086   3.700  0.2049 -0.2506  0.1224
30696W        W45827  18.223   9.608  11.803  0.3787  0.0361  0.1196
30697W        W45828  14.834  16.535  14.183  0.1056 -0.2055  0.0424
30698W        W45829  16.589  14.441   0.019  0.0998  0.0982  0.1100
30699W        W45830   2.908   3.329   0.246  0.1168 -0.3912  0.1749
30700W        W45831  16.452   3.284   5.743 -0.0108 -0.1316  0.0897
30701W        W45832  10.203   5.594   4.634 -0.0475 -0.0283 -0.3211
30702W        W45833  13.175  10.131   5.782  0.2537 -0.0722 -0.1034
30703W        W45834  18.239  15.760  11.387  0.1550  0.3110  0.0265
30704W        W45835   8.867   0.006   1.235  0.1289 -0.1552 -0.1931
30705W        W45836   0.313  13.155   0.475  0.1932 -0.0374  0.1640
30706W        W45837   5.445   1.430  14.780 -0.1601  0.2102 -0.6777
30707W        W45838   9.176   9.284   4.011  0.0872  0.0089 -0.2053
30708W        W45839   4.321   2.110  14.340  0.0401 -0.1128  0.1637
30709W        W45840   6.369   8.387   0.221  0.4232 -0.0899 -0.0775
30710W        W45841   4.964  16.729   2.198 -0.1764  0.3448 -0.0793
30711W        W45842  15.706   5.853   3.348  0.0434 -0.1466 -0.2556
30712W        W45843   9.176   4.903   4.260  0.2183 -0.0807  0.1217
30713W        W45844  12.491  15.809   5.291 -0.1756 -0.3375  0.2238
30714W        W45845   2.817   3.211   1.638  0.1554 -0.1133 -0.0821
30715W        W45846   1.401  15.098  11.339  0.1265 -0.0645  0.0593
30716W        W45847  17.247   7.531   2.437 -0.0798  0.0604  0.4169
30717W        W45848  11.058  16.449   1.338  0.0100  0.2099  0.0210
30718W        W45849   3.564  11.060  11.268  0.5937 -0.1187  0.1630
30719W        W45850   4.006  15.231   0.647  0.0177  0.1258  0.2497
30720W        W45851   9.749   4.765  15.252 -0.0795  0.2102 -0.1073
30721W        W45852  15.154  16.087   4.677  0.0757 -0.0753 -0.0458
30722W        W45853  16.456   5.282   1.569  0.1871 -0.1926 -0.1578
30723W        W45854   1.162   6.780  15.007  0.0340 -0.5061 -0.0014
30724W        W45855   0.098   4.093   2.701  0.3170 -0.0409 -0.1738
30725W        W45856  14.736  17.004  14.487 -0.0140  0.1483  0.2391
30726W        W45857  16.625   5.462   4.796 -0.0188  0.1958 -0.0326
30727W        W45858   0.157   5.846   1.054  0.0886 -0.4149 -0.1772
30728W        W45859   0.781   5.480   3.203 -0.2242  0.1567 -0.2463
30729W        W45860   9.439  17.637   3.442  0.0685  0.1599 -0.0209
30730W        W45861  17.961   5.412  14.132 -0.0314  0.1803  0.1306
30731W        W45862  15.089  13.281  14.977 -0.2509  0.0147 -0.3268
30732W        W45863   6.015   8.704  15.081  0.3406 -0.2394 -0.1892
30733W        W45864  10.183  17.928   3.867 -0.1754 -0.0741  0.0171
30734W        W45865   3.183   4.689   4.809 -0.2057 -0.1521  0.1399
30735W        W45866  11.700   8.138   2.987 -0.4857  0.1065 -0.0588
30736W        W45867   9.096  17.408  14.953  0.0211  0.0181  0.0081
30737W        W45868  10.863  11.619   4.365 -0.0665  0.1857  0.2193
30738W        W45869  14.827   7.895   2.240 -0.0241  0.3288 -0.0173
30739W        W45870  12.606   7.034   1.774  0.5378  0.1137  0.1557
30740W        W45871   2.268   9.373   4.943 -0.0527  0.1766  0.1129
30741W        W45872   6.391   7.521  16.127 -0.0043  0.0922  0.2607
30742W        W45873   7.555  15.432   2.199 -0.1878  0.1199 -0.2198
30743W        W45874   6.292  16.253   3.396  0.1108  0.0840  0.0766
30744W        W45875  11.801  15.513   2.674  0.1532 -0.0779  0.4111
30745W        W45876   3.071  17.478  14.810 -0.1788  0.2171 -0.2159
30746W        W45877   4.682  13.965  14.882  0.3383  0.0479 -0.2482
30747W        W45878   2.419  15.185  15.747 -0.3254  0.1444  0.2308
30748W        W45879   7.121  15.151   1.832  0.1411  0.0069 -0.3303
30749W        W45880   6.900   7.899  14.996 -0.0124 -0.1414  0.3541
30750W        W45881   8.063   0.612   3.836  0.0678  0.2168 -0.2053
30751W        W45882   1.291   6.556  12.474 -0.0990  0.1716 -0.1542
30752W        W45883  10.281   4.597  11.563 -0.2037  0.2655 -0.2853
30753W        W45884   3.644   6.521   2.240 -0.0744  0.2430 -0.2096
30754W        W45885   1.720  15.461   4.585 -0.0198 -0.0347  0.0562
30755W        W45886  16.225   8.397  14.134  0.2119 -0.2115 -0.1709
30756W        W45887  11.259   9.305   1.167  0.1054 -0.1733 -0.0613
30757W        W45888  14.605  16.990  15.314 -0.2309  0.0263  0.4349
30758W        W45889   2.367   6.981  12.801  0.0703  0.2699 -0.1258
30759W        W45890  14.176   8.907  12.855 -0.0306  0.1522 -0.2245
30760W        W45891   1.233   0.947   5.025 -0.0975  0.2370  0.0793
30761W        W45892   4.429  17.657  11.448 -0.0481  0.1994  0.0435
30762W        W45893   5.260   0.752  15.606  0.1681 -0.0020 -0.1565
30763W        W45894  16.251  17.775   5.735 -0.1555  0.3404  0.5115
30764W        W45895   1.035   3.984   1.172  0.2649 -0.1819  0.0109
30765W        W45896   1.582   8.338  14.758  0.0221  0.0122 -0.1408
30766W        W45897   7.318  12.894  15.900 -0.1596 -0.3458 -0.1673
30767W        W45898  11.577  12.729  10.696  0.3607 -0.0874 -0.4127
30768W        W45899  15.588   5.123   2.804 -0.1710 -0.0983  0.2287
30769W        W45900  15.903   1.875   3.481 -0.1221 -0.0477  0.1602
30770W        W45901   0.772   8.953   1.407 -0.1167  0.0952 -0.2136
30771W        W45902   0.059  11.860  14.703  0.1530 -0.1603  0.1504
30772W        W45903   6.753  11.487  14.307 -0.3166 -0.0886  0.1973
30773W        W45904   8.794  13.874   5.247 -0.1868  0.0373 -0.1942
30774W        W45905  17.473   9.073  15.835 -0.0879  0.1344 -0.2602
30775W        W45906  12.197   6.268  14.494  0.0281  0.4201  0.2402
30776W        W45907  12.740   9.378  15.687 -0.2425 -0.1481 -0.1512
30777W        W45908   1.962   5.146  13.086  0.0711 -0.0909 -0.1827
30778W        W45909   6.129   8.141   4.116 -0.2852  0.2981  0.0634
30779W        W45910   6.621  11.332   4.999 -0.1368  0.0013  0.0490
30780W        W45911  13.234   2.881   1.889  0.1108 -0.0631  0.0560
30781W        W45912  13.193   7.981   3.165 -0.3587  0.0027 -0.1851
30782W        W45913   3.345  15.742  14.409 -0.2317 -0.0074 -0.1395
30783W        W45914  15.896  13.834  14.724  0.0242 -0.1300 -0.1264
30784W        W45915  16.052   8.794   0.628  0.0068  0.0166 -0.2329
30785W        W45916   2.823  11.474  13.836 -0.2783 -0.0883  0.0119
30786W        W45917   7.212  12.734   2.151 -0.0343 -0.1353 -0.1750
30787W        W45918   2.683   1.568   4.217  0.1435 -0.3877  0.1151
30788W        W45919   8.039  10.513  10.788 -0.2199  0.1113 -0.0611
30789W        W45920   2.608   4.161   3.709  0.0516  0.3105  0.3994
30790W        W45921   3.609  17.175   4.556  0.0733 -0.1690  0.0018
30791W        W45922   4.055   5.426  13.208  0.1805  0.0314 -0.0239
30792W        W45923   1.835   8.449   4.680  0.1071  0.4037  0.3449
30793W        W45924   0.715  10.084  15.277 -0.0615 -0.0665 -0.2419
30794W        W45925   4.998  18.259  13.832  0.1019  0.0169  0.1583
30795W        W45926   5.935   1.274   4.594 -0.1676  0.0324  0.2164
30796W        W45927  16.024  16.231   2.049  0.0488 -0.3214 -0.1357
30797W        W45928   4.638   6.568   1.918 -0.1365 -0.0312  0.0624
30798W        W45929   4.701  13.794   4.136  0.1383  0.1190  0.0784
30799W        W45930   7.796  16.414  11.983 -0.0473 -0.1455 -0.1817
30800W        W45931   4.620  14.336   3.234 -0.0547 -0.3474 -0.0397
30801W        W45932  11.109   5.519   5.206  0.1434  0.2681 -0.0277
30802W        W45933  13.885   0.896   1.720  0.0492  0.1699  0.2618
30803W        W45934  10.259  16.662  13.513 -0.1831  0.0011  0.0926
30804W        W45935   3.136   7.569  12.856 -0.3926  0.1958 -0.2748
30805W        W45936  14.026  15.181  13.621  0.0767 -0.2005  0.4152
30806W        W45937   5.001   5.467   2.694  0.0597 -0.3909  0.1093
30807W        W45938  11.722  16.582  13.080 -0.3104 -0.0459  0.3149
30808W        W45939   8.996   2.822   4.391  0.2688 -0.0436  0.4123
30809W        W45940   8.457   7.276  14.359  0.2296 -0.3892  0.0832
30810W        W45941   8.382   5.632   4.955  0.1092 -0.0587 -0.0526
30811W        W45942   5.329  16.652  11.158 -0.0848  0.0840 -0.2074
30812W        W45943   1.353  17.511   5.563 -0.0123 -0.0635 -0.0129
30813W        W45944  14.716   3.694   1.100  0.0497  0.1116  0.5154
30814W        W45945   0.856  11.984   3.110  0.4858  0.1182  0.1342
30815W        W45946  10.890   0.676   4.532  0.0787  0.0776 -0.0737
30816W        W45947   0.080  16.270  12.679 -0.3367  0.0374  0.3507
30817W        W45948  10.137   5.119  13.882 -0.1283  0.1409  0.1581
30818W        W45949   0.954   0.730  13.729  0.1202 -0.1091 -0.3057
30819W        W45950   1.521  14.142   2.362 -0.2369 -0.1297 -0.1195
30820W        W45951   0.007   0.541  11.831  0.0279  0.0386  0.2703
30821W        W45952   3.848   1.646   4.730  0.3919 -0.0846  0.3028
30822W        W45953  11.118   5.110   2.224 -0.1482 -0.1638 -0.2527
30823W        W45954   7.989  16.185  13.025 -0.1650  0.1677 -0.3078
30824W        W45955   8.868  11.516  12.120  0.0900 -0.1136  0.1974
30825W        W45956   9.458  14.392   3.007 -0.3323 -0.0299 -0.0197
30826W        W45957   3.784  15.644  11.433  0.2212  0.0583  0.0700
30827W        W45958  14.118  11.475   4.058 -0.2707  0.0079 -0.2970
30828W        W45959  13.245  12.480   1.347 -0.0928 -0.0839  0.1245
30829W        W45960  17.115   0.535   2.546 -0.4036 -0.1610  0.0730
30830W        W45961  14.041   2.866  13.722  0.1226  0.0620 -0.0859
30831W        W45962  10.474  13.791   0.110 -0.0340  0.1530  0.1460
30832W        W45963   5.059   7.832   2.340  0.2171 -0.0790 -0.0131
30833W        W45964   9.274  14.895  15.785  0.1175  0.0682 -0.0475
30834W        W45965   1.453   0.394  10.139  0.1254 -0.2226 -0.1234
30835W        W45966   5.628   1.125  10.256  0.3105  0.0012 -0.0594
30836W        W45967   7.157   4.439  15.591 -0.0437 -0.2512 -0.1694
30837W        W45968   9.200  13.019  14.931  0.0230 -0.1716  0.1383
30838W        W45969   1.322   4.309   1.374 -0.1952  0.0231  0.1327
30839W        W45970  14.113  18.173   2.464  0.0168 -0.2784 -0.1954
30840W        W45971   4.307   1.225  15.262  0.4979 -0.2713  0.4099
30841W        W45972   3.436  11.848  11.906  0.0211  0.3718 -0.2228
30842W        W45973  17.731  12.700  12.534 -0.0818  0.3243 -0.0509
30843W        W45974  10.884   3.462   2.605  0.1027 -0.1024 -0.0270
30844W        W45975   0.841  11.489   5.107 -0.0484 -0.0184  0.2515
30845W        W45976   3.647   4.715   4.028  0.1651 -0.0217  0.0133
30846W        W45977  17.524  10.509   9.671 -0.0947 -0.0604 -0.0739
30847W        W45978   8.032  10.257   1.009  0.1397  0.3041 -0.1547
30848W        W45979   5.443   4.922   3.186  0.2523  0.1244 -0.0396
30849W        W45980   2.463   6.208  15.424  0.4983  0.1222  0.4422
30850W        W45981   3.681   8.423   1.667 -0.1694  0.1490  0.2354
30851W        W45982  15.666   4.657  13.057  0.1616  0.0201 -0.3149
30852W        W45983   1.745   1.010  13.139 -0.1294 -0.1761  0.0310
30853W        W45984   6.851   2.657  11.333 -0.1796  0.6556 -0.1629
30854W        W45985  11.451  17.456   0.508  0.0655  0.0263 -0.0137
30855W        W45986   1.010  15.606   5.316 -0.0555  0.1499 -0.1305
30856W        W45987   8.887  10.316  14.748 -0.0391 -0.1231  0.2985
30857W        W45988   7.657   4.552  10.669 -0.1302 -0.1915  0.0011
30858W        W45989  15.327  14.408   0.970  0.0665 -0.0409 -0.1063
30859W        W45990   9.424  12.376  13.140 -0.1202 -0.1012 -0.2096
30860W        W45991  10.624   4.667  15.152 -0.1738  0.0661  0.0280
30861W        W45992  14.555   5.214   3.624  0.2274 -0.2877 -0.1141
30862W        W45993  10.501  10.747  11.327  0.0276 -0.0107 -0.1135
30863W        W45994   4.271   9.880   4.255 -0.1298 -0.0294 -0.0778
30864W        W45995  11.687  12.340  10.449 -0.1359 -0.0732 -0.1186
30865W        W45996  17.393   3.732   0.197 -0.2151  0.1421  0.0124
30866W        W45997   0.785   7.837  15.507  0.0193 -0.2119 -0.1672
30867W        W45998   5.492   6.364   2.689 -0.2340  0.3124  0.0689
30868W        W45999   2.897  15.708  11.620 -0.0972  0.1771  0.1235
30869W        W46000  15.745   7.947  14.780  0.0178  0.3492  0.1070
30870W        W46001  16.489  17.046   5.448  0.2189 -0.2090 -0.1635
30871W        W46002   2.885   1.576  15.456  0.2231  0.1080 -0.0081
30872W        W46003   3.340   0.938  13.999  0.0458  0.2724  0.2234
30873W        W46004   6.345  14.405  13.368 -0.1177 -0.1149 -0.1512
30874W        W46005  15.084   4.686  12.785  0.0728 -0.0082  0.1800
30875W        W46006  12.379  14.902  11.124 -0.2006 -0.0329 -0.1030
30876W        W46007  14.081   0.392  12.618 -0.2180 -0.0496  0.0720
30877W        W46008  11.828   8.700  12.468 -0.1487  0.0454 -0.0625
30878W        W46009   6.306  16.259  14.818 -0.0892  0.1510 -0.2618
30879W        W46010  17.644   9.210   2.138 -0.0107 -0.0339  0.1039
30880W        W46011   8.675  15.321   2.904  0.2878 -0.0435  0.1304
30881W        W46012   5.733   3.029   4.250 -0.0388 -0.0264 -0.0748
30882W        W46013  10.664   4.770  13.285  0.2114  0.0213  0.2133
30883W        W46014   3.492   4.076  12.923  0.2563  0.3766  0.2036
30884W        W46015  11.386  10.371   4.943  0.2919  0.1967 -0.3276
30885W        W46016   3.822  10.064  15.605  0.0853 -0.0193 -0.0864
30886W        W46017   4.796   4.885   4.283 -0.1776 -0.0284  0.0227
30887W        W46018  16.322   7.103   1.526  0.1900 -0.1880  0.2907
30888W        W46019   0.071  14.862   4.725 -0.1825  0.1185  0.0329
30889W        W46020   8.051   3.437   5.895  0.1972 -0.0650  0.3427
30890W        W46021  16.522  15.705  10.641  0.1772 -0.1649  0.3476
30891W        W46022   8.964  11.040  15.220 -0.2744  0.1435 -0.0194
30892W        W46023   1.825  17.735   2.206 -0.0848  0.0223  0.3720
30893W        W46024   0.197  14.972   3.285  0.1122  0.0873  0.2279
30894W        W46025   5.261   5.897   2.874 -0.0535 -0.1557  0.1090
30895W        W46026   7.292   9.783   4.333 -0.1274 -0.0355 -0.3067
30896W        W46027  17.757  13.460  13.016  0.1383  0.2678 -0.0962
30897W        W46028   4.721  15.376   2.677 -0.3082 -0.5676  0.0629
30898W        W46029  16.072   9.069  13.354  0.2625 -0.2719 -0.3840
30899W        W46030  13.156   3.698   3.598  0.0442  0.1567  0.2742
30900W        W46031   7.715   5.588   3.855  0.0854  0.0436  0.2391
30901W        W46032  15.426   4.461  12.395 -0.4267  0.0298  0.1388
30902W        W46033   8.885  10.757   3.819  0.2028 -0.0239  0.0345
30903W        W46034   7.766  18.228  13.655 -0.0078  0.0261  0.3177
30904W        W46035   4.899   8.093   1.952 -0.0589  0.1447  0.1544
30905W        W46036   8.618  15.668   2.513  0.0412 -0.1680 -0.0734
30906W        W46037  10.346  12.028   4.290  0.0056  0.1079 -0.1006
30907W        W46038   0.780  15.289  13.336  0.0797  0.1018  0.3260
30908W        W46039  14.641  18.291  11.396  0.0462  0.0101  0.2193
30909W        W46040  15.549   8.574  14.040 -0.3331 -0.0254  0.0546
30910W        W46041   3.041   7.187  15.700  0.0168 -0.0660  0.0856
30911W        W46042   0.895  10.495  11.329  0.1323  0.1964 -0.2483
30912W        W46043   2.519  14.501  14.186 -0.0879  0.1678  0.0985
30913W        W46044  15.191   5.021  13.205 -0.1500  0.0762  0.1190
30914W        W46045  15.194   6.645  15.604  0.2774  0.0094  0.1471
30915W        W46046  13.885   1.173   0.988  0.2063  0.1537 -0.1334
30916W        W46047  17.882   5.397   1.810  0.0535  0.0006 -0.2349
30917W        W46048   5.435   2.627  12.896  0.2403 -0.0083 -0.0535
30918W        W46049  15.064   2.942  13.271 -0.0192  0.0641 -0.1137
30919W        W46050   8.812   5.886  16.065  0.1181 -0.0621 -0.0150
30920W        W46051  12.098   7.596  14.030 -0.2477 -0.1126 -0.1831
30921W        W46052   4.514   6.079  13.422  0.0957 -0.0173  0.1092
30922W        W46053  18.119  16.098   1.956  0.0577  0.2075  0.1141
30923W        W46054   4.273  13.781   3.870  0.2286 -0.1658  0.1386
30924W        W46055   9.849   9.545  11.013  0.2295 -0.1642 -0.1963
30925W        W46056   0.023  18.263   2.826  0.1377  0.0042  0.2398
30926W        W46057   6.417  13.417  10.378 -0.2784 -0.2307  0.0755
30927W        W46058  15.110  17.164   5.432  0.4562  0.1006  0.0400
30928W        W46059   1.522   6.156  13.251 -0.2552 -0.2627  0.0096
30929W        W46060   0.993  13.250   1.628 -0.0628  0.1914  0.0533
30930W        W46061  14.247   3.914   2.758  0.0875 -0.1749 -0.0383
30931W        W46062  12.102  10.731   4.352  0.0104 -0.0593 -0.2330
30932W        W46063  14.328  14.352  13.046 -0.0452 -0.1190  0.3638
30933W        W46064   2.667  16.127  10.556 -0.1169 -0.0914 -0.1253
30934W        W46065  11.284  12.690  14.296  0.0264  0.1385  0.3493
30935W        W46066   0.665  18.124   1.716 -0.1235  0.0585 -0.0746
30936W        W46067  17.626  17.285   5.309  0.1130  0.1116 -0.2964
30937W        W46068  14.451  17.224   4.863  0.0578  0.1939 -0.2685
30938W        W46069  13.820   3.454   3.859 -0.2364 -0.0624  0.1166
30939W        W46070  11.047   8.108   3.856  0.2566 -0.1351  0.0411
30940W        W46071   4.076  15.751   4.648  0.3369  0.0683 -0.0525
30941W        W46072  13.483   3.688   0.924  0.0967  0.2736 -0.2058
30942W        W46073   5.528   4.072   2.825  0.0119 -0.2414 -0.0556
30943W        W46074   1.660   9.063   4.214 -0.0947  0.1767  0.0032
30944W        W46075   9.250  15.705   4.178  0.1870 -0.1101 -0.2010
30945W        W46076   7.719   7.508  11.168  0.1302  0.1797 -0.3217
30946W        W46077  16.553  18.332   4.467 -0.1063  0.1616 -0.1308
30947W        W46078  10.491  15.117  12.036  0.1104 -0.2871  0.0976
30948W        W46079   6.948  11.970  14.991  0.0924  0.0083  0.1248
30949W        W46080  10.735   2.040  11.947 -0.0867  0.1946  0.1732
30950W        W46081   3.483   3.185   4.184 -0.1734 -0.0711  0.2000
30951W        W46082   1.707   5.312   3.586 -0.2904 -0.2879 -0.0274
30952W        W46083  13.442   0.731   1.931 -0.2898 -0.0563  0.1804
30953W        W46084  15.943   5.341   5.848 -0.2389 -0.2659 -0.1281
30954W        W46085   0.438   2.814   2.617  0.1277 -0.0686  0.0794
30955W        W46086  11.543  15.525   4.727  0.3509 -0.1617  0.2085
30956W        W46087  10.435  14.023   0.659 -0.1432  0.1892  0.2482
30957W        W46088  16.196  10.536   0.059 -0.1321 -0.2395  0.1452
30958W        W46089   6.765   1.429   1.938  0.2079  0.1543 -0.0038
30959W        W46090  14.321   9.297   1.109  0.0435 -0.0155  0.3416
30960W        W46091   6.619  14.182   4.822 -0.0370  0.2494 -0.4002
30961W        W46092   5.726  15.758  13.095  0.0895  0.1051  0.0129
30962W        W46093  12.033  15.908  10.971 -0.1426 -0.0123 -0.2612
30963W        W46094   8.006   0.777  14.324  0.1489 -0.1241  0.0964
30964W        W46095  17.307  17.435  10.082  0.1205 -0.1158  0.0624
30965W        W46096   7.631   7.254   4.570  0.0530 -0.0096 -0.0984
30966W        W46097  14.458   1.626   1.486  0.0863  0.0816  0.0172
30967W        W46098  16.762   4.769   4.208  0.1448 -0.1719  0.0462
30968W        W46099   9.265  11.816  15.467 -0.2021 -0.2231 -0.0283
30969W        W46100  12.454  12.654   4.741  0.0969 -0.2383  0.3242
30970W        W46101   0.458  10.740  11.174 -0.1444 -0.0008  0.1494
30971W        W46102  18.149   4.328  15.295  0.2003  0.2192 -0.0501
30972W        W46103  10.438  13.199  12.730  0.0035 -0.1529 -0.0128
30973W        W46104  16.548   9.907  12.640  0.0535  0.3442 -0.2251
30974W        W46105   1.416   7.190   4.476  0.2561 -0.0424  0.0245
30975W        W46106  17.313   2.665  15.200  0.0449  0.0331 -0.3829
30976W        W46107   2.634   8.116   4.741  0.4073 -0.0855  0.2017
30977W        W46108  12.555  14.140   0.951  0.0742  0.2161  0.3705
30978W        W46109  16.264  12.267  14.027 -0.0993 -0.1345  0.0150
30979W        W46110  15.529   4.604   2.086  0.0920  0.2852  0.1419
30980W        W46111   9.512   6.848  13.676  0.3720  0.1807  0.0816
30981W        W46112   2.610  16.190  14.806 -0.2173 -0.0930 -0.2284
30982W        W46113  12.193  14.663   2.754 -0.1675  0.2662  0.0259
30983W        W46114  11.580  12.033  13.307  0.0604 -0.0722  0.1686
30984W        W46115   9.838  15.060   0.277 -0.1383  0.0104  0.0336
30985W        W46116  15.672  15.784  11.804  0.0523 -0.1848  0.2572
30986W        W46117  16.155   4.885  11.481 -0.0761  0.2250 -0.4826
30987W        W46118   3.244   9.212   2.812 -0.3422 -0.2102 -0.1050
30988W        W46119   1.977   7.430  11.898  0.1652  0.1473  0.0719
30989W        W46120   6.974   6.325   3.889  0.0610  0.1087 -0.0415
30990W        W46121   2.935  14.125   2.745 -0.0422  0.3497  0.0617
30991W        W46122  11.341  12.461   4.261  0.0066  0.1262  0.0182
30992W        W46123   7.951   1.718   1.235  0.0985  0.4865 -0.4603
30993W        W46124  14.308   4.290  15.673 -0.2996  0.0973  0.0659
30994W        W46125  14.948  14.991   1.701  0.0462  0.0119  0.1541
30995W        W46126   3.073  15.337  15.671  0.0201  0.0699  0.0909
30996W        W46127  10.731  15.031   3.181 -0.0141  0.1291  0.1378
30997W        W46128  15.166  17.996  15.258 -0.1072 -0.2728  0.0174
30998W        W46129   6.374  17.277   1.521 -0.1871  0.1183 -0.1416
30999W        W46130   3.174   4.094   3.555  0.1658  0.0703 -0.1024
31000W        W46131  14.633   3.935  13.090 -0.0641  0.1378 -0.1966
31001W        W46132   9.872   5.855   1.203  0.2877 -0.2781 -0.0986
31002W        W46133   7.958   8.166   3.561  0.0376  0.4926 -0.0517
31003W        W46134  14.724   8.289  13.081 -0.2669 -0.1396  0.4931
31004W        W46135  16.279   6.252  11.860 -0.2513 -0.2270  0.1042
31005W        W46136   2.379   3.920   2.699  0.0077  0.1956  0.1944
31006W        W46137  13.388  13.144   4.318 -0.1559  0.0849  0.0756
31007W        W46138  14.965   1.809   4.291 -0.2553 -0.0969 -0.1930
31008W        W46139   3.304  11.587   4.232  0.2598  0.2488 -0.1062
31009W        W46140   0.020   2.826   5.862 -0.0754  0.0060 -0.0274
31010W        W46141  11.783  16.490  14.335 -0.0922  0.2847 -0.2112
31011W        W46142   1.845  14.922  12.117 -0.0086 -0.0736 -0.1108
31012W        W46143  14.471  17.058  13.164 -0.1050  0.1275  0.1058
31013W        W46144  18.199  15.096  13.877  0.1987  0.3309  0.0470
31014W        W46145   7.708   8.676  15.718 -0.1530 -0.0380 -0.3655
31015W        W46146   1.562   5.278   4.653  0.2497 -0.1619 -0.0322
31016W        W46147   9.674   0.147   4.387 -0.1074  0.0350  0.0680
31017W        W46148   8.322   7.742   4.189 -0.2068  0.2189 -0.0195
31018W        W46149   3.712   9.142  15.748  0.2939  0.1409  0.0245
31019W        W46150  10.214  13.243   0.165  0.1084  0.1237 -0.3354
31020W        W46151  15.756  15.041  12.837 -0.0920  0.0196  0.0314
31021W        W46152   6.579   6.970  13.306 -0.2801  0.2364 -0.0349
31022W        W46153  13.611   8.472   1.079 -0.0713  0.0818  0.1119
31023W        W46154   8.252   8.676   4.595 -0.1758 -0.1267 -0.1497
31024W        W46155  11.246  12.125  11.404  0.0246 -0.4100  0.0145
31025W        W46156   7.673   2.593   5.071  0.2115  0.5073  0.0629
31026W        W46157   3.577  17.446   4.068 -0.0567  0.0939  0.1056
31027W        W46158   2.465  12.109  15.805 -0.0816  0.0489 -0.0751
31028W        W46159   5.443  12.760   4.351  0.2494  0.0824  0.2888
31029W        W46160  18.013  14.906  15.321 -0.1019 -0.0279 -0.2181
31030W        W46161  17.821   6.543  11.246 -0.1009 -0.1118 -0.1670
31031W        W46162  15.699  10.948  12.630  0.0662 -0.1590  0.1650
31032W        W46163   2.750   5.525  13.299  0.1211 -0.2835 -0.0214
31033W        W46164   8.297  13.881   4.795  0.3095 -0.0163  0.0098
31034W        W46165  11.271   5.544  14.100 -0.2742 -0.2680 -0.0009
31035W        W46166  13.903   7.006  16.085  0.5493  0.0824 -0.0748
31036W        W46167   6.081   1.829   1.962  0.1559 -0.2793  0.1502
31037W        W46168   7.982   8.079  11.714 -0.0743 -0.1673  0.1146
31038W        W46169  18.210  18.070   3.268  0.2869  0.0849 -0.0026
31039W        W46170   9.034   9.158   2.733 -0.0997  0.0936  0.2304
31040W        W46171   9.189   9.657   9.937 -0.1951  0.0565 -0.1204
31041W        W46172   3.743   7.073  13.849 -0.3952 -0.0239 -0.2974
31042W        W46173  10.425   5.535  13.914 -0.2593 -0.3369 -0.0749
31043W        W46174  16.101  17.590  14.606  0.2030 -0.0024  0.0430
31044W        W46175   1.634   9.652   0.050 -0.1822 -0.0322 -0.0650
31045W        W46176   2.203   8.444  11.791 -0.0973 -0.1004 -0.0865
31046W        W46177  16.705   3.325  15.814  0.1001 -0.1898 -0.1268
31047W        W46178  11.974  12.856   5.197  0.1732 -0.3383 -0.2674
31048W        W46179  13.919  18.164  12.067  0.1625 -0.0950  0.3235
31049W        W46180  17.569   8.450   1.067  0.2044 -0.2850 -0.0850
31050W        W46181  17.952   4.478   0.727 -0.2095  0.2564 -0.3726
31051W        W46182  17.746  12.047   1.510 -0.2631 -0.3794 -0.0085
31052W        W46183  11.544   8.327   4.751 -0.3808  0.1610  0.2268
31053W        W46184  11.810  13.746  13.082 -0.0131 -0.1000  0.1323
31054W        W46185   4.799   8.375  12.319  0.0876 -0.0530  0.1454
31055W        W46186   5.885  14.044  11.013  0.0916  0.0396 -0.0663
31056W        W46187   9.700   6.728   3.485 -0.1253  0.4036  0.1494
31057W        W46188   6.043  16.550   1.716  0.1469  0.3389  0.0953
31058W        W46189   6.751  10.139  15.859 -0.3293 -0.2928  0.2972
31059W        W46190   0.724  17.334   4.177 -0.1416  0.1102  0.0263
31060W        W46191   2.021   5.135   0.955 -0.2961 -0.1448  0.2416
31061W        W46192   5.438  15.011   3.017  0.1185 -0.1117 -0.1169
31062W        W46193   7.438   7.591   1.399 -0.0777  0.1277 -0.1002
31063W        W46194  12.493  14.435  11.329 -0.3685 -0.0473  0.2394
31064W        W46195  13.346   4.112   2.010 -0.1696 -0.2793  0.0574
31065W        W46196   7.093  12.031  13.492  0.1155 -0.1142 -0.1398
31066W        W46197   5.424   9.748  11.982 -0.0649 -0.1549  0.2021
31067W        W46198   8.396   8.990  13.642  0.1437  0.2559 -0.0845
31068W        W46199   5.941   4.522  13.998 -0.0530 -0.1071 -0.1962
31069W        W46200   9.971   6.326   1.345  0.2156  0.1113 -0.5124
31070W        W46201   2.688   9.041   3.678  0.2730 -0.0046  0.3071
31071W        W46202   9.535  11.067  13.013  0.1365  0.2235  0.0681
31072W        W46203   7.714   8.480  11.500 -0.0131  0.2147 -0.1022
31073W        W46204   2.642  18.156   3.111 -0.0478 -0.0537 -0.0107
31074W        W46205  13.756  11.376  10.928 -0.0703 -0.0110 -0.0592
31075W        W46206  15.019  12.449  13.422  0.0106  0.3960 -0.0659
31076W        W46207  14.804  16.804   3.129  0.0763 -0.0475 -0.1927
31077W        W46208   2.884  12.946  13.583 -0.1464  0.1744  0.1702
31078W        W46209   0.882  13.312  11.120 -0.1795 -0.0353  0.1857
31079W        W46210  11.633  13.860  11.404  0.0465 -0.2083 -0.1497
31080W        W46211   7.963  15.963  15.905  0.3279 -0.0467  0.0411
31081W        W46212  12.393   1.113   5.238 -0.0343  0.1389 -0.0577
31082W        W46213  17.871   3.289  14.958 -0.1402 -0.2483  0.3211
31083W        W46214   7.024   0.457   5.141  0.3229  0.0165  0.1976
31084W        W46215   4.356  13.567   0.133  0.2788  0.3684  0.2936
31085W        W46216  15.856  11.833   2.190  0.3820  0.0623  0.0640
31086W        W46217  13.397  11.003  10.596 -0.0540  0.2854  0.0791
31087W        W46218   6.915  18.226  13.117 -0.0561  0.3598  0.1223
31088W        W46219   8.972  10.598  12.944  0.1658  0.1556 -0.0525
31089W        W46220  13.194   0.549   4.659  0.0190 -0.1659  0.3002
31090W        W46221   9.263  10.185   5.086  0.2925  0.0556  0.1133
31091W        W46222   6.762  17.385  15.694 -0.1278 -0.0286 -0.1885
31092W        W46223   3.263  16.747   2.905 -0.0662 -0.1447 -0.0548
31093W        W46224  12.902   4.325  15.349 -0.0843 -0.0734 -0.2595
31094W        W46225  11.771  17.404  11.721  0.0704 -0.1975 -0.0193
31095W        W46226  11.590  17.834  15.727 -0.2306  0.2523 -0.2587
31096W        W46227   3.443   4.037   4.402 -0.0815  0.0783 -0.1032
31097W        W46228   9.360   0.568  13.887  0.0007  0.0330  0.3988
31098W        W46229  11.216   2.197   5.256  0.0844 -0.1669 -0.0069
31099W        W46230   6.861   9.416  12.214  0.4715  0.5434  0.2229
31100W        W46231  10.019   8.307   4.686  0.3012 -0.2685  0.0265
31101W        W46232   2.775  10.082  11.191 -0.3412 -0.0520  0.1040
31102W        W46233   1.286  15.129  12.245 -0.3450  0.5307  0.1425
31103W        W46234   1.222   6.040  12.236 -0.3241 -0.0854 -0.0224
31104W        W46235   5.454  14.303   0.567 -0.3898 -0.0827  0.1184
31105W        W46236  16.790  16.064  10.420  0.2394  0.0189 -0.0023
31106W        W46237   1.229   5.792  15.621 -0.1250  0.1027  0.2370
31107W        W46238   5.536  15.471  13.478 -0.1962  0.1763  0.3180
31108W        W46239   1.844  17.719   5.550  0.0400 -0.3205 -0.1836
31109W        W46240  15.330  12.612   0.130 -0.2512 -0.0887 -0.1454
31110W        W46241   2.341   7.388   4.038  0.0225  0.0531 -0.2104
31111W        W46242  16.552  17.017  10.192  0.0050 -0.0878  0.3359
31112W        W46243   4.235  15.265   4.050 -0.1899 -0.0279  0.2956
31113W        W46244  11.270  14.505   1.718 -0.0649 -0.4510 -0.0345
31114W        W46245  16.503   4.975   2.513 -0.3622  0.2130 -0.1624
31115W        W46246  10.556   9.844   0.961 -0.3551 -0.1498  0.5317
31116W        W46247  12.097   8.305  10.765  0.0946 -0.1924 -0.2652
31117W        W46248  17.965  12.128   5.174 -0.3012 -0.2032  0.0344
31118W        W46249  13.665  15.552  12.690 -0.1026 -0.2426  0.3993
31119W        W46250   4.143   1.812   5.507 -0.3073 -0.1216 -0.0419
31120W        W46251  13.658   4.918   0.143 -0.0154 -0.0107  0.0871
31121W        W46252   2.910  12.573  12.831 -0.1331  0.1188  0.0759
31122W        W46253  10.345   3.983   4.086 -0.1115 -0.0068 -0.0987
31123W        W46254  17.351  17.289   4.905  0.0771  0.2655 -0.0801
31124W        W46255   5.611  16.547  14.113 -0.0960 -0.0487  0.0679
31125W        W46256   9.563   1.974  11.859 -0.0821  0.1714  0.3014
31126W        W46257   7.257  16.280   1.192  0.2760  0.0575 -0.0944
31127W        W46258   6.561  13.210   0.451  0.0561 -0.0757 -0.0241
31128W        W46259   7.192   8.932   0.267  0.4159 -0.1574  0.0130
31129W        W46260   0.682  12.045  12.843  0.2565  0.1657  0.1891
31130W        W46261   8.580   8.064   3.655 -0.2028  0.1229 -0.0388
31131W        W46262   8.198  16.300   3.724 -0.1474  0.1222  0.0133
31132W        W46263   7.452   0.490  12.861  0.0839  0.0815  0.2931
31133W        W46264  18.196   9.828  15.107  0.1312 -0.1472  0.1602
31134W        W46265  12.905  16.965   4.825  0.2493  0.1815 -0.0773
31135W        W46266   4.429   0.071  15.270  0.1623 -0.1849  0.1911
31136W        W46267  15.681   0.974   1.236  0.0138  0.0498  0.1229
31137W        W46268   2.608   4.801   1.995 -0.0609 -0.1708 -0.0290
31138W        W46269   7.574   1.461  11.863 -0.0166  0.1639 -0.0554
31139W        W46270  11.902   2.375  12.587  0.0373  0.2488 -0.2651
31140W        W46271   9.072  14.349  14.023  0.1319  0.0332  0.3270
31141W        W46272   4.568   7.537   3.781 -0.0091 -0.1174  0.1317
31142W        W46273  16.112   7.505  15.913 -0.0284  0.1946 -0.1875
31143W        W46274  18.354   2.538  13.075 -0.2758  0.0557  0.0630
31144W        W46275   0.233  13.903  13.085  0.0411  0.0143  0.0582
31145W        W46276  13.082  13.013   1.345 -0.2755 -0.2492 -0.1284
31146W        W46277   4.315  12.212   4.242 -0.3141  0.1960 -0.1212
31147W        W46278   4.268   0.281  11.461  0.1172 -0.2669  0.2631
31148W        W46279   6.614   4.695   0.071 -0.2465 -0.0318 -0.2802
31149W        W46280  13.472   1.116   2.383 -0.1472 -0.0080  0.0507
31150W        W46281  16.679   1.911   2.232 -0.0682  0.0146  0.0160
31151W        W46282   6.676  10.404  13.142 -0.2009 -0.1126 -0.0041
31152W        W46283   7.050   6.259  15.103  0.1292  0.0011 -0.0805
31153W        W46284  10.700   8.729   3.170  0.1046 -0.1146  0.3217
31154W        W46285  14.034   3.304  11.672 -0.5181  0.0350  0.1238
31155W        W46286   6.053   4.119  14.781 -0.2314  0.2477 -0.0856
31156W        W46287  12.961  15.173   2.488  0.0512 -0.2032 -0.2727
31157W        W46288   6.458   8.320  15.820  0.1759 -0.2264  0.2600
31158W        W46289   9.325   8.575  10.753  0.0731  0.1874  0.0198
31159W        W46290  14.813   2.057   1.461 -0.2131 -0.1024 -0.2455
31160W        W46291  10.030  14.463  15.532 -0.0200  0.3717 -0.1579
31161W        W46292   2.260  16.947   2.634  0.1495  0.2401 -0.0322
31162W        W46293   9.736  17.563  15.548 -0.2492 -0.2210  0.0266
31163W        W46294   1.646   9.877   1.939  0.0701 -0.0889 -0.1827
31164W        W46295  18.187   8.102   1.613  0.2579  0.1307  0.0879
31165W        W46296   6.823   0.638  11.612 -0.1713 -0.0099  0.0336
31166W        W46297   1.539  12.886   4.678  0.1098 -0.0369 -0.2032
31167W        W46298  12.968  12.702  12.595  0.0635 -0.0738 -0.1511
31168W        W46299  14.030   9.704   1.032 -0.0722 -0.1273 -0.2364
31169W        W46300  12.699   0.891   3.610  0.0907  0.2077 -0.3478
31170W        W46301   6.456  12.979   4.134  0.0322 -0.0677  0.0482
31171W        W46302   1.323   8.875  13.967 -0.1452 -0.3951  0.1757
31172W        W46303  16.625   5.368  13.353  0.0093 -0.0336 -0.2197
31173W        W46304   6.119   7.153  15.178  0.1007  0.1708 -0.0215
31174W        W46305  17.098  11.809   4.098 -0.0890  0.2223 -0.2632
31175W        W46306  14.069   4.796  13.475 -0.0283 -0.1829  0.2577
31176W        W46307   2.733   8.788  14.674  0.2992 -0.2302 -0.0852
31177W        W46308  17.500   8.086  16.076  0.1313 -0.1661 -0.2119
31178W        W46309   0.121   6.312   5.174  0.1411 -0.1462 -0.2032
31179W        W46310   9.948   6.539   5.430 -0.0664  0.0093  0.0202
31180W        W46311   2.320  11.211  15.309  0.1060  0.3045 -0.0302
31181W        W46312  11.308  15.058   0.554  0.1776  0.3455 -0.1563
31182W        W46313  11.912  14.248   2.682  0.1182  0.0077  0.1276
31183W        W46314   3.439  11.952  12.954  0.2065 -0.1131 -0.0906
31184W        W46315  17.386   6.519  14.989  0.0997 -0.3480  0.1526
31185W        W46316   8.687   3.670  11.435 -0.0214  0.2992 -0.2831
31186W        W46317   8.528  14.363  11.557 -0.1151  0.4041  0.0507
31187W        W46318  18.310  12.924   1.627 -0.0818  0.4314 -0.2195
31188W        W46319  15.186  13.906   1.102 -0.2724  0.0317 -0.0223
31189W        W46320  10.206  11.653  13.292 -0.2135 -0.0899 -0.2956
31190W        W46321  14.141   1.569   4.914 -0.0507 -0.0295  0.0059
31191W        W46322  17.278  14.707  12.684 -0.2501  0.1462 -0.1689
31192W        W46323   8.645  10.982   2.891  0.1687 -0.3698  0.0921
31193W        W46324   8.949   5.987  14.976 -0.3525  0.2460  0.0745
31194W        W46325   1.796  13.239  11.988  0.3746 -0.2898  0.1710
31195W        W46326   9.391  10.830   0.512 -0.0573  0.1154  0.0945
31196W        W46327   5.434   0.518   5.623 -0.0922 -0.1655  0.0588
31197W        W46328   7.409   8.647   1.137 -0.0935 -0.0169  0.0648
31198W        W46329   6.365   9.170   2.689 -0.1285 -0.2070  0.0086
31199W        W46330  14.938  13.815  12.954 -0.4291 -0.1241 -0.0921
31200W        W46331   1.999  14.119  15.771 -0.2486  0.1050 -0.3275
31201W        W46332   2.435   1.255  15.326 -0.0338 -0.1629 -0.3376
31202W        W46333  11.053  17.531  12.373  0.0190 -0.1945 -0.0700
31203W        W46334  11.765  17.873   0.586 -0.0158  0.0538 -0.1152
31204W        W46335   0.838  18.363   3.125  0.0036  0.2698  0.1686
31205W        W46336  14.053   1.752   5.882  0.0511  0.1846 -0.2802
31206W        W46337   2.996   5.566  13.769  0.0356 -0.0823  0.2567
31207W        W46338   6.532   7.210   3.784 -0.1940  0.1960 -0.2438
31208W        W46339  11.273   0.735  13.225 -0.0864 -0.1367  0.0335
31209W        W46340  17.597  13.102  12.174 -0.1887  0.1770  0.2442
31210W        W46341   2.407  14.774   5.018 -0.0547  0.1418  0.0586
31211W        W46342  10.977  15.555  13.353 -0.0696  0.2758 -0.1970
31212W        W46343  13.686   1.431   4.549  0.2251  0.3439  0.3001
31213W        W46344  11.873  11.394  15.445 -0.3007  0.2663 -0.0862
31214W        W46345   0.877  14.766  15.188 -0.1274 -0.0470 -0.0841
31215W        W46346  14.347  11.156  14.417  0.3304  0.0525  0.1498
31216W        W46347   6.543  13.271  15.482 -0.0348  0.0798 -0.1505
31217W        W46348  16.957  14.779   4.121 -0.1026  0.0174  0.2692
31218W        W46349  13.802  10.335   5.010  0.1005  0.0898 -0.2550
31219W        W46350  15.461   1.971   3.101 -0.3014 -0.0161  0.1131
31220W        W46351   2.253  17.117  13.048  0.1298  0.2008  0.2343
31221W        W46352  11.084   1.657  11.585 -0.4511  0.1027  0.3059
31222W        W46353  14.774  12.552   0.977 -0.1882  0.0522  0.2344
31223W        W46354   3.802   6.565  11.233  0.1104  0.1035 -0.0260
31224W        W46355   4.020   7.561  13.380  0.1558 -0.1581 -0.0552
31225W        W46356   1.208  15.818   3.379 -0.0327  0.1209 -0.1153
31226W        W46357   2.507   1.717   6.078  0.1723 -0.0483 -0.0320
31227W        W46358   1.837  12.877  15.111  0.2595 -0.1253 -0.1854
31228W        W46359  15.219  17.905   5.847 -0.2327 -0.0218 -0.1952
31229W        W46360  16.565   2.812  15.515 -0.5123 -0.1878 -0.0480
31230W        W46361   1.954   8.781  13.478  0.1388 -0.2901 -0.0082
31231W        W46362  17.693   9.072   6.079  0.2581  0.3556  0.1787
31232W        W46363   9.365  10.479  13.248 -0.2147 -0.1463  0.1453
31233W        W46364   4.647   7.356  11.312 -0.0118 -0.1231 -0.0098
31234W        W46365   4.755   3.447   1.758  0.0768 -0.2843 -0.1107
31235W        W46366  17.459  18.164   2.883 -0.2939 -0.1891 -0.3770
31236W        W46367  13.074   9.245   3.064 -0.1297  0.2114  0.0656
31237W        W46368  16.675  12.169  15.649 -0.3483  0.0313 -0.0838
31238W        W46369  16.700   8.416   4.245 -0.2317 -0.2367 -0.0857
31239W        W46370   6.679  15.239  11.796 -0.0597 -0.1736 -0.0824
31240W        W46371  18.044  15.751   6.268  0.3137  0.1501 -0.2805
31241W        W46372  12.568  17.964   0.158 -0.0524  0.0511  0.1284
31242W        W46373   7.858  13.052  15.271  0.2438 -0.2679  0.3169
31243W        W46374  16.461   0.996  14.683  0.2847  0.1354 -0.0398
31244W        W46375   3.208   5.686  14.744 -0.1895 -0.3741 -0.0723
31245W        W46376   2.167   6.196   3.969  0.1452  0.1058  0.0454
31246W        W46377   2.843   7.895   3.785  0.0625  0.2300  0.3141
31247W        W46378   2.856   5.134   5.725 -0.0328 -0.1841  0.1893
31248W        W46379  11.896   5.583   2.477  0.0081 -0.1116 -0.4249
31249W        W46380   1.059   8.478   4.738 -0.1174 -0.2497 -0.0682
31250W        W46381   5.572  18.305   0.522  0.2842  0.0005 -0.1654
31251W        W46382  15.339  14.532   1.569 -0.1326  0.3296  0.0301
31252W        W46383   7.323  13.572  14.123 -0.2264  0.0135 -0.1613
31253W        W46384   2.258  14.085  11.299  0.3285  0.0090 -0.0984
31254W        W46385  14.948  12.674  11.547 -0.0912 -0.1559 -0.0681
31255W        W46386  13.068  11.542   3.510  0.3160 -0.1854  0.0291
31256W        W46387   4.937   0.146   2.870  0.1100  0.0873 -0.1188
31257W        W46388   8.923  12.819   0.724 -0.0641 -0.0483  0.1766
31258W        W46389   5.857   8.008  14.448 -0.0120  0.3936  0.0618
31259W        W46390  17.467   5.758   1.589  0.0305  0.1095  0.4018
31260W        W46391   5.169   4.308   1.929 -0.0683 -0.2292 -0.0212
31261W        W46392   2.764   4.726  14.541  0.0349 -0.1550  0.3155
31262W        W46393  11.187   8.095   0.430  0.2268  0.1990  0.2492
31263W        W46394  13.546   4.534  11.965 -0.2319  0.0434 -0.0986
31264W        W46395   3.340   0.596  15.996  0.1491 -0.1113 -0.2019
31265W        W46396   7.191  14.039  14.496 -0.2767 -0.0266  0.0321
31266W        W46397   4.603   5.476   5.108  0.2635  0.1918  0.2443
31267W        W46398   5.405  16.505  13.542  0.2026 -0.3772 -0.0248
31268W        W46399   5.601   6.675   3.732 -0.4005  0.0088  0.0543
31269W        W46400   5.828  17.121   3.881  0.1472  0.0033  0.4547
31270W        W46401   9.993   7.643   0.576  0.1819  0.0237  0.2241
31271W        W46402   5.654   7.041  12.566 -0.0042 -0.3066  0.1514
31272W        W46403  13.994   9.014   1.899  0.3241 -0.2695  0.0547
31273W        W46404  17.874  13.850   4.692 -0.1570  0.2994  0.1390
31274W        W46405   0.902   7.103  15.232  0.1675  0.0729 -0.1279
31275W        W46406  18.143   1.947   0.186  0.0747  0.3482 -0.4826
31276W        W46407  16.866   1.213  12.783 -0.1390 -0.1112  0.0515
31277W        W46408  14.307   3.056  14.177  0.0050  0.0069 -0.0101
31278W        W46409  12.037   3.146   5.489 -0.0351 -0.1573  0.2617
31279W        W46410   2.353   7.784   3.688  0.1148 -0.0089  0.0014
31280W        W46411   9.304  15.055  11.980  0.1652  0.1214 -0.0375
31281W        W46412  17.814   8.273   2.136  0.0690 -0.1689  0.2682
31282W        W46413  16.090  10.589  11.595  0.1974 -0.1947 -0.0281
31283W        W46414  10.633   5.207   1.269  0.2276 -0.1709 -0.2188
31284W        W46415  15.927  14.134   3.677 -0.0913 -0.1791  0.0700
31285W        W46416   5.054   6.299   2.970  0.0026 -0.0213  0.1134
31286W        W46417   3.058   3.496   6.029  0.2255 -0.3009 -0.0842
31287W        W46418   0.012  11.344   4.979 -0.0082  0.1767 -0.1478
31288W        W46419   1.194  11.841   1.410  0.0444 -0.0929 -0.4637
31289W        W46420   9.485   8.318  13.394  0.0570  0.2534 -0.6085
31290W        W46421   4.533  12.475   4.662 -0.2632  0.2308  0.0841
31291W        W46422  11.447   6.518  13.040  0.0623 -0.1544 -0.3018
31292W        W46423   5.095   6.706  13.059 -0.0671  0.0833  0.0568
31293W        W46424   4.783   3.629   4.287 -0.0887  0.1330 -0.3475
31294W        W46425   7.880  12.762   3.908  0.0615  0.2183 -0.0530
31295W        W46426  11.574  18.133   3.668  0.0534 -0.1657 -0.1753
31296W        W46427   2.995  15.461   2.253  0.3432  0.0730 -0.1711
31297W        W46428  14.036   7.906   3.283  0.0792  0.3850  0.0599
31298W        W46429  14.113   9.764  11.648  0.0937  0.3021  0.1248
31299W        W46430  17.272   0.713  11.822  0.0793 -0.2404 -0.0346
31300W        W46431  10.822   7.928   6.108  0.0064 -0.0016 -0.1565
31301W        W46432   2.859   9.956   2.496  0.1911 -0.2135 -0.0716
31302W        W46433   1.009  10.499   4.954  0.0692  0.2393 -0.1078
31303W        W46434   6.790  17.814  14.916  0.1805 -0.0453 -0.1768
31304W        W46435  15.296  16.896  10.632 -0.1403  0.3771 -0.0501
31305W        W46436  11.876   4.336   1.350  0.2133 -0.0907  0.2336
31306W        W46437   7.462  11.629   0.216  0.0160  0.4207  0.0063
31307W        W46438  11.742  15.609   3.256  0.4588 -0.0742  0.1158
31308W        W46439  14.820   7.656  10.576  0.2316 -0.1407  0.3146
31309W        W46440  17.738  13.761   1.807 -0.1806  0.0033 -0.2527
31310W        W46441  11.994  10.795   6.042 -0.2922  0.2714 -0.0899
31311W        W46442  14.552  12.490  14.776 -0.0550 -0.1226  0.2210
31312W        W46443  17.457   1.872  11.049  0.0110  0.4235  0.1267
31313W        W46444   7.393  17.989   2.919  0.4983 -0.0994 -0.1356
31314W        W46445  11.049  13.724  11.797 -0.2080 -0.0223 -0.0098
31315W        W46446   3.922  12.796  15.722 -0.2974  0.4083 -0.2440
31316W        W46447   5.730   8.586  12.182  0.0066 -0.1098 -0.1610
31317W        W46448  18.183  13.498  15.773  0.2814  0.1086  0.3289
31318W        W46449   5.282  12.518  14.954  0.0705  0.4321 -0.0747
31319W        W46450   8.134  12.986   4.826 -0.2680  0.0520  0.1860
31320W        W46451   0.012   4.809  15.290 -0.2400 -0.1230  0.1276
31321W        W46452  14.095   1.214   3.324  0.0592  0.2008  0.2281
31322W        W46453  16.567  16.820   0.058 -0.1219  0.1630 -0.3966
31323W        W46454   9.365   9.099   0.714 -0.1507 -0.0561  0.1404
31324W        W46455  11.118   5.663   4.692 -0.2433 -0.0241 -0.2509
31325W        W46456  11.379   7.627  11.355  0.0501 -0.1319 -0.1684
31326W        W46457  16.013  12.428  12.414  0.1310 -0.1409 -0.0154
31327W        W46458  14.574   6.577  12.498  0.0767 -0.1597  0.0935
31328W        W46459  12.073  12.341  15.450 -0.3236 -0.3027 -0.0754
31329W        W46460  12.251   2.526  14.398  0.1132 -0.0100 -0.0937
31330W        W46461   2.873   4.878   1.533  0.2459  0.2808  0.0533
31331W        W46462  17.935  10.299   5.627 -0.2075  0.1313 -0.1972
31332W        W46463   1.162   4.595  16.132 -0.2260  0.0111  0.1642
31333W        W46464  13.531   0.787  15.015  0.2551 -0.2317  0.1493
31334W        W46465   6.371  14.855  14.470 -0.0731  0.3075 -0.4036
31335W        W46466   0.304   6.615  11.778 -0.0632 -0.1810 -0.3797
31336W        W46467  15.700  15.585   3.195  0.0928 -0.0351 -0.0541
31337W        W46468  11.079  10.726  13.464  0.2787 -0.0864  0.3163
31338W        W46469   8.114   7.454  14.903  0.0645 -0.0975  0.2133
31339W        W46470   9.333   3.127  14.095  0.1601 -0.2345  0.1468
31340W        W46471  16.864   0.936   2.028 -0.1304 -0.2238  0.1035
31341W        W46472   9.774  14.723  11.078 -0.1765 -0.1907  0.1064
31342W        W46473   3.342   1.593  15.835 -0.0383  0.1551  0.3361
31343W        W46474  17.533  13.683  12.272  0.2798  0.3647  0.2899
31344W        W46475  14.341   8.936   0.622 -0.1081  0.0643  0.0759
31345W        W46476   8.355  11.915   0.266 -0.3932 -0.1108  0.0775
31346W        W46477   8.914   1.285  14.891 -0.1053 -0.0170 -0.1731
31347W        W46478   4.515  15.602  14.284 -0.1936  0.4810  0.0755
31348W        W46479  12.366   5.907  12.754 -0.2371 -0.2491 -0.5121
31349W        W46480  16.994   2.563  15.659  0.4560  0.0038 -0.2095
31350W        W46481   5.426   9.884  11.145 -0.1520 -0.1482  0.3785
31351W        W46482  15.638   2.612   5.612 -0.1483 -0.4859  0.3796
31352W        W46483  11.916   8.248  15.749  0.0181  0.1932 -0.2504
31353W        W46484   2.773  12.106  10.424  0.2947 -0.3268  0.3320
31354W        W46485   2.238   1.322  11.153  0.0526 -0.0512  0.2041
31355W        W46486  12.852   1.674   4.171  0.2605  0.0210 -0.0767
31356W        W46487  14.224   4.879  13.948  0.1523 -0.3116  0.0904
31357W        W46488   0.965   5.321  11.208  0.0261  0.0916 -0.1269
31358W        W46489   2.393  14.399   2.965 -0.0201  0.0631  0.1322
31359W        W46490  10.101   9.782   4.258 -0.0747  0.1946  0.1204
31360W        W46491   2.635   8.807  11.878 -0.2868  0.0962 -0.3924
31361W        W46492   1.208   2.163  15.189 -0.0977 -0.3923 -0.3023
31362W        W46493  10.473   1.582   0.499  0.0318 -0.1511  0.1192
31363W        W46494  14.083   6.241  10.649 -0.0697  0.3015  0.2299
31364W        W46495  12.633   2.129   3.937 -0.2222  0.1446 -0.0317
31365W        W46496  15.539   1.848   0.997  0.0966 -0.3848 -0.0360
31366W        W46497   5.544   4.862   1.732 -0.1863  0.0066  0.0436
31367W        W46498  16.047   2.395  14.714 -0.1002 -0.2466 -0.0658
31368W        W46499   3.654   7.074   4.096 -0.0352  0.3512  0.3101
31369W        W46500  12.640   2.302   1.856 -0.2553  0.0743  0.2419
31370W        W46501  15.682  10.347   0.091  0.5320  0.2184  0.0134
31371W        W46502   9.561   5.146   3.405 -0.0882  0.0976  0.3971
31372W        W46503   3.078   3.236   3.240 -0.2189  0.0679  0.0276
31373W        W46504  17.882   1.833   9.892  0.0079  0.1281  0.2475
31374W        W46505   7.356  16.488   2.781  0.2437 -0.3660 -0.3518
31375W        W46506  10.096  16.911   2.235  0.1188 -0.0372  0.1334
31376W        W46507   9.117   7.214  14.968 -0.2405  0.0122  0.2614
31377W        W46508   4.946   9.646   2.508  0.0688  0.0014 -0.3844
31378W        W46509  13.695   8.954  13.000  0.0673  0.0242 -0.0999
31379W        W46510   9.680   9.495  12.336  0.0942  0.2865 -0.0584
31380W        W46511  12.287  16.217   1.097  0.1895 -0.0289  0.1602
31381W        W46512   4.614  13.648  12.430  0.1453 -0.1096  0.1646
31382W        W46513  17.163   8.981   5.800 -0.0922  0.0302 -0.0227
31383W        W46514   6.023   6.298  10.367  0.0471  0.1823 -0.3827
31384W        W46515  14.172  18.369  15.996  0.1790  0.4694  0.2694
31385W        W46516   6.854   9.364   1.688 -0.0081  0.0726 -0.1257
31386W        W46517   3.980   1.244   2.015 -0.1477 -0.3494  0.0145
31387W        W46518   2.150   2.307   4.980  0.1009  0.3641 -0.3570
31388W        W46519   0.158   4.925   1.112 -0.5365 -0.2157 -0.1661
31389W        W46520   4.282   8.747   4.515 -0.3995  0.0071  0.2072
31390W        W46521  16.180   5.903   3.411  0.2192  0.2768  0.0058
31391W        W46522  14.320   9.167   3.051  0.0577  0.0853 -0.0788
31392W        W46523   6.334  16.562   1.007  0.2203  0.0925 -0.1561
31393W        W46524   0.113  12.887   2.470 -0.0649  0.1024  0.1419
31394W        W46525  16.204  16.477  10.848  0.4329  0.0441 -0.0707
31395W        W46526  16.924  13.893   5.103  0.0850  0.0492  0.0318
31396W        W46527  11.974   1.248   2.449  0.0699 -0.4768 -0.1900
31397W        W46528   6.210   7.495  13.975  0.2591 -0.0946  0.1404
31398W        W46529   3.062   0.559  13.323  0.2279 -0.1250 -0.1132
31399W        W46530   3.983  10.882  11.335  0.1773  0.0755  0.1756
31400W        W46531  10.436  14.916  11.618  0.1742  0.0983  0.2326
31401W        W46532   3.653   7.825   5.199 -0.1632 -0.1361 -0.0600
31402W        W46533   4.488  12.219   5.160  0.1050 -0.3312  0.0186
31403W        W46534   5.710   1.664   4.724  0.2129  0.1497  0.0486
31404W        W46535   9.376   9.780  12.085 -0.3369  0.2722  0.1392
31405W        W46536   6.363  10.096  11.698  0.1014  0.1626  0.1840
31406W        W46537   9.907  16.023   3.492 -0.0469  0.4637  0.2767
31407W        W46538  15.786   6.201  12.113  0.0927  0.2763 -0.1541
31408W        W46539   1.611  16.594   1.608  0.0487  0.0764  0.0174
31409W        W46540  10.849   3.674  12.354 -0.1776  0.0096  0.1575
31410W        W46541   4.069   1.103   0.106  0.1838 -0.2360  0.0882
31411W        W46542   7.155   2.542   5.414  0.1091 -0.0982 -0.4731
31412W        W46543   2.612  13.813  11.047  0.1322 -0.0893 -0.1226
31413W        W46544   9.683  17.562  13.850  0.1049 -0.1965 -0.0706
31414W        W46545  13.472  14.723  14.950  0.0482  0.2959 -0.1859
31415W        W46546  13.699  16.674   0.672 -0.1222 -0.3102  0.1347
31416W        W46547  12.300  16.400  14.459  0.1601  0.0197  0.3371
31417W        W46548  16.959  10.957  12.954 -0.0403  0.3142 -0.0755
31418W        W46549  12.199   6.338  12.525  0.0680  0.1640 -0.3851
31419W        W46550   0.654  14.766   3.414  0.2663 -0.2327  0.1117
31420W        W46551  11.075  10.063  12.688  0.1890  0.1307 -0.4449
31421W        W46552  15.832  11.116   1.183  0.1287 -0.0371  0.1926
31422W        W46553   4.257   5.209   1.141  0.3529 -0.2235 -0.2554
31423W        W46554   0.560  17.607   2.881 -0.1516 -0.2544  0.1208
31424W        W46555   9.895  12.036  12.281 -0.1328  0.4162  0.0326
31425W        W46556  18.148   9.805   3.253  0.0157  0.1447  0.2104
31426W        W46557   8.436   5.910  13.464  0.0490  0.2206 -0.0311
31427W        W46558   4.497   9.934  13.806 -0.0056  0.0901 -0.2982
31428W        W46559  17.105   7.258   5.058  0.1040  0.0131  0.0887
31429W        W46560   8.242  15.281  11.545 -0.2780  0.0405  0.0936
31430W        W46561   6.491  11.206  15.033  0.1468 -0.0776  0.0511
31431W        W46562  15.158   4.799   3.930  0.0473 -0.0066 -0.3428
31432W        W46563   4.094   2.050  12.403 -0.2052  0.0841 -0.3580
31433W        W46564  10.116   3.015  13.681 -0.3828  0.0790  0.1393
31434W        W46565   0.703  14.303  10.722 -0.1129 -0.2093 -0.0837
31435W        W46566   3.764  17.972   0.409  0.0008 -0.1987 -0.1000
31436W        W46567  14.252   3.161   0.895 -0.2261  0.0192  0.0517
31437W        W46568   5.579   2.927   2.769  0.1055 -0.1267 -0.1562
31438W        W46569   2.794   7.751  15.520  0.0210 -0.1199  0.2023
31439W        W46570   4.255  17.610  15.989  0.1325 -0.0525 -0.3136
31440W        W46571   5.973  14.465   1.436  0.1145 -0.1508  0.0409
31441W        W46572  13.928  17.118   6.045  0.3770  0.2421 -0.0421
31442W        W46573  16.168   2.957  13.357  0.1028 -0.1526  0.0479
31443W        W46574  18.266   7.091  11.717  0.1131 -0.2298  0.1448
31444W        W46575   8.190  14.044  14.106 -0.1233 -0.0498 -0.2928
31445W        W46576   9.997   7.739   2.029 -0.1663  0.0399 -0.2965
31446W        W46577  18.317  12.226   2.639 -0.0171 -0.4392  0.3338
31447W        W46578   3.779   8.386   0.446  0.0132  0.0402  0.1090
31448W        W46579   5.252   3.986   5.331  0.0915  0.2205 -0.0241
31449W        W46580  11.064  18.141   3.930  0.2114 -0.1475 -0.0927
31450W        W46581   3.101   4.543  11.443 -0.0324  0.0239  0.0859
31451W        W46582   5.362   4.034  12.549 -0.2687 -0.1107 -0.0244
31452W        W46583  15.894   6.569  11.802 -0.0350  0.0092 -0.3402
31453W        W46584  15.818   7.657  11.245  0.2215  0.0374  0.0585
31454W        W46585  10.779  16.860   2.689  0.1652 -0.4413  0.0039
31455W        W46586  15.185  15.627  13.082  0.0618 -0.2391  0.1517
31456W        W46587   1.627   8.300   0.100 -0.1987 -0.2673 -0.0177
31457W        W46588  16.817  18.072  12.377 -0.1352 -0.1726  0.1296
31458W        W46589   4.897   1.976  11.955  0.3702 -0.1019 -0.0299
31459W        W46590   7.116  13.446   5.069 -0.0593  0.0127 -0.5093
31460W        W46591   0.418   4.009  13.405 -0.3712  0.2007 -0.0820
31461W        W46592  17.082   5.030   0.067 -0.0286  0.2714  0.0034
31462W        W46593   9.312  11.526   1.715  0.3585  0.1279  0.1417
31463W        W46594  12.785   5.933   0.962 -0.0588  0.0001  0.2457
31464W        W46595  10.210  12.641   6.303  0.1213  0.2571  0.0268
31465W        W46596   9.481  13.084   1.090  0.2783  0.0964 -0.0420
31466W        W46597   4.488   3.720   0.995  0.3308  0.0621 -0.2101
31467W        W46598   4.848  14.412  13.383 -0.2605 -0.1793  0.1714
31468W        W46599   0.714  18.010   6.383  0.1909  0.1108 -0.2596
31469W        W46600  14.694   8.996   3.497 -0.1063  0.3525  0.0877
31470W        W46601   7.472   9.158  15.557 -0.2235  0.0485 -0.3252
31471W        W46602   1.148  11.891  11.953  0.1626 -0.3044  0.2593
31472W        W46603   7.645   7.994   2.796 -0.0412 -0.1568  0.3173
31473W        W46604  13.787   1.561   2.420 -0.1266  0.4055  0.0643
31474W        W46605   2.225  10.098   1.869  0.1647  0.4204 -0.5456
31475W        W46606   9.346   0.700  12.723 -0.0762  0.4334  0.1048
31476W        W46607   6.058   8.620   2.890  0.4729  0.1383 -0.2025
31477W        W46608   4.420  10.697  14.965 -0.0415 -0.1138 -0.0234
31478W        W46609   8.065   3.991   2.081 -0.2495 -0.1871 -0.1950
31479W        W46610  17.809   2.687  14.365  0.0239 -0.1784 -0.2063
31480W        W46611  10.324   0.663   6.177  0.1702 -0.1055 -0.0582
31481W        W46612   6.083  13.779   6.150 -0.0785 -0.4176  0.2263
31482W        W46613   5.158  17.854  12.700 -0.0362  0.0303 -0.1736
31483W        W46614   3.868   2.544   1.014 -0.0592 -0.1636  0.2336
31484W        W46615  16.136  12.098  15.509 -0.1588  0.0441  0.1027
31485W        W46616   7.684   4.281  12.094  0.1471  0.0784  0.0412
31486W        W46617  13.954   9.963  14.557 -0.1828 -0.0724 -0.1065
31487W        W46618   2.233   8.163   5.779 -0.1954 -0.1623 -0.0375
31488W        W46619  12.088   1.809   2.963  0.0662 -0.2677 -0.1790
31489W        W46620  10.202  12.491   1.284 -0.1933  0.1038 -0.1745
31490W        W46621  14.391   8.467  15.956  0.1542  0.3534 -0.0896
31491W        W46622  15.575  11.649  15.733  0.1791  0.2696 -0.0192
31492W        W46623  14.262   4.124   3.241 -0.3034 -0.0474 -0.1772
31493W        W46624  11.763   4.741   6.161 -0.3860  0.3455  0.0480
31494W        W46625   7.186   5.561  14.030 -0.0650 -0.0593  0.1034
31495W        W46626  14.202  13.628   2.307 -0.1405  0.0812  0.4013
31496W        W46627   4.387  16.892   2.420  0.0359  0.0911 -0.0647
31497W        W46628   5.124   6.668  10.555 -0.0817  0.0484  0.0414
31498W        W46629   6.920   4.742   4.909  0.0848  0.1897 -0.0492
31499W        W46630  17.621  10.858   4.881  0.0245 -0.1014 -0.0939
31500W        W46631   4.234   9.018  13.371 -0.1553 -0.2584 -0.2531
31501W        W46632  14.698  10.348  15.163  0.2039  0.1574  0.0487
31502W        W46633   9.517  10.300   3.729 -0.0538  0.0003  0.5789
31503W        W46634   4.299  15.568  15.381  0.1644  0.0842 -0.0876
31504W        W46635   8.508   0.167  11.862 -0.2023 -0.0343  0.0990
31505W        W46636   2.008   7.826   4.038 -0.0942 -0.0229 -0.0952
31506W        W46637   7.456   4.817   3.738  0.3732 -0.1289  0.0663
31507W        W46638  14.831  11.614  14.760 -0.1060 -0.2801 -0.0638
31508W        W46639  13.090  11.878   4.280 -0.1936 -0.0069 -0.2562
31509W        W46640   9.539  15.269   1.271  0.2106 -0.0142  0.0440
31510W        W46641   6.652   0.878   2.043  0.1905  0.4840  0.1487
31511W        W46642   9.567   6.723  14.605  0.2626 -0.2795 -0.0249
31512W        W46643  13.278   0.374  14.882 -0.1098 -0.1615  0.0240
31513W        W46644   1.539   5.736   3.811  0.0340 -0.3698 -0.2081
31514W        W46645  10.160   9.428   3.641  0.2099  0.0252  0.1105
31515W        W46646  16.716   0.933   5.852  0.0068  0.2599  0.1518
31516W        W46647   4.123   5.902  14.366  0.4742  0.2760 -0.0426
31517W        W46648   4.874   9.158  14.005 -0.0369  0.0597 -0.0707
31518W        W46649   2.008   4.222   1.450  0.4460 -0.2984 -0.0116
31519W        W46650  15.715   9.454  12.364 -0.3541  0.3012  0.0930
31520W        W46651   5.180   2.481   1.471  0.0547 -0.0321 -0.3037
31521W        W46652  15.725   2.672  10.955 -0.1079  0.0317  0.0032
31522W        W46653   1.707   7.736  12.350 -0.5382  0.3169 -0.1506
31523W        W46654   2.456   7.527  12.093  0.0179  0.0344 -0.1715
31524W        W46655   3.249  10.182  14.825  0.3056 -0.0853 -0.4067
31525W        W46656  15.145  18.175   4.529 -0.2079 -0.2088  0.1508
31526W        W46657  16.693  12.943  13.336  0.1265  0.1238 -0.0740
31527W        W46658   7.717   6.601   1.680  0.0514  0.2701  0.3373
31528W        W46659   4.225  10.418   3.513 -0.0448  0.1524 -0.1257
31529W        W46660  17.857   2.326  13.067  0.1428  0.0687  0.0948
31530W        W46661  15.803  16.139   0.560  0.1095  0.1255  0.1030
31531W        W46662   5.431   2.387  11.112  0.1396  0.2985 -0.0250
31532W        W46663   1.093  12.997   2.186  0.1742 -0.4496  0.0772
31533W        W46664  17.662   3.815   2.468  0.3399 -0.0155 -0.3077
31534W        W46665  18.013  17.056   0.031 -0.2476  0.0380 -0.1046
31535W        W46666  13.431   8.056   0.741 -0.0983  0.5367  0.0111
31536W        W46667  18.291   8.714  15.731  0.0327 -0.0321  0.0513
31537W        W46668   1.768   9.710   0.958 -0.3135  0.1965  0.1522
31538W        W46669   9.601  14.541  15.024  0.1065 -0.1727  0.4120
31539W        W46670  17.640   8.934   4.698 -0.1813  0.2941 -0.1705
31540W        W46671  11.908   6.587   4.447  0.1859  0.0979 -0.0923
31541W        W46672  12.803   9.006   4.896  0.1230 -0.2242  0.1524
31542W        W46673   2.431  14.063  13.213 -0.2200 -0.1324 -0.2581
31543W        W46674  17.535   2.331  11.629  0.3946  0.0884  0.0902
31544W        W46675   1.216   6.705   3.769  0.3432 -0.1477  0.1296
31545W        W46676  11.655   5.854  14.273 -0.2097 -0.3544 -0.0523
31546W        W46677   5.239  15.541  12.695 -0.1678 -0.0710  0.0469
31547W        W46678   4.146  11.217   0.240 -0.0637 -0.1002 -0.3906
31548W        W46679  15.213   9.450  15.680 -0.4116 -0.0894  0.2770
31549W        W46680  15.683  14.072   5.314  0.1505  0.0765 -0.0797
31550W        W46681   7.368   9.816  14.160  0.1547 -0.0711  0.1143
31551W        W46682   1.068   3.166   1.228 -0.0823 -0.2077 -0.0068
31552W        W46683  15.628   2.146   2.001  0.1962  0.1804  0.0198
31553W        W46684   7.121  15.057   3.286  0.2544  0.2231 -0.0383
31554W        W46685   2.316   1.527   3.725 -0.0160 -0.0299  0.1307
31555W        W46686  17.277  12.970   4.667 -0.2953 -0.1652 -0.1039
31556W        W46687   9.364   5.701   4.974 -0.0175 -0.3620 -0.1366
31557W        W46688   9.138   1.238  11.019 -0.0780 -0.1552 -0.2445
31558W        W46689  13.097  13.343   4.816 -0.0642 -0.1631  0.0715
31559W        W46690   5.160  17.656   0.358 -0.1516 -0.3264 -0.0250
31560W        W46691  11.044  11.218   0.683 -0.0446 -0.0628  0.0816
31561W        W46692   1.403   2.298   4.278 -0.2119  0.0679 -0.0691
31562W        W46693   7.119   5.138   1.626  0.1839 -0.0514  0.1501
31563W        W46694   1.606  10.578   1.242  0.2264  0.0327 -0.4227
31564W        W46695  14.697  15.985   5.068 -0.2729 -0.0118  0.0606
31565W        W46696   9.569   7.186   2.380  0.2504  0.1196 -0.0632
31566W        W46697  15.980   3.604   1.447  0.0594 -0.1274  0.2296
31567W        W46698  12.378   7.463  11.162 -0.0552 -0.3858 -0.0004
31568W        W46699   3.161   1.863   2.187 -0.2641  0.1546 -0.3083
31569W        W46700  17.616   0.983  14.854 -0.0956 -0.0747  0.1976
31570W        W46701  17.278  16.779   5.100 -0.1486 -0.3423 -0.1632
31571W        W46702   8.561  15.510  11.010 -0.2755  0.0273  0.2586
31572W        W46703  14.271  17.032   1.190  0.2568  0.0779 -0.0178
31573W        W46704  12.342  11.370  15.739  0.3515  0.1355  0.0019
31574W        W46705  16.697  11.348   0.114  0.2132  0.0191  0.0367
31575W        W46706  11.455   4.236   1.059 -0.1367 -0.0781  0.0319
31576W        W46707  11.647  12.806  13.153 -0.0282 -0.4303  0.0566
31577W        W46708  15.282   0.185   2.368  0.0727 -0.2150  0.1014
31578W        W46709  12.659   8.414  10.755 -0.4216 -0.1327  0.2241
31579W        W46710  15.812   2.710   1.379  0.2549 -0.0799  0.2001
31580W        W46711   2.906  17.151  15.556  0.0518 -0.1989 -0.1360
31581W        W46712   8.954   9.764   3.390 -0.0941  0.1197 -0.0789
31582W        W46713  12.119  10.188  11.641 -0.0731 -0.0782  0.2021
31583W        W46714   7.732   9.550   1.427  0.2556  0.1031 -0.2180
31584W        W46715   0.661  17.530   1.232 -0.2776  0.1559 -0.0123
31585W        W46716   8.089   2.236  10.902  0.1764 -0.1695  0.0620
31586W        W46717  12.229  14.375   4.573 -0.1629 -0.2547 -0.0829
31587W        W46718   9.935   3.246   2.148 -0.0126 -0.0703  0.0096
31588W        W46719   0.367   0.975   1.234  0.2376  0.0997  0.0170
31589W        W46720   4.344  14.211   5.508  0.1674  0.1236 -0.3228
31590W        W46721   5.466  11.212  11.029 -0.0707  0.0461  0.2134
31591W        W46722  13.976   2.044   3.139 -0.0010 -0.0398 -0.2755
31592W        W46723  10.107   1.956   1.333  0.1198  0.0301  0.2875
31593W        W46724  11.424   6.609   4.434  0.0987 -0.0224 -0.0815
31594W        W46725   9.340   4.207  12.644 -0.0396 -0.0241 -0.2951
31595W        W46726   8.024  10.425   1.908  0.1493  0.1668 -0.0470
31596W        W46727  15.584   5.158   1.142  0.1998  0.0063  0.1626
31597W        W46728  13.883  10.185  14.141 -0.2664 -0.2767 -0.0554
31598W        W46729   4.175   3.868   4.631 -0.0665 -0.0519  0.0882
31599W        W46730  13.806   8.402   0.058  0.4248  0.1074  0.3277
31600W        W46731  11.249  11.038  11.134 -0.0147 -0.1118  0.2249
31601W        W46732   8.060  14.246  11.771 -0.0116  0.1092 -0.2378
31602W        W46733   0.388   0.868   0.705 -0.4961  0.3335  0.1560
31603W        W46734  10.127   1.526   2.858 -0.2637  0.0098  0.0774
31604W        W46735  16.704  14.792   0.742 -0.0434  0.0972  0.0490
31605W        W46736   5.626  17.778  12.880  0.2708 -0.1457  0.1262
31606W        W46737  15.360  12.594   3.408  0.0245  0.4389 -0.0189
31607W        W46738  12.617   9.431   5.746  0.1544 -0.3002  0.1660
31608W        W46739   7.630  11.080   3.802 -0.1782 -0.1744 -0.0231
31609W        W46740   3.393  16.336  11.075  0.0840  0.0214  0.0180
31610W        W46741  11.269  18.182  14.214 -0.0390 -0.0384 -0.0254
31611W        W46742   4.148   9.687   1.101 -0.0221 -0.1940 -0.3508
31612W        W46743   9.547  11.779   4.271  0.1721  0.1860 -0.0064
31613W        W46744  16.795  13.930  13.657  0.1063  0.3196 -0.1546
31614W        W46745  13.674  12.711  11.530 -0.1023 -0.1029 -0.1731
31615W        W46746   8.651  16.059   3.644 -0.0233 -0.1633  0.2481
31616W        W46747   0.230   5.678   5.305  0.1629 -0.3408 -0.4078
31617W        W46748  16.608   6.598  11.649  0.1651  0.0790 -0.1563
31618W        W46749   3.105  11.640   3.744 -0.2085 -0.0526 -0.0104
31619W        W46750   4.447   2.986  12.812 -0.1336 -0.0723 -0.1016
31620W        W46751   2.095   8.348  10.285  0.1954 -0.0392 -0.4546
31621W        W46752  10.726  15.516  12.861 -0.1118  0.6435 -0.0077
31622W        W46753   5.610  12.444  12.641  0.1539  0.0712 -0.2941
31623W        W46754   9.309   7.253  15.866  0.0192 -0.1657  0.2399
31624W        W46755   5.013   9.750  13.194  0.2854 -0.0369  0.2083
31625W        W46756  15.755   3.205   1.456  0.0487 -0.0922  0.2442
31626W        W46757   8.466   5.293   5.944  0.0343 -0.1278 -0.2678
31627W        W46758  12.289   4.908   3.664 -0.1972  0.0074  0.0766
31628W        W46759   4.926   4.842  15.152  0.3052  0.0650 -0.1557
31629W        W46760   7.815   8.137   0.335 -0.1760 -0.1055 -0.3887
31630W        W46761  16.385  12.718  12.202  0.1828 -0.0337 -0.0995
31631W        W46762  12.281   3.852  14.664 -0.0801  0.0634  0.0198
31632W        W46763   9.821  10.232   4.256  0.1251  0.1417 -0.0597
31633W        W46764   4.569   0.403   0.487 -0.3026  0.0224 -0.1227
31634W        W46765   7.770   9.103  11.432 -0.3215  0.0268 -0.0283
31635W        W46766   7.577   3.217  12.622  0.0403 -0.1398  0.1599
31636W        W46767  12.996   6.976   3.933 -0.1507  0.1081 -0.3129
31637W        W46768   0.206   3.975  15.347 -0.1838 -0.0983  0.0645
31638W        W46769   3.171  16.153  14.690 -0.0125  0.0718  0.2736
31639W        W46770  15.079   1.334   4.534  0.3580 -0.1347  0.0740
31640W        W46771   8.658  11.752   4.036  0.0553  0.1204  0.0441
31641W        W46772   3.393  18.137  12.234  0.1075  0.1234  0.3517
31642W        W46773  13.262   3.247   2.628  0.1222 -0.0740  0.0015
31643W        W46774   9.479   2.059   3.175  0.2222 -0.1520  0.2582
31644W        W46775   2.575   1.163   3.971  0.1147  0.2694 -0.0600
31645W        W46776   2.327  15.533   5.298  0.3063 -0.0531 -0.1104
31646W        W46777  17.712   5.110  11.108 -0.1947 -0.0333 -0.2530
31647W        W46778   3.910   7.571  10.611 -0.0430 -0.0974 -0.1707
31648W        W46779  12.352  15.793  12.243  0.0114  0.0595  0.1123
31649W        W46780  10.933  11.423   5.368 -0.0317 -0.0030 -0.0312
31650W        W46781  15.507   3.611   1.627  0.2058 -0.1618 -0.0706
31651W        W46782   0.082  11.595  15.120 -0.3012 -0.0104 -0.0864
31652W        W46783   4.794   1.216   2.252 -0.0418  0.0209 -0.0087
31653W        W46784   2.808  11.248  14.321 -0.0152  0.1616  0.3767
31654W        W46785   1.471  10.461  12.314 -0.2833  0.1249  0.2052
31655W        W46786   6.731   4.152  13.388 -0.1535 -0.1268 -0.0141
31656W        W46787   3.611   2.143   2.068 -0.1161 -0.2007  0.1252
31657W        W46788   5.977   8.480  14.348 -0.3081 -0.0735  0.2271
31658W        W46789  14.265  13.236   4.833 -0.0388  0.3151 -0.0509
31659W        W46790   6.477   3.851   2.552  0.0320 -0.0578  0.0475
31660W        W46791  15.453  11.378  14.735 -0.0655 -0.0124 -0.0089
31661W        W46792   9.293  10.392   1.265  0.2127  0.2533  0.2826
31662W        W46793  14.647  15.443  12.304  0.1817  0.1569 -0.4430
31663W        W46794  11.834  17.175   5.588 -0.2785  0.4021 -0.0710
31664W        W46795  15.891  13.884   1.707  0.3837 -0.4383 -0.2770
31665W        W46796   8.802   0.339   2.330  0.0505  0.1515  0.4330
31666W        W46797   5.243   8.270   2.652  0.1549 -0.1077  0.0012
31667W        W46798  13.991  12.676   4.992  0.0033 -0.1436 -0.1926
31668W        W46799   4.159   4.104  13.628  0.1016 -0.0308 -0.1888
31669W        W46800   5.221  18.215   3.083  0.2336  0.2422 -0.1576
31670W        W46801   4.711   1.890  12.701 -0.0898  0.1971 -0.0103
31671W        W46802   2.776  11.757  14.617 -0.0703 -0.1090  0.2502
31672W        W46803   5.186   5.020  12.000  0.1714  0.2273 -0.3087
31673W        W46804   3.053  14.229   0.344  0.2562  0.2508 -0.1343
31674W        W46805  17.557   3.969   3.448  0.1442 -0.0848 -0.1134
31675W        W46806  13.023   1.129  15.281  0.1433  0.2509  0.1267
31676W        W46807  12.144  16.475  13.984  0.0128 -0.1225  0.1256
31677W        W46808  13.978   6.598   1.860  0.0262 -0.1279 -0.2038
31678W        W46809   1.572  14.025   2.958  0.0762  0.0619 -0.2447
31679W        W46810   9.942   5.743  10.408 -0.0476 -0.1993  0.0717
31680W        W46811  17.424   5.250   2.417  0.2112  0.3064  0.1965
31681W        W46812   2.318   9.658  13.135 -0.0158  0.0335  0.1243
31682W        W46813  13.764  12.516   3.261 -0.0393  0.0092 -0.0356
31683W        W46814   3.810  16.207   0.840  0.0686  0.1161  0.1947
31684W        W46815  12.104   0.953  13.748 -0.4519 -0.3038  0.1874
31685W        W46816   8.862  16.937   3.149 -0.1533  0.0441  0.1984
31686W        W46817   1.906  16.999  14.374 -0.1916  0.0020  0.0422
31687W        W46818  16.205   1.104   4.065 -0.0113  0.0552  0.0623
31688W        W46819   3.922  18.326   4.214 -0.1490 -0.2147  0.1115
31689W        W46820  10.457   5.615   3.684  0.2327 -0.2650  0.2066
31690W        W46821  14.397   9.873  15.778 -0.2840  0.1532  0.0582
31691W        W46822   9.673  11.590  15.690  0.4315 -0.1456 -0.0861
31692W        W46823   8.673  13.245   1.587 -0.0977  0.3647 -0.1579
31693W        W46824  10.919   4.966   1.034 -0.1198  0.0157 -0.1866
31694W        W46825   7.196   9.478  10.401 -0.1878  0.1389 -0.3682
31695W        W46826   1.605   0.882  14.423  0.1718 -0.1119 -0.2010
31696W        W46827  11.906   3.779   0.043 -0.2758 -0.1252 -0.2936
31697W        W46828  10.302  14.667   4.784  0.3084  0.1711 -0.2035
31698W        W46829  10.282   3.101   3.618  0.2538 -0.1039  0.1316
31699W        W46830  17.891  16.464  13.297  0.2602 -0.0757  0.1741
31700W        W46831  10.645   4.066  12.131  0.5428  0.1575  0.1974
31701W        W46832   9.111   8.466   4.556  0.3170  0.1941 -0.0843
31702W        W46833   5.726  15.097   1.026  0.2152 -0.2971 -0.1497
31703W        W46834   7.354  12.131   1.364  0.0268 -0.0801 -0.0294
31704W        W46835  17.915   4.061  11.157 -0.1977  0.3875  0.1698
31705W        W46836   0.112  14.195  15.266 -0.2431  0.1178 -0.0191
31706W        W46837   5.726   2.666   1.639  0.0161 -0.0432  0.3700
31707W        W46838   2.675  13.087  12.849  0.1733 -0.2984 -0.0881
31708W        W46839   6.792   7.025  11.336 -0.0285  0.2801 -0.0777
31709W        W46840   3.483   7.005   5.042  0.0026  0.2284 -0.2564
31710W        W46841   6.350  17.863   2.147 -0.1142 -0.2474  0.1706
31711W        W46842   2.378   7.240  13.883 -0.3514 -0.2451  0.0063
31712W        W46843   5.156  11.513   0.858 -0.1786 -0.0768 -0.3233
31713W        W46844   1.381   5.392  13.648  0.0101 -0.1847  0.1013
31714W        W46845  15.153   7.175  15.500 -0.1913  0.0105 -0.2621
31715W        W46846  10.619   0.088  10.441 -0.0255  0.3993 -0.1861
31716W        W46847   0.145  12.238  15.539 -0.0464  0.2442  0.1674
31717W        W46848  12.455  12.086   2.230 -0.1059  0.1939  0.1439
31718W        W46849  10.115   8.718  11.346  0.2469 -0.4311  0.1784
31719W        W46850  14.094   2.997  12.862  0.0585  0.2205  0.1297
31720W        W46851   8.833  13.889  13.222  0.0502  0.1643  0.1720
31721W        W46852   9.657  15.716   2.082  0.0700  0.1411 -0.2065
31722W        W46853   4.114  15.234   0.028 -0.1264  0.1051  0.1079
31723W        W46854   5.447   1.640   1.472 -0.1028 -0.2227 -0.0385
31724W        W46855  14.130   5.262  13.611 -0.1205 -0.1026 -0.1257
31725W        W46856  16.094  14.341   3.048  0.3740  0.0336 -0.0336
31726W        W46857   8.414  12.199   4.255  0.2876 -0.3758 -0.3045
31727W        W46858  12.512   4.370  15.692 -0.4273 -0.2110  0.1827
31728W        W46859  18.041   9.893  13.710 -0.3689  0.2558 -0.1198
31729W        W46860   9.835  17.833  12.832  0.1663 -0.3745  0.0863
31730W        W46861   5.151   2.739  12.379 -0.0881 -0.3623 -0.0600
31731W        W46862   1.394   1.648   2.376 -0.0055  0.2489 -0.0777
31732W        W46863  11.924  10.537   1.390  0.1423  0.3103 -0.4341
31733W        W46864  14.601   7.565  12.535 -0.0719 -0.2617 -0.2836
31734W        W46865   3.839   4.598   2.297 -0.3957 -0.5461  0.2044
31735W        W46866  14.748   3.654  14.666  0.3516 -0.0402 -0.0279
31736W        W46867   3.488   4.483  15.839 -0.3302 -0.0284 -0.0909
31737W        W46868   0.229  13.664  13.598 -0.3054 -0.1684 -0.0541
31738W        W46869  14.188  13.006  15.515  0.2150  0.0493 -0.1020
31739W        W46870  13.237   0.803   5.802 -0.2432 -0.1126  0.0684
31740W        W46871   7.556   3.912  13.938  0.1267  0.3246 -0.0754
31741W        W46872   1.722  13.876  14.440  0.4971 -0.2596  0.0428
31742W        W46873   0.025   2.790  11.449  0.0711  0.2306 -0.0141
31743W        W46874  15.047   2.782  12.663 -0.1352 -0.0550  0.1396
31744W        W46875   1.817   4.686  13.513  0.0723  0.2734  0.1470
31745W        W46876   2.642  16.023   9.912  0.1189 -0.0332  0.0032
31746W        W46877   7.633   5.164  12.384  0.2940 -0.2495  0.0105
31747W        W46878   0.484  15.209  10.930 -0.1123 -0.0078  0.0993
31748W        W46879   9.360  15.052   1.785 -0.0490 -0.1840 -0.1153
31749W        W46880   5.908  13.648   1.266  0.0222  0.1375  0.0246
31750W        W46881  18.322   9.725   2.775  0.1451  0.0736  0.0330
31751W        W46882   6.696  11.558   4.369  0.1992 -0.0314  0.0545
31752W        W46883   8.172   3.416  14.991 -0.0339  0.1493 -0.2383
31753W        W46884   3.359   6.448   1.739 -0.1547  0.1020 -0.1682
31754W        W46885  16.746  15.384  15.801  0.1997 -0.2305  0.2645
31755W        W46886  16.258   1.298   4.521 -0.0739  0.0444  0.1179
31756W        W46887  14.254   6.313  11.109 -0.0444 -0.1897 -0.2882
31757W        W46888   6.579   7.011  10.874  0.4688 -0.2834 -0.0281
31758W        W46889   2.804   1.846  14.543 -0.1997  0.3841 -0.2851
31759W        W46890   5.820  12.475   4.516 -0.3192  0.1414  0.2463
31760W        W46891  11.588   1.501  12.918 -0.1961  0.0538 -0.2148
31761W        W46892   8.985  18.031  13.432 -0.1770  0.1650 -0.4544
31762W        W46893  14.354  16.936   0.687 -0.1502  0.0238  0.0055
31763W        W46894   7.191  13.749  12.400  0.0587 -0.0960 -0.0557
31764W        W46895   8.576   1.570  11.891 -0.2274  0.1767 -0.2862
31765W        W46896   2.661  10.819   1.460 -0.0552 -0.2839 -0.1413
31766W        W46897   5.294   0.055   1.456 -0.0144 -0.1858  0.1454
31767W        W46898  12.417   1.766   4.381  0.1956 -0.1333 -0.1911
31768W        W46899  13.230  15.896  12.454 -0.2092  0.1403 -0.0314
31769W        W46900   1.287   8.466   4.134  0.1823  0.2588 -0.2148
31770W        W46901  17.114  11.754   5.119 -0.3158 -0.1943  0.3161
31771W        W46902  12.722  12.363   0.154  0.1740 -0.1389 -0.2063
31772W        W46903   8.226   2.577  12.304  0.0980 -0.1205 -0.0725
31773W        W46904  14.445  11.117  11.364  0.1314  0.1042  0.1894
31774W        W46905   7.273  11.872  14.107 -0.1791  0.2198 -0.0098
31775W        W46906  17.232  17.485  12.051 -0.2540 -0.6797 -0.4271
31776W        W46907   9.466   4.476   5.958 -0.0194  0.1525  0.1430
31777W        W46908   0.410   0.954   1.929 -0.2864 -0.2226 -0.1545
31778W        W46909  16.100   6.519   0.322  0.0797 -0.2124 -0.1317
31779W        W46910   7.886  13.409   0.928 -0.0360  0.2386  0.3195
31780W        W46911   7.358   7.997  14.483  0.0347  0.1595  0.1458
31781W        W46912  18.357   9.041   3.845  0.1719 -0.0832 -0.0323
31782W        W46913  15.489  13.016   3.580  0.0494 -0.0010 -0.2968
31783W        W46914   9.720  18.054   3.622 -0.3079 -0.1546 -0.1927
31784W        W46915   9.488  12.879  14.049 -0.3229 -0.4216  0.0433
31785W        W46916   4.385   6.192  11.528  0.1972 -0.0046  0.0029
31786W        W46917  10.671   3.465   3.540  0.2100 -0.0268 -0.0223
31787W        W46918   8.339  13.596   0.539 -0.4383  0.1220 -0.1024
31788W        W46919   0.042  16.240   4.576 -0.3474 -0.3365  0.0714
31789W        W46920   7.860  11.232  13.273 -0.1763 -0.0957 -0.0659
31790W        W46921  17.688   7.869  12.629 -0.1211  0.1026  0.3740
31791W        W46922  11.264  12.349  15.781 -0.2640  0.3694  0.1149
31792W        W46923  11.553  10.200  14.950  0.0933  0.0086  0.0332
31793W        W46924   2.120   4.032   3.598  0.0445 -0.0701  0.1323
31794W        W46925  15.435  15.987  14.549  0.3801 -0.0829 -0.1880
31795W        W46926  13.118   7.830  16.096  0.1376  0.0904  0.1319
31796W        W46927   4.079  16.325   5.738  0.1013 -0.2587 -0.1326
31797W        W46928   4.183   2.511   5.833  0.0166 -0.1570 -0.3315
31798W        W46929  14.002  12.666   1.354  0.0164 -0.1682 -0.3261
31799W        W46930  12.460  10.611   1.125  0.3234  0.3559  0.1866
31800W        W46931  15.512  10.508  12.352 -0.2225 -0.1573  0.0793
31801W        W46932  17.258   8.949  15.014  0.0728 -0.0470  0.0131
31802W        W46933   8.818  12.934   2.776  0.0768 -0.2259 -0.0852
31803W        W46934   8.887   0.629  15.724 -0.0801  0.1972 -0.1401
31804W        W46935  16.551   0.032  12.996  0.1103  0.0776 -0.0356
31805W        W46936   3.560   7.719  15.123  0.1698 -0.1459 -0.2433
31806W        W46937  11.243  14.953   1.485 -0.0736  0.2178 -0.2790
31807W        W46938   9.240   7.967   3.232 -0.0091  0.0334  0.2269
31808W        W46939   4.645  15.357  10.946  0.4035  0.1896 -0.3171
31809W        W46940  17.046   2.931  11.260 -0.3652 -0.1343 -0.1585
31810W        W46941  13.525   0.430   0.287 -0.1144  0.2803  0.2108
31811W        W46942   2.114   6.011   0.581 -0.2895 -0.0351  0.1915
31812W        W46943   9.467   9.529  14.441 -0.1663  0.1915 -0.2733
31813W        W46944   5.290   1.261  15.685  0.2468  0.0861  0.2584
31814W        W46945  14.229   8.354  12.911  0.0490 -0.1314  0.0248
31815W        W46946   6.267   8.756  11.356  0.0917 -0.1580  0.1653
31816W        W46947   3.649   6.006   5.261  0.0674  0.1102 -0.1063
31817W        W46948  10.024   3.359  11.454  0.0922 -0.0532  0.1625
31818W        W46949  16.368   4.423  13.795  0.4333  0.0021 -0.4486
31819W        W46950   7.457   3.477  15.234  0.0551 -0.1297  0.2873
31820W        W46951   8.913  14.933   9.699 -0.0304  0.3238 -0.1553
31821W        W46952  13.148   5.791  13.319 -0.0181 -0.2164 -0.1266
31822W        W46953   3.397   0.646   3.804  0.4194  0.2850 -0.3049
31823W        W46954  10.286  12.895  13.290 -0.2018  0.0215  0.2981
31824W        W46955   4.588   7.905  14.121  0.1062  0.1117  0.0501
31825W        W46956   2.725   4.859  16.062  0.0202 -0.2659  0.0186
31826W        W46957  15.434  16.698   3.960 -0.1890 -0.4110 -0.2748
31827W        W46958   3.304   6.297   4.671  0.0111  0.1107 -0.2083
31828W        W46959   7.689  14.436  10.944  0.1295  0.0630 -0.0236
31829W        W46960  10.966   3.186  11.597  0.1503 -0.0265  0.3295
31830W        W46961   5.602   5.321  15.334 -0.1522  0.0336  0.0977
31831W        W46962  14.740   1.263   1.290  0.1399 -0.0919  0.0682
31832W        W46963   7.361   8.677   3.530  0.1820  0.2935 -0.0571
31833W        W46964  12.674   7.756   0.946 -0.0155 -0.1985 -0.2568
31834W        W46965   1.945  16.602   5.547  0.1581 -0.1160 -0.2061
31835W        W46966   8.006   7.765  12.113 -0.0235  0.1362 -0.0374
31836W        W46967   3.640   9.270   3.533  0.2914  0.1778  0.1016
31837W        W46968  15.022   0.301   4.577 -0.0308 -0.1603  0.0184
31838W        W46969   9.918   9.320  13.908 -0.1053 -0.2442 -0.2841
31839W        W46970   6.108  13.623   1.907  0.0847  0.0706  0.0078
31840W        W46971   4.968   9.605   3.801  0.2809  0.1163 -0.1083
31841W        W46972   3.273   6.436  15.834 -0.0319 -0.3582 -0.1319
31842W        W46973  15.344   3.952   0.335 -0.0647  0.0794  0.2098
31843W        W46974  16.077   3.894  13.582  0.0469 -0.0073 -0.2169
31844W        W46975  12.821   6.128  11.968  0.2631  0.1661  0.2805
31845W        W46976   4.639   2.130   0.341  0.0782  0.1258 -0.3039
31846W        W46977   2.121  13.226   0.864  0.0552  0.0218 -0.0619
31847W        W46978   9.355   9.219  10.924  0.1104  0.1048  0.2687
31848W        W46979  14.587  10.771  11.896 -0.0545 -0.1749 -0.1326
31849W        W46980   8.635  17.640  14.767  0.3328 -0.1477  0.0980
31850W        W46981   0.808   5.556   2.241  0.2409 -0.0923 -0.2311
31851W        W46982   8.851  13.096  12.667 -0.0300 -0.4196 -0.0461
31852W        W46983  16.814  13.306  15.500 -0.0009 -0.1270  0.1064
31853W        W46984   3.534  17.698  12.502 -0.0927  0.0636 -0.2458
31854W        W46985   8.463   9.473  11.392  0.3472  0.0286 -0.1445
31855W        W46986   0.782  13.568   4.247 -0.0087  0.0146 -0.1573
31856W        W46987  17.292  13.842  13.852 -0.0578  0.0820 -0.2351
31857W        W46988  11.487   8.135  13.313 -0.0778 -0.1637 -0.1110
31858W        W46989  14.945  14.644  15.138  0.2659  0.2194  0.0415
31859W        W46990  10.854  14.542   3.910  0.1190 -0.0086  0.2268
31860W        W46991   9.982   7.565  12.724 -0.1523  0.2925 -0.0354
31861W        W46992  18.321   2.648  15.895  0.0162 -0.0933 -0.0645
31862W        W46993  13.853   1.542   3.069  0.1152  0.1099 -0.0915
31863W        W46994   9.243  15.204   4.452  0.0465  0.1180  0.2060
31864W        W46995   5.848  11.896  11.418 -0.1837 -0.0436  0.0843
31865W        W46996   7.742  18.352   0.643  0.2751  0.3708  0.0525
31866W        W46997   3.189   7.118   3.374 -0.1637  0.1222  0.1450
31867W        W46998   0.283  16.528  13.591 -0.2271  0.0617  0.0642
31868W        W46999  13.267  16.040   1.083 -0.1529 -0.0321 -0.1827
31869W        W47000   9.986   5.445  14.231  0.1959  0.4336 -0.2893
31870W        W47001   6.231  12.248  13.884  0.2525 -0.0103  0.2444
31871W        W47002   4.675  14.800   2.350  0.0656  0.0324  0.0458
31872W        W47003  14.137  10.126  10.120 -0.1621  0.0278  0.1369
31873W        W47004   9.082   8.519  14.740 -0.3495  0.2924  0.0319
31874W        W47005  11.864   2.547  14.714 -0.3176 -0.2119 -0.0646
31875W        W47006   0.425   0.384  11.618  0.1202  0.0674 -0.0166
31876W        W47007  13.989   5.757   0.449  0.3510 -0.0240  0.2214
31877W        W47008  14.785  13.446  12.575 -0.0670 -0.3793  0.0596
31878W        W47009  18.210  17.694  14.044  0.0513  0.1257 -0.0713
31879W        W47010  13.791   1.071  11.870 -0.2170 -0.1036  0.1366
31880W        W47011  18.248   0.915  11.021  0.1401 -0.1269  0.1049
31881W        W47012   4.445  15.627   1.002 -0.2178 -0.3404 -0.2785
31882W        W47013   5.787   6.389  13.285  0.1515  0.2611 -0.2661
31883W        W47014  12.030   4.108  12.652 -0.1753  0.0443  0.1617
31884W        W47015  17.753  18.317   4.552 -0.0890  0.1720 -0.0292
31885W        W47016  10.702   3.953  14.430 -0.0177 -0.3363  0.0224
31886W        W47017  15.160   4.416  15.872  0.1544  0.2376  0.1304
31887W        W47018   1.214   6.723   1.364 -0.1404 -0.5189 -0.0922
31888W        W47019  11.354   2.544  14.843 -0.0027  0.5037  0.0777
31889W        W47020  15.324   3.014   5.600  0.1037 -0.1564 -0.3887
31890W        W47021  14.793   4.324   1.896 -0.3738 -0.2253 -0.0707
31891W        W47022   8.079   7.287   4.222  0.1006 -0.0419 -0.1422
31892W        W47023   3.243   2.407   4.837 -0.3052 -0.2026 -0.2195
31893W        W47024   5.819   7.590  12.608 -0.2090 -0.0200 -0.2563
31894W        W47025  14.565  12.799   9.970 -0.1040  0.4692  0.2088
31895W        W47026   1.275   0.683   5.762  0.1325 -0.1207  0.1921
31896W        W47027   1.024  17.587  12.605  0.1998 -0.3357  0.6170
31897W        W47028  17.522  16.548   0.489  0.0995  0.1174 -0.2581
31898W        W47029   6.130  11.569   4.984  0.2125  0.0426 -0.0605
31899W        W47030  15.963   2.889   3.821  0.1079  0.3305  0.0636
31900W        W47031  13.741   0.424  15.999  0.1686  0.0433  0.0298
31901W        W47032   1.257   4.774   1.064 -0.1562 -0.4784 -0.0476
31902W        W47033   8.673   2.651  12.156  0.1607  0.0101  0.2957
31903W        W47034   8.644   8.793  12.659 -0.1994 -0.2596 -0.2506
31904W        W47035  11.877  12.166  12.678  0.0652  0.0230 -0.0661
31905W        W47036  11.077   1.574  13.989 -0.3317  0.3941  0.0496
31906W        W47037   3.511   5.830   0.574  0.0351  0.1658  0.1752
31907W        W47038   4.783  10.159  12.278  0.1809 -0.4601  0.0126
31908W        W47039  13.102  11.738   0.697  0.1729 -0.3466  0.1274
31909W        W47040   9.779   3.090  15.756 -0.0176 -0.0147 -0.2255
31910W        W47041  17.265   9.140   2.503 -0.2711  0.1657 -0.2138
31911W        W47042   3.274   9.478  14.616  0.1834  0.1520  0.0312
31912W        W47043  13.938   8.376   1.473 -0.3878 -0.0844  0.1691
31913W        W47044   5.303  16.701   5.552 -0.3524  0.1948  0.1386
31914W        W47045   2.656  15.036   5.379  0.0058  0.2475 -0.1026
31915W        W47046  12.082  12.759   3.881 -0.3019  0.0794 -0.1155
31916W        W47047   7.409   6.848  13.805 -0.0183 -0.1711 -0.0730
31917W        W47048   5.952   6.941  11.539 -0.0839 -0.0598  0.2249
31918W        W47049   0.095   8.284  15.706  0.2707  0.2216  0.3251
31919W        W47050  14.690  17.874  14.821 -0.0000  0.0149 -0.2158
31920W        W47051  17.612  11.316  14.162 -0.0603 -0.1195 -0.0536
31921W        W47052  10.034  15.587  13.725 -0.0617 -0.2621 -0.0378
31922W        W47053  13.824   6.773  14.241 -0.2558 -0.4278  0.2197
31923W        W47054  11.523   4.466  13.113  0.0432  0.0761  0.0190
31924W        W47055   8.888  13.511   0.490  0.0079 -0.0583 -0.2154
31925W        W47056  13.934   2.721   3.732  0.1852  0.0287 -0.1245
31926W        W47057   6.434   1.932   5.190 -0.0111  0.0223  0.0629
31927W        W47058  17.852  13.601   1.299  0.0311  0.0639  0.0303
31928W        W47059   9.436  15.420   0.476  0.0698  0.0974  0.0950
31929W        W47060   7.961   7.037   0.112 -0.1212  0.0092 -0.0351
31930W        W47061   2.223  13.036  11.118  0.4332  0.1324  0.1104
31931W        W47062   3.185   3.451   1.894 -0.2116 -0.0845 -0.0488
31932W        W47063  15.695   1.188  11.270 -0.1697 -0.0548  0.0004
31933W        W47064   9.474   2.347   3.721 -0.0873 -0.0844  0.0835
31934W        W47065  16.467   6.198   3.135 -0.1408 -0.2446 -0.1329
31935W        W47066   2.702   6.722  15.557  0.0429  0.0312  0.0134
31936W        W47067  13.862  14.838   2.634  0.1296  0.1396 -0.0859
31937W        W47068  18.142  13.416   0.308  0.0489 -0.0850 -0.1144
31938W        W47069  13.754   9.283   1.113  0.3634 -0.3542 -0.0285
31939W        W47070   3.491   7.875  14.387 -0.0116 -0.0194 -0.1406
31940W        W47071  16.372   3.795  10.673 -0.1067  0.1265 -0.3946
31941W        W47072  17.815  12.315  15.949 -0.1286 -0.1377 -0.2627
31942W        W47073   2.121   0.423   3.092 -0.2321  0.1398 -0.2344
31943W        W47074   3.655   8.810   9.862  0.0819  0.0829  0.3649
31944W        W47075   3.814   0.288  15.881 -0.3702  0.0457  0.0682
31945W        W47076   8.148   7.722   3.621 -0.0315  0.2399 -0.0166
31946W        W47077  14.037  14.900  10.573 -0.0786 -0.1333  0.1341
31947W        W47078  15.665   1.310  15.730  0.3255 -0.0320 -0.3818
31948W        W47079   1.490  12.160  11.665 -0.3493 -0.0973  0.1661
31949W        W47080   9.405   9.688   0.163 -0.4432  0.2932 -0.0037
31950W        W47081  17.241  12.391   0.926  0.0900  0.4243 -0.0219
31951W        W47082   7.111  15.075  12.521 -0.1961 -0.0240  0.2688
31952W        W47083  16.173  10.106  12.891  0.0954 -0.0832 -0.1408
31953W        W47084  16.054   1.215   4.927  0.3111 -0.3954 -0.0820
31954W        W47085  10.726  11.144  15.604 -0.0364 -0.0704 -0.2296
31955W        W47086  14.989   4.330   2.588 -0.1450  0.4790 -0.3642
31956W        W47087   4.969   5.472  13.503 -0.3741 -0.0895  0.0329
31957W        W47088   9.415  17.246   3.752  0.2392 -0.0003 -0.0879
31958W        W47089  12.374   6.428  15.327 -0.1259 -0.0814 -0.0080
31959W        W47090  12.930  11.686   6.211  0.0550  0.2922 -0.0440
31960W        W47091   8.065   0.258   0.389 -0.0731  0.1489 -0.1633
31961W        W47092  12.198  13.002  14.103 -0.0567 -0.2376  0.1437
31962W        W47093   7.712  18.006  15.526  0.1049  0.0175 -0.0671
31963W        W47094   4.610   8.692   5.819  0.0805 -0.0750 -0.1810
31964W        W47095   6.515  12.825  11.653 -0.3478  0.3148 -0.1754
31965W        W47096   5.835   9.061  12.139 -0.3328  0.1931 -0.1430
31966W        W47097   9.884   8.969  14.754 -0.0489  0.0604  0.0148
31967W        W47098   3.204  17.171   0.701 -0.1323  0.2367 -0.1072
31968W        W47099   4.921  15.158   3.105 -0.2871  0.0770  0.0325
31969W        W47100   1.875   3.361  10.783  0.0164 -0.3713 -0.0153
31970W        W47101  13.495  14.689  12.029  0.0007  0.0035  0.1009
31971W        W47102   6.611   3.347  10.875  0.2085  0.3385 -0.1113
31972W        W47103  10.858   2.470  14.996  0.2714 -0.0331 -0.0887
31973W        W47104  12.928  12.176  15.834  0.0118 -0.0668  0.0503
31974W        W47105  14.277   8.481  13.814 -0.2199 -0.0387 -0.2504
31975W        W47106   5.916   9.472   1.145  0.1858  0.1700  0.0167
31976W        W47107   8.938  17.022  12.587  0.3331  0.0498 -0.2428
31977W        W47108   6.173  17.149  15.835 -0.0168 -0.3735 -0.1220
31978W        W47109   7.288   8.305  13.540 -0.0535 -0.2807  0.0215
31979W        W47110  12.446  10.810   5.793 -0.2300  0.1177  0.0180
31980W        W47111  12.434   2.378  15.390  0.3072 -0.1285 -0.1743
31981W        W47112   6.824   6.610   1.772  0.3009  0.1048 -0.1683
31982W        W47113  12.368  11.397  13.804 -0.0032  0.4230  0.0287
31983W        W47114  14.327   0.446  14.767 -0.3517 -0.0623 -0.0246
31984W        W47115   8.895   9.143  11.459 -0.5444  0.2479 -0.0689
31985W        W47116  14.174  11.562   0.503  0.2821  0.1132  0.1912
31986W        W47117  10.707   2.676   3.178 -0.0056  0.1181 -0.1485
31987W        W47118   3.822  12.515  16.140  0.0970 -0.3584 -0.0432
31988W        W47119  10.401   6.347   1.920  0.0481 -0.1774 -0.1665
31989W        W47120   6.881  14.615  13.451  0.2419  0.0330  0.0796
31990W        W47121   9.141  17.552  15.559 -0.1125 -0.0616  0.2679
31991W        W47122  14.803  13.221  10.305 -0.0162 -0.0175 -0.3183
31992W        W47123   5.086   2.836   2.700  0.0430  0.0135  0.1482
31993W        W47124   5.732  16.136  12.083  0.2067  0.1518  0.1680
31994W        W47125   4.275   5.752  12.898  0.0675 -0.2462 -0.0435
31995W        W47126  11.105  10.578   1.937 -0.3123 -0.1718  0.3682
31996W        W47127   3.878  13.434  14.842 -0.0998 -0.1531  0.0294
31997W        W47128   9.898   2.411   4.008 -0.1787 -0.3312 -0.1118
31998W        W47129  17.059   6.594  12.935  0.4158  0.1398 -0.0133
31999W        W47130  16.694  12.997   5.503 -0.1731 -0.1703  0.1445
32000W        W47131   3.266  11.167   4.484  0.1199 -0.2411 -0.0124
32001W        W47132  13.845   0.941  13.353 -0.0790  0.2668 -0.1610
32002W        W47133  11.132   0.619   5.965  0.3228 -0.3023 -0.0614
32003W        W47134  10.479   9.075   2.896 -0.1492 -0.1726  0.4180
32004W        W47135   8.502  10.514  12.931 -0.1889  0.0829  0.2029
32005W        W47136  11.002   7.290  16.037 -0.0551  0.4508  0.3267
32006W        W47137  16.867   1.766   2.753  0.1714  0.0065  0.1108
32007W        W47138   5.931   4.608   0.961 -0.1885 -0.1029  0.0180
32008W        W47139  13.737   2.760   1.005 -0.1359  0.0501 -0.0023
32009W        W47140  17.573   2.288   2.517 -0.1500 -0.2749  0.1838
32010W        W47141  14.769   9.689   1.648  0.1469  0.3570  0.1153
32011W        W47142  17.512  17.929  14.785  0.3181  0.0732 -0.2220
32012W        W47143  15.966  13.981   2.658 -0.0521  0.0119  0.0274
32013W        W47144   5.051  11.548  12.684  0.0050 -0.0633 -0.0543
32014W        W47145   1.209   3.430  11.421 -0.0916 -0.4095 -0.0297
32015W        W47146   7.198  15.063  11.695 -0.1943 -0.1484 -0.1303
32016W        W47147  12.676  11.248   1.684 -0.0939 -0.0398  0.0269
32017W        W47148   0.435  12.962  13.482 -0.2679  0.2113 -0.2371
32018W        W47149  12.726   3.761  11.349 -0.0744 -0.0221  0.0025
32019W        W47150  18.309   3.875  13.259 -0.1842  0.2908  0.0540
32020W        W47151   0.904  17.376   5.631  0.4403  0.0583 -0.3186
32021W        W47152  18.301   3.341  12.234  0.2407  0.0217 -0.0192
32022W        W47153   8.301   3.547  12.220 -0.0889 -0.3085  0.2261
32023W        W47154   8.528  15.373   0.098 -0.1598 -0.2106  0.0335
32024W        W47155   8.268  15.225   2.646  0.1514 -0.0174  0.0254
32025W        W47156  11.733   5.680  13.122  0.0994  0.0862 -0.0465
32026W        W47157   0.710  18.306   0.416  0.2223  0.2427 -0.1404
32027W        W47158  10.022   2.359   4.521  0.3284 -0.0248  0.2103
32028W        W47159  10.175  17.866  11.297 -0.0946 -0.1889 -0.0278
32029W        W47160  17.193  12.595  11.752 -0.2994 -0.4532 -0.2082
32030W        W47161   2.826   2.366  13.969  0.1323  0.0218 -0.1918
32031W        W47162   3.167   9.200  15.799  0.0052  0.2199 -0.0533
32032W        W47163  14.333  13.959  15.997  0.0252 -0.2368  0.3532
32033W        W47164  14.910  10.040  14.805  0.0804  0.0392  0.1104
32034W        W47165  16.218   6.263   1.975 -0.0807 -0.8294 -0.1879
32035W        W47166   7.026   3.186   1.963 -0.0932 -0.2073 -0.0209
32036W        W47167  17.195   7.320  11.243  0.0492 -0.0196  0.3162
32037W        W47168   2.275  12.479  14.122 -0.0030  0.0395 -0.1128
32038W        W47169  16.681  10.865   4.492  0.3461  0.2089  0.2570
32039W        W47170   9.803  10.660  15.336 -0.3075 -0.3223  0.1513
32040W        W47171  11.278   1.716   2.732  0.0900 -0.2581 -0.1411
32041W        W47172   9.408  11.819  13.462  0.0953 -0.1709  0.3263
32042W        W47173  15.406   9.811   4.146 -0.0260 -0.0956  0.0106
32043W        W47174   7.201   7.507  14.495 -0.0540 -0.1032 -0.0356
32044W        W47175  18.201   4.520   1.205 -0.4172 -0.2136  0.0165
32045W        W47176  17.371  11.525   0.294 -0.0763  0.3685 -0.0809
32046W        W47177  18.130   4.874  11.113 -0.3038 -0.1258  0.0863
32047W        W47178  16.565   4.320   4.205 -0.0595 -0.2362 -0.1729
32048W        W47179  17.428   0.857   5.297  0.0701  0.2409  0.2281
32049W        W47180  14.942   3.945  16.058  0.1284  0.2353  0.2456
32050W        W47181   8.314  17.753  11.282  0.3392  0.0715  0.1109
32051W        W47182  12.056   8.254   1.945 -0.0991 -0.4262 -0.1290
32052W        W47183  15.691   8.923   4.111  0.1960 -0.4516  0.0373
32053W        W47184  13.203  16.662   1.502  0.0773 -0.1796  0.0913
32054W        W47185   1.448   3.389   3.103  0.3269 -0.0119 -0.1213
32055W        W47186   6.193  15.372   4.204  0.4147 -0.0064  0.1476
32056W        W47187   1.844  11.401  13.528  0.1101  0.1115  0.1279
32057W        W47188  11.943  14.120   5.209  0.2031 -0.2865 -0.1803
32058W        W47189  15.267   9.392   4.462 -0.1801 -0.1418 -0.0815
32059W        W47190   7.848   8.275   4.496  0.1525  0.0668 -0.1555
32060W        W47191   7.960   1.218   0.727  0.1481  0.1489  0.0020
32061W        W47192  10.656   0.219  15.538  0.0017  0.1602 -0.0442
32062W        W47193   7.512  10.486  14.633  0.2074  0.0361 -0.2746
32063W        W47194   8.601   4.284   2.301 -0.3067 -0.0740  0.3509
32064W        W47195  17.426   0.093   1.151 -0.1671 -0.2436  0.0120
32065W        W47196  11.954   4.990  12.474 -0.1181  0.0349 -0.1507
32066W        W47197   8.992  15.159   3.238 -0.0697  0.1593  0.0575
32067W        W47198   3.536  10.094  12.147 -0.0338 -0.2869 -0.2710
32068W        W47199   9.090  16.671   1.036 -0.0384 -0.0188 -0.0448
32069W        W47200  14.229  10.718   1.155 -0.0185 -0.1843 -0.2536
32070W        W47201   1.952   2.988   5.957 -0.1209 -0.2631  0.1273
32071W        W47202  14.288   7.774   3.829 -0.2924  0.2238  0.0920
32072W        W47203  17.325  15.578  15.515  0.2502  0.2705  0.1135
32073W        W47204   5.834  16.972   2.964  0.1551 -0.0989  0.0472
32074W        W47205   5.911  11.963  10.909  0.1306 -0.2597 -0.1440
32075W        W47206  13.204   4.689  14.111  0.0630 -0.0510 -0.0066
32076W        W47207   9.020   6.288   4.200 -0.0218  0.2797  0.0218
32077W        W47208   2.195   7.987   4.953  0.1584 -0.0554 -0.0121
32078W        W47209  16.659  15.142  10.913  0.4522 -0.1809  0.1188
32079W        W47210   0.232   9.530   3.365  0.1236  0.0740  0.0281
32080W        W47211   8.083   8.634  12.653 -0.0194 -0.1347 -0.1118
32081W        W47212  13.827   0.492  14.530  0.0338  0.2715  0.0026
32082W        W47213   1.761  12.102   0.130 -0.2835  0.0818  0.3362
32083W        W47214   4.970  15.938  12.816  0.1971 -0.2669 -0.1314
32084W        W47215   8.607   3.671  14.769 -0.2150  0.0135 -0.4157
32085W        W47216  16.964   8.300   5.146 -0.0761  0.1848 -0.3296
32086W        W47217   0.260   9.949   0.190  0.0033 -0.1206  0.1490
32087W        W47218  11.459   6.703   1.501 -0.1658 -0.0042  0.1732
32088W        W47219   3.202   3.663  12.134  0.1082 -0.2413  0.0971
32089W        W47220   8.689   4.525  11.092 -0.1044 -0.0752  0.2135
32090W        W47221   7.735  10.071  13.844  0.1288 -0.0604 -0.2432
32091W        W47222  15.325   7.918   4.526  0.2992  0.2914 -0.3189
32092W        W47223  10.006   0.750   3.695  0.1776  0.1200 -0.0052
32093W        W47224   6.831   7.938  10.902 -0.1138  0.1606 -0.1608
32094W        W47225  17.008  11.955  12.205  0.0341 -0.2668 -0.1351
32095W        W47226   6.087   4.176   4.202  0.2242 -0.0906  0.1128
32096W        W47227  17.743   9.948  15.286 -0.2000 -0.0260 -0.3141
32097W        W47228   5.539  11.290   4.282  0.0250 -0.0548 -0.1475
32098W        W47229  16.569  17.918  15.679 -0.3904 -0.2015 -0.2314
32099W        W47230   1.829   1.428   2.997 -0.0786  0.1195  0.2753
32100W        W47231   5.396  13.774   3.068  0.3106  0.3311 -0.0494
32101W        W47232  16.186   4.043  11.075  0.2061  0.0541  0.2523
32102W        W47233   3.790  16.998   0.642  0.0665  0.2741 -0.1715
32103W        W47234   2.855   4.669   3.584 -0.1297  0.1797  0.1242
32104W        W47235  13.715   8.970   0.034  0.0836  0.1695  0.1111
32105W        W47236   1.412  12.334  15.682  0.0997  0.2489 -0.4693
32106W        W47237  10.806   3.451  14.248  0.0840 -0.1944 -0.0490
32107W        W47238  17.980  17.784   3.677 -0.0065  0.5373  0.1772
32108W        W47239   9.088  16.097  13.620 -0.1874  0.0839 -0.1175
32109W        W47240   4.300  11.508   1.061 -0.1202 -0.3105  0.0229
32110W        W47241   9.281   3.744  11.573  0.0707 -0.0506  0.1029
32111W        W47242  12.906   0.086  12.703 -0.0696 -0.3191 -0.2340
32112W        W47243   6.904   7.954  13.604  0.0069 -0.1263 -0.0817
32113W        W47244  14.668   4.805   1.759  0.1230 -0.1478 -0.0993
32114W        W47245   2.239   0.766   5.312  0.0633  0.1098  0.3180
32115W        W47246   5.130   7.053  12.682 -0.0118  0.0092  0.3307
32116W        W47247  17.565  11.409   0.727  0.1534 -0.1905  0.2962
32117W        W47248   1.909  14.996  12.669 -0.1246 -0.0274  0.2483
32118W        W47249  17.624   6.603   2.583 -0.3260  0.1209  0.0899
32119W        W47250  10.868   2.409  10.511  0.2562 -0.0185 -0.1476
32120W        W47251   3.154  11.740   0.277  0.0519  0.2639 -0.0306
32121W        W47252   3.261  14.682   0.730 -0.0776  0.1112  0.1140
32122W        W47253   4.531   8.070  11.965 -0.1964  0.2132 -0.1741
32123W        W47254  10.642  14.980  15.198 -0.1529  0.1171  0.1979
32124W        W47255   4.292   0.307  15.690 -0.0441 -0.1110  0.1944
32125W        W47256   5.933   8.404   3.618 -0.1604  0.0061  0.1526
32126W        W47257   4.834  12.096  13.210 -0.1550 -0.0152  0.0229
32127W        W47258   0.491  14.018   4.922  0.0182  0.1097  0.1918
32128W        W47259  11.457   0.982  12.205  0.1161 -0.2573  0.2623
32129W        W47260  11.095   1.458   5.607 -0.1892  0.2449  0.3701
32130W        W47261  12.809  13.836   0.697 -0.4039 -0.0655 -0.0198
32131W        W47262   0.949   1.217  15.514  0.0092  0.1551 -0.2887
32132W        W47263  16.618   6.731  13.556 -0.0049  0.0652 -0.0191
32133W        W47264   3.835   4.375   5.503 -0.1452 -0.1668 -0.1591
32134W        W47265   2.671   6.500  14.218 -0.0559 -0.2568  0.1821
32135W        W47266   0.483   7.650   4.209  0.0766  0.1721  0.3925
32136W        W47267   0.818  12.339   5.676 -0.0532  0.0510  0.0662
32137W        W47268  14.108   1.701  14.000 -0.0364 -0.1877 -0.1260
32138W        W47269  11.209   2.053   2.254 -0.2075 -0.2417  0.2639
32139W        W47270  15.297   4.202   1.725  0.1335  0.1803 -0.0223
32140W        W47271  10.987   1.393  13.110 -0.0688 -0.2071 -0.1953
32141W        W47272   9.215   4.227  11.768 -0.3310 -0.1186 -0.0021
32142W        W47273  13.810   6.950  13.758 -0.2192 -0.2074  0.0618
32143W        W47274  10.200   8.658   2.989  0.1996  0.0012 -0.1324
32144W        W47275  13.700  10.572  12.162 -0.0764  0.2262 -0.1255
32145W        W47276  14.546  13.054  15.877  0.0456  0.0763  0.0640
32146W        W47277   3.461  14.447  13.149 -0.3150 -0.1229  0.4294
32147W        W47278  16.640   1.228   2.767 -0.0848  0.1974  0.1411
32148W        W47279  16.701   4.185   0.207  0.0869 -0.2484  0.0954
32149W        W47280   2.798   8.106  13.481  0.0750  0.3995  0.1834
32150W        W47281  11.056   9.778   0.904 -0.1007 -0.2769 -0.1621
32151W        W47282  15.616   2.079   2.517 -0.0172 -0.4240 -0.0111
32152W        W47283  10.757  12.055   1.092  0.0788  0.3188 -0.0264
32153W        W47284   7.174  16.948   3.758 -0.0564 -0.0855  0.0709
32154W        W47285   3.834   9.825   0.650  0.0470  0.1527 -0.1401
32155W        W47286  18.187  15.361  15.520  0.2867 -0.0103  0.2075
32156W        W47287   4.333   0.244   5.117 -0.1161  0.1397 -0.0750
32157W        W47288   2.025   2.539  12.994  0.3665  0.0963  0.2617
32158W        W47289  12.234   2.965   4.242  0.1864  0.0125  0.2519
32159W        W47290  15.109   0.548  11.694 -0.0995 -0.0200  0.3927
32160W        W47291  18.046  10.284   3.129 -0.0837 -0.0578  0.0220
32161W        W47292  12.173   7.100  14.025 -0.0458 -0.2573 -0.1517
32162W        W47293  18.098  17.973  12.336  0.0903  0.3727 -0.1348
32163W        W47294  14.443   5.478  13.310  0.0703 -0.1460  0.2212
32164W        W47295   4.905   4.754  15.743 -0.2207 -0.0340 -0.1705
32165W        W47296   1.816   8.499  13.042 -0.1038  0.0010 -0.1937
32166W        W47297   5.311   4.139  15.035 -0.1946 -0.0624 -0.0969
32167W        W47298   6.046  18.252   0.347  0.1065 -0.0337 -0.0406
32168W        W47299  15.420  17.451  13.179 -0.1524 -0.0524 -0.5880
32169W        W47300   9.086   2.267   5.712  0.0509  0.1499  0.0859
32170W        W47301  17.734   1.189   0.204  0.1084  0.1977  0.1640
32171W        W47302  10.117   2.921   1.863  0.1619 -0.1931 -0.1663
32172W        W47303  17.230   2.709   1.843  0.1304 -0.1365 -0.0897
32173W        W47304   0.736  17.797   0.281  0.2114  0.0251 -0.2128
32174W        W47305   4.995  16.720   3.124  0.1198 -0.0507  0.1745
32175W        W47306   3.200  16.672   0.361 -0.1838 -0.1239  0.0491
32176W        W47307  11.988   2.707   5.041  0.1810 -0.0117 -0.3507
32177W        W47308   1.043  17.306   0.985 -0.1562  0.0151  0.2675
32178W        W47309  12.340   8.701  12.547 -0.0101  0.1183 -0.2106
32179W        W47310  15.870  17.675   3.039  0.1195  0.2119  0.1499
32180W        W47311  15.015   0.647  12.507  0.0336  0.1596 -0.1311
32181W        W47312   2.271   6.488  15.767  0.0751 -0.0222  0.3944
32182W        W47313  14.526  12.432  10.369 -0.1176  0.1545 -0.0134
32183W        W47314   7.530   2.787   4.626  0.2813 -0.1941  0.1092
32184W        W47315  12.452   6.420  11.461  0.1237 -0.2026  0.2974
32185W        W47316  17.459  13.786   2.314  0.1136  0.2022  0.0621
32186W        W47317  18.116   9.495  14.682 -0.0734 -0.0747  0.1178
32187W        W47318  12.261  12.541   2.979 -0.1114  0.2903  0.3343
32188W        W47319  10.794   4.248   6.107  0.0123 -0.1380  0.2126
32189W        W47320  13.659  13.351   0.181  0.1565  0.0407  0.1499
32190W        W47321  13.937  18.367  15.435 -0.1692  0.1004 -0.1965
32191W        W47322   9.216   3.649  12.627  0.0976  0.1678 -0.1050
32192W        W47323  15.736  15.701  11.295 -0.0393  0.1315 -0.3243
32193W        W47324  13.931  14.411  12.171  0.3139 -0.2589 -0.3699
32194W        W47325   1.509  14.802   5.136 -0.0009  0.2083 -0.0539
32195W        W47326   0.664   9.054  13.409 -0.0093  0.1806  0.1680
32196W        W47327   7.498   2.903  11.190  0.1847 -0.2429  0.3829
32197W        W47328  10.720   4.421   4.833 -0.1973 -0.0486 -0.2861
32198W        W47329  18.172   5.442   5.627 -0.0955  0.2830 -0.0874
32199W        W47330   5.463   1.565   5.747  0.0337 -0.0264  0.1642
32200W        W47331  18.288  16.224   1.028 -0.1448  0.0430 -0.1276
32201W        W47332  17.517   1.050  12.178 -0.1805 -0.1114 -0.3409
32202W        W47333   4.610  12.517  12.909  0.1555  0.1057 -0.0737
32203W        W47334   0.239  13.718  15.882 -0.0854 -0.0713  0.1382
32204W        W47335   0.780  16.167   1.494 -0.1744  0.1921  0.1193
32205W        W47336   7.597   6.238   0.299  0.1176 -0.0959 -0.4204
32206W        W47337   4.242  13.326   3.530  0.0217  0.1964  0.0702
32207W        W47338   9.804  13.264   5.059 -0.0312 -0.1190  0.2803
32208W        W47339  11.689  11.277  14.414  0.0783 -0.1778  0.2662
32209W        W47340  14.940   9.454  14.642  0.0354  0.0048  0.0054
32210W        W47341   3.847   5.184   1.432  0.0078  0.0293 -0.2094
32211W        W47342   9.870  12.080   5.901  0.2924  0.2803  0.2001
32212W        W47343   0.756   5.878  15.360  0.1387  0.2040 -0.0303
32213W        W47344   6.883   3.608   3.698  0.1069 -0.0005  0.1245
32214W        W47345   0.850  10.888   2.029  0.2836 -0.1277  0.0761
32215W        W47346  11.510   0.680   4.552 -0.1935  0.3703  0.2424
32216W        W47347  17.143   5.756  11.805 -0.1333 -0.2671 -0.0893
32217W        W47348  13.923   9.539   4.274 -0.2920 -0.3426  0.0881
32218W        W47349   8.955   3.196  11.598 -0.0884 -0.2091 -0.1782
32219W        W47350  14.964   3.267  10.891  0.0547  0.0689  0.1732
32220W        W47351  11.741   2.939  14.983 -0.0420  0.0653  0.0705
32221W        W47352  10.411   5.359   3.102  0.0943 -0.0544 -0.0261
32222W        W47353   3.016  14.305  13.326  0.1122  0.0602  0.1240
32223W        W47354   1.801   4.452  11.996 -0.2643 -0.2781 -0.1881
32224W        W47355   9.116  17.448   0.726  0.1820 -0.0627  0.0257
32225W        W47356  13.599   7.406  16.030  0.3015  0.1832 -0.0563
32226W        W47357  11.266  10.799   9.830  0.0197 -0.2575 -0.1932
32227W        W47358  13.382   6.962  14.689 -0.3057  0.3444 -0.0077
32228W        W47359   7.172   3.631   5.097  0.0901 -0.0670  0.0277
32229W        W47360   5.300  18.128  15.274  0.2474  0.0081 -0.0516
32230W        W47361  11.544   6.984  13.222 -0.1953  0.0323 -0.1252
32231W        W47362   3.522  10.200   2.527 -0.0919  0.0539 -0.0598
32232W        W47363  13.335   8.249  13.988 -0.0483 -0.0112 -0.0273
32233W        W47364   8.327  13.183  15.462  0.2141 -0.1067 -0.1903
32234W        W47365  10.800  11.994  11.693 -0.2449 -0.0364 -0.1599
32235W        W47366   7.269   8.686   4.752 -0.0995  0.1824  0.0090
32236W        W47367  15.600  15.717  10.765 -0.0676 -0.0701  0.1801
32237W        W47368   9.785  17.107  16.022 -0.1483  0.0083  0.1050
32238W        W47369   5.638   1.345   3.624 -0.0088 -0.2742 -0.0704
32239W        W47370   7.250  10.649   5.866 -0.3880  0.0162 -0.0361
32240W        W47371   4.120   1.882  13.863  0.3323  0.1553 -0.2226
32241W        W47372  12.789  10.002   5.518 -0.0391 -0.1676 -0.0381
32242W        W47373  14.431   8.092   0.510  0.1881 -0.2075 -0.0471
32243W        W47374   4.592  12.276   3.809 -0.1901  0.1421  0.2618
32244W        W47375  16.763   9.767  13.493 -0.0255  0.0777 -0.1550
32245W        W47376   5.065  13.699   2.310 -0.0864 -0.2437 -0.1741
32246W        W47377   1.546  13.373   4.839 -0.1191 -0.2063  0.0847
32247W        W47378  16.454  17.926  13.282 -0.0069 -0.1347  0.1473
32248W        W47379  17.715   0.246  15.114 -0.0341 -0.2015 -0.0862
32249W        W47380   0.115  12.692  10.875  0.0886 -0.2976  0.2954
32250W        W47381  12.823   6.032   2.298 -0.5608 -0.1000  0.0607
32251W        W47382   7.610  12.417   0.415 -0.1911  0.2181 -0.2861
32252W        W47383  13.787   3.156  10.135  0.1559 -0.0253  0.2269
32253W        W47384  12.069   9.844  12.602  0.1809 -0.0075  0.0544
32254W        W47385   9.240   2.666   4.011  0.1628  0.0150  0.1690
32255W        W47386   1.450   5.229  11.046 -0.0999  0.0192 -0.1029
32256W        W47387  13.702   6.329  11.115  0.1535 -0.1464 -0.1618
32257W        W47388   4.242   0.818  12.496  0.2951  0.0092 -0.1713
32258W        W47389  12.106   3.044   1.470  0.0377 -0.1842  0.1267
32259W        W47390  13.026  14.258   3.256  0.2436  0.2302  0.3850
32260W        W47391  10.129  17.543  15.876  0.1580 -0.1078  0.1124
32261W        W47392   2.421   7.677  13.515 -0.0240 -0.1257 -0.0717
32262W        W47393   8.696   3.742  14.255 -0.1718  0.1975  0.1027
32263W        W47394   3.100   8.712   2.863  0.4680 -0.0327 -0.0939
32264W        W47395   5.233  14.650   5.574 -0.2995  0.2158  0.2620
32265W        W47396   8.448  10.156  10.955  0.3402 -0.1517 -0.3084
32266W        W47397  13.632  10.231  11.360  0.2117 -0.0197 -0.2496
32267W        W47398   0.491   1.772  12.368 -0.2485  0.1439  0.0186
32268W        W47399  12.302  10.668  11.465  0.0702 -0.1345 -0.1114
32269W        W47400   5.604  11.540   3.729  0.0376  0.0450 -0.1069
32270W        W47401   9.250  12.555   1.022 -0.0655  0.1464 -0.2279
32271W        W47402   9.979  17.438   1.083 -0.1128 -0.4235  0.0925
32272W        W47403   8.719   6.332  13.055  0.1119  0.4179  0.0592
32273W        W47404   1.558  15.423   5.931  0.1640 -0.0665  0.2763
32274W        W47405  11.632  17.436   4.507  0.0079 -0.0624  0.1648
32275W        W47406   9.574   6.242  13.783  0.0265 -0.0915 -0.0857
32276W        W47407   7.707  11.403   4.201 -0.0034 -0.0699 -0.3223
32277W        W47408  17.856   7.476  16.054  0.5020  0.4390 -0.2326
32278W        W47409  10.095   9.378   2.765  0.4486 -0.0463  0.2288
32279W        W47410   0.722  17.795   4.305  0.1273 -0.2698  0.1115
32280W        W47411   4.411  14.295   2.296  0.0968  0.1294 -0.0046
32281W        W47412   1.276  15.334   1.106 -0.1177 -0.2907  0.3681
32282W        W47413  12.720  11.902   0.318  0.3048  0.2530 -0.1264
32283W        W47414   8.958  17.209  14.542  0.2736  0.2227  0.1341
32284W        W47415   8.227   3.926   3.958  0.2447 -0.0923 -0.2006
32285W        W47416   0.088  12.648   2.930  0.0758 -0.0040 -0.4206
32286W        W47417   6.808   2.712  13.636 -0.0987 -0.1001 -0.0746
32287W        W47418   2.714   9.941   0.744  0.0862 -0.0701  0.2170
32288W        W47419   6.090  16.678   9.878 -0.5915 -0.0092 -0.1842
32289W        W47420   6.968  10.851   0.894 -0.1560  0.2021 -0.0211
32290W        W47421  17.830   7.516  13.617 -0.2025 -0.0339  0.0345
32291W        W47422  17.337  11.876   3.678 -0.3406 -0.0553 -0.1681
32292W        W47423  15.486  13.795   0.723  0.0063 -0.1834  0.0853
32293W        W47424   9.488   9.146  15.980 -0.0931  0.0555  0.1872
32294W        W47425  17.788   0.914   1.218  0.0607  0.0352 -0.0077
32295W        W47426  16.189   9.205  14.884 -0.2853  0.0408  0.1332
32296W        W47427   2.941   7.163   0.760  0.3757 -0.2084 -0.0755
32297W        W47428  16.319  10.329  12.483  0.0839 -0.1499 -0.0599
32298W        W47429  15.295  16.782   0.464 -0.2287 -0.0197  0.1192
32299W        W47430  12.157  18.193  12.269 -0.1714  0.1160  0.0641
32300W        W47431  15.996  10.524   5.623  0.4165 -0.1192  0.0492
32301W        W47432  12.638  11.639   4.434 -0.1525 -0.1130  0.1237
32302W        W47433   3.903  10.378  11.970  0.2724 -0.0076 -0.1294
32303W        W47434  10.161  12.619  12.592 -0.1800 -0.3428 -0.1513
32304W        W47435   7.945   4.210  12.660 -0.1969  0.0200  0.1784
32305W        W47436   3.814  16.756  14.087  0.0312  0.1637  0.2556
32306W        W47437   0.726  14.400  11.756 -0.1917 -0.0272 -0.0440
32307W        W47438   2.501   1.924  15.838 -0.1012 -0.2329  0.3377
32308W        W47439  10.443  16.378   0.065 -0.0160  0.0644 -0.1167
32309W        W47440   6.637  12.915  13.331 -0.2952 -0.0370  0.4247
32310W        W47441   0.731  13.804  13.371  0.4600  0.1316 -0.0588
32311W        W47442  13.919   4.581  10.751  0.0416  0.2516 -0.1416
32312W        W47443   9.906   2.962  14.168 -0.0609  0.4002  0.0623
32313W        W47444  15.603  10.371   1.390  0.2230  0.1679 -0.0689
32314W        W47445  17.403   9.567   0.544  0.1451  0.0693 -0.0029
32315W        W47446   2.362  12.610   4.965  0.1200 -0.1952  0.4893
32316W        W47447  15.843  18.296   3.484 -0.3010  0.2555  0.0920
32317W        W47448  13.246   1.292   4.280  0.2308  0.0892  0.1199
32318W        W47449   0.844   8.258  11.013 -0.1219 -0.1037  0.2986
32319W        W47450  12.577   0.537  12.030 -0.0300 -0.0800 -0.1733
32320W        W47451   1.757  16.048   0.559  0.0252  0.1856 -0.1742
32321W        W47452   7.213   9.449   1.316  0.1850 -0.3535 -0.1155
32322W        W47453  10.652   8.944   2.287 -0.1982  0.1451 -0.1395
32323W        W47454   8.006  14.668   5.296 -0.0082 -0.0306  0.2303
32324W        W47455  12.697   2.088   5.491  0.2035 -0.4568  0.2321
32325W        W47456   8.151   1.679   3.801  0.3548 -0.2689 -0.0132
32326W        W47457  14.541  13.311  13.028 -0.4425 -0.1049  0.0953
32327W        W47458   2.258  11.299   0.182  0.1727 -0.1661 -0.2143
32328W        W47459   3.344  14.101   2.237  0.1216 -0.3564 -0.0294
32329W        W47460   6.662  11.651   0.962 -0.3869 -0.3569 -0.1848
32330W        W47461   6.898   8.383   3.261 -0.0010  0.1655  0.0912
32331W        W47462  16.948  14.414  12.437 -0.1328  0.1307  0.1906
32332W        W47463  17.548  12.908  13.009 -0.4411  0.2800 -0.1450
32333W        W47464   3.746   9.481  11.569 -0.2937 -0.4217 -0.0050
32334W        W47465  11.111  17.802   1.992  0.0164  0.0095  0.3398
32335W        W47466   6.045   6.592   4.977 -0.2877 -0.2381 -0.0142
32336W        W47467  12.842   6.683   1.457 -0.3675  0.1959 -0.0863
32337W        W47468   1.205   4.958  15.722 -0.2999  0.2034 -0.0424
32338W        W47469   5.080  13.792   5.673  0.1069  0.1917  0.2162
32339W        W47470  15.967   9.922  15.346  0.1403 -0.1656 -0.0229
32340W        W47471  17.301   5.860   3.738  0.2771 -0.1756 -0.2615
32341W        W47472   6.671  17.649   2.411  0.2268  0.2327  0.2158
32342W        W47473   1.901   3.548   4.731  0.0313 -0.0319  0.1350
32343W        W47474   9.522   6.355   1.123 -0.1063 -0.0999  0.0007
32344W        W47475  14.480  17.383  11.692  0.1049  0.1872 -0.2057
32345W        W47476   0.568  12.328   4.351  0.0797 -0.0617 -0.0723
32346W        W47477   8.009  17.969   3.745 -0.2357  0.1193  0.0375
32347W        W47478   0.183  17.501   4.248 -0.2176  0.0936  0.1395
32348W        W47479  15.329  16.351  14.222  0.1277  0.3100  0.3444
32349W        W47480   3.172   3.025   1.189  0.0278  0.1431  0.1472
32350W        W47481   9.497   8.378  16.025  0.0182  0.1486 -0.0112
32351W        W47482  12.238  17.341   5.244 -0.1670  0.2819  0.0350
32352W        W47483  14.007  12.415  11.155 -0.0926 -0.2825 -0.0122
32353W        W47484  11.625   1.243   1.884  0.1152  0.1867 -0.4822
32354W        W47485   9.324  13.325   3.235 -0.2640  0.0721 -0.0638
32355W        W47486   7.190  16.960   4.602 -0.0575 -0.1816 -0.4184
32356W        W47487  18.228   9.313  14.227  0.0032 -0.5194 -0.1319
32357W        W47488  13.318  11.843   3.848  0.0380 -0.1391  0.0868
32358W        W47489  17.803   3.880   4.578  0.0148 -0.2628 -0.1642
32359W        W47490   4.529  16.009  15.445 -0.1041  0.2855 -0.0163
32360W        W47491   8.547   2.452  14.010 -0.2292  0.2588 -0.3543
32361W        W47492   9.554  17.053   2.381  0.1909  0.0695  0.1239
32362W        W47493   0.416   9.096   5.446  0.0848 -0.0040 -0.1114
32363W        W47494  10.615  11.200   5.685 -0.0910 -0.2308  0.0261
32364W        W47495   1.564   3.694  13.360 -0.2945 -0.0046 -0.0693
32365W        W47496   9.611   7.284  15.034 -0.0218 -0.0568 -0.0901
32366W        W47497  11.311   9.925  14.166  0.2606 -0.0384 -0.0458
32367W        W47498  10.527  15.260  12.495 -0.2573 -0.2179 -0.1597
32368W        W47499  11.711   7.508  11.813 -0.0583  0.0543 -0.0536
32369W        W47500   9.203   6.340  15.912 -0.4113 -0.1223  0.2687
32370W        W47501  11.437  13.662  15.731  0.2096  0.1497  0.2049
32371W        W47502  17.182   8.066  12.610 -0.2679 -0.0137  0.3795
32372W        W47503   6.233  15.185   5.022 -0.1374  0.2000 -0.0945
32373W        W47504   2.861  17.918  14.609  0.1505 -0.0252 -0.1362
32374W        W47505   7.080  12.928   5.043  0.0784 -0.0933 -0.0423
32375W        W47506  12.568  13.230   1.701  0.0135  0.0469 -0.0539
32376W        W47507   3.088   6.742   4.789 -0.0926 -0.1038 -0.1219
32377W        W47508   9.556   7.983   3.746  0.0917  0.0294  0.3084
32378W        W47509   1.487  15.227   4.215 -0.1815 -0.4551  0.2473
32379W        W47510   0.912   2.788   4.471  0.1460 -0.2703 -0.1121
32380W        W47511  12.281  12.846  12.324  0.0512 -0.0175 -0.1657
32381W        W47512   0.091  14.839   0.392  0.0313  0.1694  0.2907
32382W        W47513  11.909   8.037  13.107  0.3024 -0.1351 -0.0243
32383W        W47514   0.834  15.568   6.487 -0.1153 -0.2466 -0.4304
32384W        W47515   2.876  12.105   4.679  0.4166  0.0851 -0.2447
32385W        W47516   0.674   6.048  14.862  0.3827 -0.1368 -0.1564
32386W        W47517  16.345   5.575  13.708  0.0738 -0.1475  0.2834
32387W        W47518   7.000   7.351  10.745 -0.0192 -0.0296 -0.3055
32388W        W47519  14.334  16.067   0.751  0.0514 -0.0724 -0.0886
32389W        W47520   8.808  12.196   3.787 -0.2792  0.0637 -0.1220
32390W        W47521   8.433   9.199  12.348 -0.1487 -0.1030 -0.0665
32391W        W47522  11.374  11.843  15.096 -0.3991 -0.0026  0.3197
32392W        W47523   0.314  16.751  11.124  0.0957 -0.0714  0.0593
32393W        W47524   6.652  12.480  14.108 -0.3195 -0.4285 -0.2422
32394W        W47525   4.555   1.493   2.876  0.0613 -0.0134  0.2199
32395W        W47526  11.767  12.835  14.269  0.1850  0.2394 -0.0562
32396W        W47527  15.488  17.552   1.940  0.1279 -0.0952 -0.3266
32397W        W47528   3.166  14.337  12.149  0.0468 -0.0616  0.0013
32398W        W47529   2.684   8.874   1.808  0.1416  0.0160  0.0109
32399W        W47530   3.721   3.785   4.792 -0.0491 -0.2398  0.0081
32400W        W47531   4.790   2.903   1.635 -0.2910  0.0831 -0.0806
32401W        W47532   1.110  15.956   0.491 -0.1008  0.0187  0.1419
32402W        W47533  15.449   7.896  11.461 -0.2423  0.1544  0.1408
32403W        W47534  18.129   5.820  15.970 -0.0250  0.0513  0.0331
32404W        W47535  16.526   5.779   1.155 -0.1395  0.2533  0.0490
32405W        W47536   4.247  17.079  11.607  0.1990 -0.2412 -0.6536
32406W        W47537   0.583   3.979  13.906 -0.0544  0.1487  0.2240
32407W        W47538  15.798   2.013  14.452  0.0813 -0.2870  0.0838
32408W        W47539   0.913  11.285  15.688  0.0348  0.0435 -0.0504
32409W        W47540  13.248  13.309  11.476 -0.1070  0.0298  0.2258
32410W        W47541  10.339   9.279   4.917  0.0897  0.1323  0.0216
32411W        W47542  11.954   4.565  12.783  0.0462 -0.1774 -0.1927
32412W        W47543   6.924   9.794  10.783  0.1545  0.0557  0.1813
32413W        W47544   5.881   6.379  14.172 -0.1969 -0.3978 -0.2050
32414W        W47545   4.407   0.249   2.502  0.3005 -0.0374  0.1488
32415W        W47546   4.973   4.008  11.810 -0.3923  0.0595  0.3190
32416W        W47547  12.574   2.009  12.226  0.0102  0.0588  0.2436
32417W        W47548  12.435  16.488   2.601  0.3923 -0.1371 -0.0051
32418W        W47549  12.568  10.532   4.194 -0.0818  0.0494  0.1129
32419W        W47550  14.403  13.915  11.352  0.3442  0.1710 -0.1069
32420W        W47551  14.117  17.363   5.661 -0.1175  0.0855 -0.2945
32421W        W47552   7.136   3.495  14.767 -0.3567 -0.1243  0.1036
32422W        W47553   3.352  14.988   1.633  0.0005 -0.1643  0.0388
32423W        W47554  14.046   6.477  13.893 -0.0552  0.2255  0.2891
32424W        W47555  10.802   3.131  12.516 -0.0886 -0.0217 -0.2007
32425W        W47556   7.549   0.151   0.193  0.0473 -0.0545 -0.3810
32426W        W47557   7.707   1.633  13.188  0.0466  0.3458  0.1024
32427W        W47558   1.930  11.189  15.918  0.1848 -0.0692 -0.1550
32428W        W47559   0.933  13.154  15.458  0.0905 -0.3659 -0.2185
32429W        W47560  12.300   0.613   5.193 -0.1531  0.0520 -0.0377
32430W        W47561  11.064  14.583   5.593 -0.0349 -0.0690  0.1629
32431W        W47562  15.192  18.098   2.508 -0.0530 -0.2138 -0.0147
32432W        W47563   7.408  11.908   1.793  0.2000 -0.1054 -0.1896
32433W        W47564  15.857  11.448  14.259 -0.0392 -0.1620  0.2007
32434W        W47565   7.639   1.292   1.514 -0.0098  0.2610 -0.1268
32435W        W47566  11.601   3.180  13.510  0.1490  0.1502  0.2225
32436W        W47567  16.854  17.662  14.734 -0.0394  0.2885 -0.3550
32437W        W47568  18.108  16.379   5.461  0.0297  0.0147 -0.1534
32438W        W47569   6.203   4.405   3.332  0.0582  0.0909  0.0971
32439W        W47570  12.615   0.977  13.847 -0.0541  0.0037  0.0928
32440W        W47571   0.078  11.145  13.890  0.0223  0.0500 -0.0355
32441W        W47572  16.280  14.791   2.972 -0.1321 -0.3991  0.1554
32442W        W47573   0.920   7.557   3.671 -0.1894  0.1143  0.0134
32443W        W47574   9.675   6.205   2.082 -0.2103  0.1347 -0.0450
32444W        W47575   1.322  17.594   6.100 -0.4655 -0.6823 -0.0128
32445W        W47576  17.603  15.126  15.607  0.1378 -0.1485  0.0914
32446W        W47577   4.675  12.495   1.964 -0.0491 -0.0830  0.4276
32447W        W47578   0.288  12.074  15.086  0.0509 -0.3149 -0.3001
32448W        W47579  14.475   6.782   0.664 -0.0962 -0.0500 -0.0387
32449W        W47580   5.700  15.261  11.655 -0.0652 -0.2844  0.1474
32450W        W47581   2.886   4.480  15.773 -0.0014  0.1385 -0.0631
32451W        W47582   5.788  15.519   5.009 -0.1319 -0.1102 -0.0628
32452W        W47583   2.075   9.998   0.017 -0.0649  0.1179  0.2252
32453W        W47584   8.102   7.165  13.883 -0.1052 -0.1496 -0.4108
32454W        W47585  16.193  12.957   1.197  0.1290  0.1640  0.0973
32455W        W47586   8.379   8.268   9.928  0.0883  0.1754 -0.2824
32456W        W47587   1.267  12.871   1.505  0.4453  0.2866  0.0392
32457W        W47588   4.245  12.375   5.734  0.0192  0.2005 -0.2265
32458W        W47589   0.469  17.924   5.590  0.2654  0.1317  0.0519
32459W        W47590   6.325  17.132  11.205 -0.4242 -0.0849 -0.0698
32460W        W47591   0.709   7.677   6.156 -0.3410  0.2070 -0.2109
32461W        W47592   7.873   9.672  15.426 -0.2598  0.2623  0.2481
32462W        W47593  12.672   0.377   4.762 -0.4192  0.1751 -0.0255
32463W        W47594   5.640  13.580  12.839  0.2178 -0.0116  0.2484
32464W        W47595  13.505  17.041  13.325  0.1110  0.3532 -0.1453
32465W        W47596   8.244   1.363  15.706  0.1423  0.0658 -0.2458
32466W        W47597   3.269  12.115  14.451  0.1232 -0.0336  0.2354
32467W        W47598   0.570  16.013  14.785  0.2054  0.0468  0.0516
32468W        W47599   2.122   2.913   4.225  0.2339  0.2259  0.0033
32469W        W47600  10.103   9.408   5.679 -0.0052 -0.1386  0.1241
32470W        W47601   2.795   6.224   4.552  0.3665 -0.1110 -0.0750
32471W        W47602  16.598   0.083  15.722  0.2251 -0.4749  0.0321
32472W        W47603  11.886  12.681  15.120 -0.2306  0.3636  0.0482
32473W        W47604   8.757   8.125   1.300 -0.0523 -0.0666 -0.2579
32474W        W47605  17.015   2.750   4.679 -0.0484  0.0887  0.0287
32475W        W47606   9.816  16.270   5.222  0.0489  0.2952  0.2346
32476W        W47607  16.999   5.148   4.730 -0.1149  0.0959  0.1576
32477W        W47608  14.602  11.872   1.236  0.0304  0.0978 -0.2835
32478W        W47609  12.159   1.344   4.344 -0.0320  0.4470 -0.3071
32479W        W47610   1.652  10.188   3.011  0.0251 -0.0436  0.0377
32480W        W47611  15.542  16.339   1.476 -0.4515  0.1247  0.0768
32481W        W47612   9.982  16.765   4.448 -0.2115 -0.0021 -0.3149
32482W        W47613   2.560   1.141  14.750  0.3521 -0.1687 -0.0421
32483W        W47614   4.231   3.711   3.818  0.1613  0.0293  0.1388
32484W        W47615  17.446   4.412   0.808 -0.4540  0.0667 -0.1786
32485W        W47616   9.558   6.370   0.602 -0.0178 -0.2376 -0.0766
32486W        W47617  16.421   0.988   3.124 -0.0699 -0.0112  0.1028
32487W        W47618  11.010   6.923  11.829  0.1226  0.1359 -0.2726
32488W        W47619   2.196  16.981   3.202 -0.0483  0.2396  0.2458
32489W        W47620   9.771   3.675  11.724  0.2344  0.2165  0.1896
32490W        W47621   3.032  14.497   2.457  0.4376 -0.1479 -0.2271
32491W        W47622  12.112  12.191   2.665  0.0832 -0.0248  0.0015
32492W        W47623  17.900  13.991   2.277  0.0532  0.2762 -0.1414
32493W        W47624   3.045   5.950  13.451  0.3944 -0.2073 -0.1629
32494W        W47625   6.635  11.948  13.303 -0.2348 -0.0515  0.1599
32495W        W47626   4.878  18.176  12.955 -0.0898  0.0336 -0.0689
32496W        W47627  11.852  12.169  11.355 -0.0443 -0.0562 -0.0295
32497W        W47628   9.611   7.385  10.648 -0.0375 -0.1617 -0.2408
32498W        W47629   7.383  14.991  13.866  0.2100  0.1302 -0.1468
32499W        W47630  11.683  17.864  13.691  0.0195 -0.2910 -0.0994
32500W        W47631   7.369   6.491   3.435  0.0282 -0.0279  0.0574
32501W        W47632   5.413   1.887   5.353  0.2591 -0.2809 -0.3319
32502W        W47633   3.211   6.471  13.533  0.0662 -0.3085  0.4245
32503W        W47634   9.156  14.078   1.193  0.3145  0.1205  0.0050
32504W        W47635   1.972  12.955  12.516  0.1203 -0.0627  0.1151
32505W        W47636  10.890   0.106  16.031  0.1644  0.1579 -0.0929
32506W        W47637  16.045  17.079   4.517  0.1701 -0.4305  0.1791
32507W        W47638   6.006   1.330   3.257 -0.0930  0.0158  0.4254
32508W        W47639  10.229   0.001  15.427  0.0036 -0.0383  0.0932
32509W        W47640   5.796   5.810  13.055 -0.2180  0.1236 -0.2022
32510W        W47641   9.823  17.382   1.573  0.1574  0.1643  0.0741
32511W        W47642   4.267   8.411  10.608 -0.0354 -0.1185  0.1306
32512W        W47643  17.695  16.384   1.835 -0.1122 -0.3095 -0.2108
32513W        W47644  13.141  12.329   3.965 -0.1168 -0.3388  0.2890
32514W        W47645  14.209   6.136  15.249  0.1911 -0.2861 -0.0770
32515W        W47646  13.525  16.157  10.775 -0.0514 -0.1810 -0.0220
32516W        W47647   9.403  16.233  14.104 -0.1983  0.2718 -0.0960
32517W        W47648  12.511  15.907   2.671  0.0096 -0.1699  0.1959
32518W        W47649  14.392  18.228  11.918 -0.1995  0.1734 -0.0028
32519W        W47650  12.720  17.048  11.704 -0.0744 -0.2835 -0.1809
32520W        W47651   2.321  10.628  13.579 -0.3934  0.0650  0.1922
32521W        W47652   7.492   8.186   2.043  0.2272 -0.0140 -0.3499
32522W        W47653  13.343  13.839   0.762 -0.0036 -0.0116  0.0679
32523W        W47654   7.627   4.571   3.300  0.0769  0.0715 -0.3811
32524W        W47655   3.302  16.697   4.560 -0.1617 -0.3244 -0.1893
32525W        W47656  16.864  11.840  14.546  0.0498 -0.4490  0.0077
32526W        W47657  11.383  13.866  15.190  0.0765 -0.0143  0.2471
32527W        W47658   5.733   2.491   5.234  0.1373 -0.2050 -0.1157
32528W        W47659   8.145  10.762   5.256 -0.2935  0.0703 -0.0427
32529W        W47660   7.871  13.035  15.814  0.0284 -0.2613  0.1322
32530W        W47661  17.708   6.333   2.139  0.2079 -0.0602  0.0808
32531W        W47662   2.827  15.686  14.363  0.1045  0.0957 -0.0164
32532W        W47663  16.780   6.801   1.221 -0.0884  0.0185  0.0178
32533W        W47664   1.158   7.913  11.802 -0.1367 -0.2455  0.1669
32534W        W47665  10.754   1.380   5.088 -0.3575 -0.0787 -0.0162
32535W        W47666  10.851   7.317  13.088 -0.1871  0.1462  0.2534
32536W        W47667  17.111   9.332   4.092 -0.0898  0.4615 -0.2271
32537W        W47668   0.911   3.027   2.508 -0.0651 -0.2764 -0.1363
32538W        W47669  14.072  17.637   4.799  0.2650  0.0734  0.1313
32539W        W47670   1.216   5.750   5.557 -0.1053 -0.1845 -0.0208
32540W        W47671   0.979  15.341   0.648 -0.0145 -0.0102  0.1879
32541W        W47672   6.697   3.849  15.623  0.2023 -0.0880  0.0252
32542W        W47673  18.118   4.266  11.783 -0.0132 -0.2451 -0.0390
32543W        W47674   5.706  15.331  15.345 -0.0223  0.0216 -0.1150
32544W        W47675   5.814  16.060  12.653  0.3086 -0.0289 -0.0639
32545W        W47676   2.599   7.700  15.080 -0.0170 -0.0892  0.0521
32546W        W47677   9.684   2.747   0.911  0.0769 -0.0358  0.1509
32547W        W47678  15.028  16.214   1.675  0.0817  0.2763  0.0645
32548W        W47679  17.574   9.390  12.857  0.2377  0.1846 -0.0699
32549W        W47680   4.568   2.114   2.683 -0.2859  0.0494 -0.2565
32550W        W47681   0.474  17.666  16.002  0.1821 -0.0294  0.0609
32551W        W47682  13.087   1.031   3.211  0.1630 -0.0817 -0.1289
32552W        W47683  15.862   1.719  12.114  0.3086 -0.0083  0.0314
32553W        W47684  12.586  13.225   4.814 -0.0478  0.0858  0.0951
32554W        W47685  17.224  12.386   2.282 -0.1509  0.2818  0.1214
32555W        W47686   6.249  15.321   3.373  0.0514  0.0300  0.1581
32556W        W47687  15.524  15.724  15.037  0.0496 -0.0421 -0.1202
32557W        W47688   1.426  14.028  12.827  0.0592  0.0162 -0.1642
32558W        W47689  10.418  15.863   3.298  0.0179  0.4000  0.2271
32559W        W47690  16.635  12.506   5.386 -0.0231  0.2633 -0.1298
32560W        W47691   8.527  12.612   0.323  0.1977  0.0682 -0.2916
32561W        W47692   8.522   0.326   0.039 -0.2307  0.3836  0.2957
32562W        W47693   2.499   9.301  11.802  0.2330 -0.1516 -0.1802
32563W        W47694   9.385   6.769  15.081 -0.0847  0.0796  0.2477
32564W        W47695   8.656  12.776   2.269 -0.2648 -0.2661 -0.0862
32565W        W47696  11.675   6.856  14.033  0.1248  0.0275  0.3402
32566W        W47697   8.531   0.542   4.005 -0.0718  0.1494  0.1561
32567W        W47698   1.426  15.232   3.140 -0.0188 -0.2791 -0.1158
32568W        W47699  16.304   0.381  15.396  0.2406  0.0794 -0.2144
32569W        W47700  15.840   0.681   3.609  0.0007 -0.1423 -0.0505
32570W        W47701   1.797   0.607   3.919  0.0251 -0.1985  0.1354
32571W        W47702   9.852  15.488   3.293  0.2119 -0.2195  0.1599
32572W        W47703  10.443   0.021  11.274  0.2122 -0.3717  0.1899
32573W        W47704   5.757   9.661   1.572 -0.0732  0.0557 -0.1243
32574W        W47705   9.345   9.188  13.585 -0.0953  0.0859 -0.1836
32575W        W47706   4.395   6.424   1.484 -0.0422 -0.2428 -0.2154
32576W        W47707  15.524   6.059  11.065  0.1405 -0.0951 -0.1370
32577W        W47708  12.579   9.346   1.593 -0.2593  0.2124 -0.1568
32578W        W47709  12.744  16.098  15.018  0.0991 -0.1025  0.1339
32579W        W47710  11.261  10.652  15.084 -0.1296  0.2013 -0.0199
32580W        W47711  15.391   9.367   3.889 -0.1264 -0.2762  0.0872
32581W        W47712  17.754   3.562  11.441 -0.0303  0.2401 -0.0551
32582W        W47713  10.492   4.406   3.418 -0.1042  0.1289  0.1615
32583W        W47714   0.658   8.234  11.938  0.1983 -0.3995  0.1213
32584W        W47715  12.273  10.159  16.051  0.1843 -0.0889 -0.2626
32585W        W47716  13.987   2.857   1.381 -0.1014 -0.0194 -0.0174
32586W        W47717  10.977   0.889   0.375 -0.0453  0.3763 -0.3149
32587W        W47718  16.744   1.967   4.171  0.1458 -0.3170 -0.0174
32588W        W47719   3.206  17.605  13.314 -0.0228  0.3799 -0.0675
32589W        W47720   7.094  10.014   5.183 -0.2232  0.0508 -0.0141
32590W        W47721  10.559   5.901  15.794  0.0214  0.0326  0.0843
32591W        W47722   2.623   5.657  11.989  0.0770 -0.1095 -0.0210
32592W        W47723   4.789  18.084  14.336 -0.2837  0.1603 -0.0397
32593W        W47724  18.360  10.024  15.921  0.3446  0.0878 -0.4209
32594W        W47725  17.571  16.135   3.931  0.2798 -0.1378 -0.1200
32595W        W47726  14.506   2.554   6.307  0.2319  0.0062 -0.2867
32596W        W47727  15.353   5.838   0.625 -0.1487  0.0942 -0.2150
32597W        W47728  13.165   7.214  14.300 -0.1156  0.1546  0.0792
32598W        W47729  11.432  12.540  12.723 -0.0115 -0.0986 -0.0563
32599W        W47730   3.444  13.577  14.725 -0.0545 -0.0934  0.0101
32600W        W47731  15.047   6.720  15.147  0.0273 -0.0264 -0.1467
32601W        W47732   0.352   5.567  12.192 -0.0177  0.1533  0.2833
32602W        W47733  12.533  15.171   3.334 -0.0330  0.1826  0.0838
32603W        W47734  15.632   1.374   6.233  0.0959 -0.0148 -0.3283
32604W        W47735   8.992  14.909  10.931 -0.3276  0.1692 -0.2343
32605W        W47736   6.786  14.042   3.642  0.0600 -0.2451  0.2507
32606W        W47737  15.319  14.027  11.876  0.0503 -0.1061  0.0770
32607W        W47738   2.478   0.212   6.063 -0.0780 -0.1780  0.1575
32608W        W47739   5.429  14.191  14.119  0.1091 -0.1867 -0.1678
32609W        W47740  14.150   8.667   6.276 -0.1574 -0.2639  0.4245
32610W        W47741  10.568  11.175   0.900 -0.1225  0.1513  0.0328
32611W        W47742  17.669  10.022   0.549  0.1432 -0.3599 -0.0220
32612W        W47743   4.136   2.492  11.640 -0.0484  0.0746 -0.1102
32613W        W47744   3.788  14.436  16.007 -0.1154  0.2256 -0.1371
32614W        W47745   0.450   6.675   4.766  0.2873 -0.0235  0.0197
32615W        W47746  17.256  10.993   3.564  0.1862  0.0021  0.0411
32616W        W47747  12.405  12.718  11.104 -0.0166  0.0270  0.0320
32617W        W47748   7.897   8.507  10.675 -0.0665 -0.0990  0.0401
32618W        W47749   2.862  15.050  12.563  0.1338  0.1551 -0.1127
32619W        W47750   8.008   2.158   5.023 -0.0713 -0.1250  0.0376
32620W        W47751  14.010   9.466   2.795 -0.1512 -0.0743  0.1862
32621W        W47752   8.740  13.522  11.898  0.1129  0.1888  0.0098
32622W        W47753   5.707   8.486   2.534  0.1196 -0.2529 -0.3452
32623W        W47754   7.164   3.881  15.406  0.1078 -0.1599 -0.0631
32624W        W47755   0.003  13.865  12.301  0.0741  0.0012 -0.1028
32625W        W47756   7.101   0.614  11.118  0.0452 -0.0362 -0.1672
32626W        W47757  18.360   7.023   3.666 -0.2441 -0.1962  0.0672
32627W        W47758   0.388  12.698   1.363 -0.0769  0.1881  0.5727
32628W        W47759   3.851   5.165   9.976 -0.2265  0.0845  0.1468
32629W        W47760   2.947   2.074   3.520  0.0438  0.1463 -0.0701
32630W        W47761  14.505   4.663   5.933 -0.0137 -0.1099 -0.1430
32631W        W47762   8.574   3.074   3.666 -0.0376 -0.1655 -0.2649
32632W        W47763  12.170  17.662  12.311 -0.1850  0.0142  0.1551
32633W        W47764  11.898  14.470  13.654  0.1794  0.3272 -0.3039
32634W        W47765  18.217   9.296   2.967  0.0775  0.0774 -0.0083
32635W        W47766   4.744   3.979   3.761  0.1065  0.0430 -0.1088
32636W        W47767   3.352  16.288  12.401  0.0477 -0.1249 -0.0737
32637W        W47768   4.936  13.315   3.237 -0.3159  0.0029 -0.1925
32638W        W47769   7.828   0.156  12.894 -0.1697  0.1189 -0.3472
32639W        W47770   2.392  12.594   0.599 -0.0724 -0.0211  0.1199
32640W        W47771   9.986  16.963  12.141  0.0377  0.0046 -0.1947
32641W        W47772  12.928  10.305  13.955  0.1375  0.2963  0.0267
32642W        W47773   4.338   8.745   5.284 -0.3426  0.0368 -0.0035
32643W        W47774   9.915  11.782   9.706 -0.0647 -0.0346 -0.2407
32644W        W47775  12.756   5.049   2.868  0.2697 -0.0590  0.1173
32645W        W47776   9.643  17.028   0.402  0.0292  0.2136  0.2884
32646W        W47777   8.203   6.617   1.877 -0.1285 -0.0764  0.1822
32647W        W47778   5.549   6.500  15.610  0.1507  0.1221  0.1983
32648W        W47779   8.841  15.843  11.728  0.3679  0.1195 -0.2152
32649W        W47780   2.503  12.512   2.589 -0.1538  0.0118 -0.0110
32650W        W47781   7.964   1.543  10.797  0.3627  0.2506 -0.0551
32651W        W47782   7.458  16.008  14.293 -0.0480  0.2901 -0.2173
32652W        W47783   2.732  11.181   1.136 -0.0388  0.1642 -0.0485
32653W        W47784  15.356  16.762   2.316  0.0002 -0.0365 -0.0622
32654W        W47785  15.776   6.282  12.730  0.0309 -0.1548 -0.1224
32655W        W47786  11.821   3.439   1.628  0.2048  0.0293 -0.2718
32656W        W47787   8.977   6.579   4.629 -0.0582 -0.1569 -0.0925
32657W        W47788  15.612  14.491   5.545 -0.0902 -0.3482 -0.0271
32658W        W47789   6.049   1.831  11.616  0.3344 -0.0968  0.1217
32659W        W47790   7.739   6.069   5.213 -0.0058  0.5508  0.1297
32660W        W47791  15.791  12.356   4.738 -0.0486  0.0568 -0.0698
32661W        W47792   4.888   0.257  12.195  0.3389  0.0043  0.0507
32662W        W47793   0.179   2.203   3.928  0.1042 -0.0389  0.0528
32663W        W47794  16.474  10.746  14.174  0.1063  0.0224 -0.0221
32664W        W47795   2.163   1.814  14.387  0.1200  0.0580 -0.2059
32665W        W47796  10.628  13.851  11.474  0.1161 -0.1935  0.1888
32666W        W47797  12.471   9.601   0.138  0.1175  0.0608 -0.0037
32667W        W47798   1.636   2.419  13.265 -0.2423  0.1047 -0.2751
32668W        W47799  15.477   8.162   5.006  0.0898 -0.1579 -0.1326
32669W        W47800  12.729   1.039   1.366 -0.1538  0.0325  0.0455
32670W        W47801   7.987   3.903   4.705 -0.2264  0.3309 -0.0922
32671W        W47802  13.570  15.299  13.803 -0.0158 -0.4636 -0.1391
32672W        W47803  10.568  15.993   4.112  0.0919  0.1351  0.0729
32673W        W47804   3.721  18.333  11.285  0.1414  0.0153  0.1514
32674W        W47805   8.304  15.902  10.983  0.0406 -0.2038  0.2301
32675W        W47806  17.852   7.756   4.084 -0.1629  0.0266 -0.5038
32676W        W47807   3.843  15.263   2.270 -0.0681 -0.0084 -0.2861
32677W        W47808   6.141  16.348  11.316 -0.1532 -0.2930  0.0948
32678W        W47809  14.573   4.430   3.419  0.3317  0.1826 -0.0857
32679W        W47810  10.197  11.687   5.721 -0.4822  0.2349  0.0768
32680W        W47811   4.192  10.941   5.176  0.2400 -0.1308 -0.2080
32681W        W47812   3.588   6.920   2.565  0.1880 -0.1626  0.1513
32682W        W47813   4.557  13.417   1.763  0.3024 -0.2751  0.1026
32683W        W47814  12.503   9.523  15.280  0.0003  0.1425  0.2249
32684W        W47815   2.639   5.995  11.531  0.3270  0.0833 -0.1075
32685W        W47816   7.736   4.389  14.040  0.0556  0.0676 -0.0006
32686W        W47817   4.178  17.750   1.838 -0.1363  0.1257 -0.2806
32687W        W47818   0.190   4.427  15.605 -0.2296  0.1329  0.2084
32688W        W47819   5.290   2.240   4.069  0.2531 -0.0149 -0.0902
32689W        W47820   8.487  12.012   1.103  0.2636  0.0167  0.2245
32690W        W47821   3.539  10.348   0.357 -0.0855  0.1018 -0.1316
32691W        W47822   8.676   4.851   1.169  0.1215  0.2193 -0.3758
32692W        W47823  13.602   7.136  10.727  0.3629  0.0796 -0.0867
32693W        W47824   9.769   0.215  12.878  0.0668  0.1209 -0.2173
32694W        W47825  17.564  14.901   3.297 -0.1132  0.0030  0.0735
32695W        W47826   0.054  15.669   2.041  0.0169  0.0898  0.0944
32696W        W47827  13.724  11.037   1.719  0.1047 -0.1779 -0.1837
32697W        W47828   8.220   1.652  16.126  0.1219  0.0822  0.0156
32698W        W47829   2.649  13.580  14.801  0.0262 -0.2281  0.5295
32699W        W47830   1.206   0.848  14.709 -0.0220 -0.0304  0.1593
32700W        W47831   0.906   0.509  15.746  0.2518 -0.0235 -0.0137
32701W        W47832   0.032   5.647  13.326  0.3179  0.0059 -0.2580
32702W        W47833   2.273  12.606  14.628  0.0674  0.0088  0.0077
32703W        W47834   1.065   2.333  15.653 -0.0315 -0.2171 -0.1678
32704W        W47835   2.471   0.469  15.971  0.1053 -0.1109  0.1025
32705W        W47836   3.183  12.648  16.107  0.0621  0.4280  0.0730
32706W        W47837   4.205  18.023  12.431  0.0513 -0.0424 -0.0229
32707W        W47838   0.401   6.635  12.718 -0.2527 -0.0532  0.1696
32708W        W47839   7.974  11.116  15.084 -0.0572  0.2549 -0.0527
32709W        W47840  11.765   7.611  12.661  0.1002 -0.2596 -0.0389
32710W        W47841  18.285   3.847  12.065 -0.0958  0.0759 -0.1517
32711W        W47842   8.294   2.959   6.093  0.2339  0.2186 -0.2387
32712W        W47843  10.200  13.653   2.213  0.0639  0.1497  0.0894
32713W        W47844   3.470  10.671   2.911 -0.1106  0.1342  0.2725
32714W        W47845  12.625  18.251  14.601  0.2254  0.0730  0.1343
32715W        W47846  11.738  11.126  11.134  0.1293  0.1228  0.1505
32716W        W47847   1.144   7.039  12.193  0.0350  0.0883 -0.0155
32717W        W47848   8.600   1.220  16.134 -0.0755 -0.1683 -0.0625
32718W        W47849  15.149   5.221   4.771  0.0070 -0.0289 -0.0997
32719W        W47850   0.965  15.882   0.016  0.3226  0.0061 -0.2327
32720W        W47851   8.454  10.567   0.896  0.0521  0.1254  0.0473
32721W        W47852   3.705  10.662   0.016  0.2155 -0.2293  0.0110
32722W        W47853  18.193  13.978  15.619 -0.3616 -0.0975 -0.0693
32723W        W47854   0.082   6.676   0.591  0.0435 -0.2058 -0.2265
32724W        W47855  17.206   8.930   1.926  0.2722  0.0113  0.1181
32725W        W47856   9.624   9.141  11.336  0.0453 -0.1025 -0.1614
32726W        W47857   1.485   6.485   2.758 -0.3689 -0.2430 -0.2316
32727W        W47858   3.713   9.008  10.890 -0.1440 -0.2250 -0.1448
32728W        W47859  15.849  11.913  13.152  0.0820 -0.0874  0.2010
32729W        W47860   5.335   2.021  15.293 -0.3795  0.0456  0.1527
32730W        W47861   6.042   4.858  12.602  0.1544 -0.1621 -0.0530
32731W        W47862   6.049   9.332  15.574 -0.0395  0.0784 -0.3358
32732W        W47863   1.988  16.544   3.375  0.0335 -0.1454 -0.0735
32733W        W47864   6.574   5.321  14.587 -0.0904  0.1520  0.0289
32734W        W47865   0.333  12.724   2.028  0.2275  0.1766 -0.1062
32735W        W47866  13.290   8.867  14.069 -0.0596 -0.2477  0.0398
32736W        W47867  10.683   2.461  12.214 -0.1836 -0.1169 -0.0506
32737W        W47868  10.602   0.799   4.170  0.2428 -0.4225 -0.0397
32738W        W47869  11.657  14.242   3.142 -0.0418  0.3527 -0.2232
32739W        W47870   7.289   0.789   0.879 -0.0762  0.3763  0.1544
32740W        W47871  11.794   7.660  15.893  0.2750 -0.1459 -0.0165
32741W        W47872   3.870   5.037  11.660 -0.0669 -0.1669 -0.0248
32742W        W47873  14.258  10.022   2.782 -0.0180 -0.2128  0.0123
32743W        W47874   9.146   3.008   5.700  0.1518  0.0289 -0.0482
32744W        W47875  12.902  16.435   1.883  0.1052 -0.1842 -0.1887
32745W        W47876  10.571   8.572  16.109  0.0472  0.0632 -0.0462
32746W        W47877   5.882   5.991  11.336 -0.2080  0.0338 -0.1279
32747W        W47878  14.545   3.831  15.796  0.0384 -0.3324  0.0635
32748W        W47879   1.476   8.123  13.096  0.3111  0.1340  0.3618
32749W        W47880  12.267  12.448   4.264  0.4612  0.1564  0.3852
32750W        W47881   2.529   7.058  15.928  0.0255 -0.1403 -0.1333
32751W        W47882  17.496  16.815  13.408  0.2104 -0.0530 -0.0983
32752W        W47883   1.704   8.082  11.145  0.1545 -0.0061  0.1449
32753W        W47884   4.825  14.066  10.054 -0.0809  0.2176 -0.2476
32754W        W47885   3.268   9.034  14.358  0.1782  0.0432  0.1457
32755W        W47886   1.644   6.940  15.045 -0.1267 -0.0437 -0.0638
32756W        W47887  17.017  10.486   1.727 -0.1580 -0.1424  0.2061
32757W        W47888   9.823  15.503   9.664  0.1012  0.0532 -0.1372
32758W        W47889  14.845  10.226   4.779  0.2851 -0.2267 -0.0307
32759W        W47890   1.856   2.132  11.930  0.1074 -0.1453  0.1791
32760W        W47891   9.755   3.752   4.239  0.2553 -0.1314  0.1864
32761W        W47892   9.178   0.046  15.120  0.0536  0.1679 -0.1407
32762W        W47893  17.881   2.606   4.131  0.0769  0.0721 -0.0093
32763W        W47894   9.088   2.624  12.470  0.0479  0.0753 -0.1744
32764W        W47895   0.723   9.221   2.113 -0.1115 -0.2374 -0.1544
32765W        W47896  18.297  11.063   4.173  0.2285  0.0281 -0.1528
32766W        W47897   3.671   8.587  11.915  0.0128 -0.2805  0.3179
32767W        W47898   4.821   3.928   1.938  0.0674  0.2856  0.1386
32768W        W47899   4.228  14.441   1.526 -0.0790  0.1201  0.1883
32769W        W47900   0.550  15.715  13.128  0.2979  0.1593 -0.1879
32770W        W47901   1.737   9.612   3.037 -0.2676 -0.0687  0.1404
32771W        W47902   2.708   3.528   4.369  0.1310  0.5285 -0.4367
32772W        W47903  12.932   0.230  15.603 -0.1799  0.0467 -0.1220
32773W        W47904   0.599   3.288   2.841 -0.1573  0.1999 -0.1117
32774W        W47905   9.822   8.237  14.332  0.0071  0.0354  0.0458
32775W        W47906  18.143   7.915   0.698  0.1401 -0.1334 -0.1747
32776W        W47907  11.285  13.648  12.965 -0.4300 -0.0091  0.0957
32777W        W47908  14.338  11.449   6.304  0.1568  0.1954 -0.1671
32778W        W47909  14.161  15.349  15.060 -0.1640  0.0638 -0.0457
32779W        W47910   2.194   3.485  14.076  0.0009 -0.0775 -0.0823
32780W        W47911   6.112  14.444   2.958  0.3385  0.0217 -0.0495
32781W        W47912  14.348   4.735   4.306 -0.2220  0.1427  0.3472
32782W        W47913  11.430  18.147   1.430  0.0042 -0.1711 -0.1079
32783W        W47914   2.695   7.622   2.380 -0.2937 -0.1114 -0.0075
32784W        W47915  10.666   6.295   5.621 -0.3874 -0.0712  0.0813
32785W        W47916   8.817  12.388  14.185  0.1937 -0.2077 -0.2967
32786W        W47917   6.018  11.463  11.803 -0.1361  0.0895 -0.1672
32787W        W47918   5.117   3.360   0.417 -0.0781 -0.0216 -0.2024
32788W        W47919   8.279   2.972  14.817  0.1421 -0.3419  0.2478
32789W        W47920   7.048  13.460   1.374  0.1291 -0.4862 -0.0796
32790W        W47921   0.619  15.510  11.701  0.1131  0.0082 -0.2116
32791W        W47922   0.866  10.517  15.015 -0.0264  0.0020 -0.0407
32792W        W47923   1.117  15.003  14.429  0.0694 -0.1452 -0.0877
32793W        W47924  13.683   5.759   4.836 -0.0173  0.0941  0.3630
32794W        W47925   0.131   0.665   1.567  0.2008 -0.1055  0.0074
32795W        W47926  12.791  14.431   2.811  0.0031  0.0841  0.2872
32796W        W47927   3.585  14.609  12.211  0.0460 -0.0897  0.0716
32797W        W47928   5.965   7.792   3.240  0.0172 -0.0218 -0.0021
32798W        W47929  10.973   9.066  12.893  0.0396  0.0012 -0.1614
32799W        W47930   8.333   9.145  12.844  0.1039  0.4411  0.2067
32800W        W47931  15.347  18.214  13.884  0.0672 -0.0778  0.0107
32801W        W47932   9.357   9.094   2.273 -0.2183 -0.1138  0.2347
32802W        W47933  13.875  10.250  15.163  0.3145 -0.0575  0.1852
32803W        W47934   1.167   2.641  10.947  0.2513 -0.1947 -0.2479
32804W        W47935   5.821   1.354   1.404 -0.1130  0.1090  0.0015
32805W        W47936   7.886  16.197   5.470 -0.0685  0.5275  0.2741
32806W        W47937  13.629   6.169   0.376 -0.0433  0.0714  0.2210
32807W        W47938   5.877  14.771  11.665 -0.2682 -0.0783  0.1258
32808W        W47939   7.869   9.415  14.524  0.0646  0.3610 -0.0349
32809W        W47940   5.090  16.836  12.564 -0.3926  0.3138  0.0710
32810W        W47941   0.130   0.082  15.573  0.1474  0.0702 -0.1232
32811W        W47942  13.865  17.996  15.131 -0.1009 -0.2271  0.4039
32812W        W47943  15.184   4.509  13.234 -0.1384 -0.1603 -0.2647
32813W        W47944   0.862   8.720  10.192 -0.2105  0.2898  0.1536
32814W        W47945  14.097   6.629   0.968 -0.0473 -0.0337 -0.0957
32815W        W47946   4.054   8.488   4.029  0.0408 -0.0170 -0.1768
32816W        W47947  14.638  15.951   3.144  0.2410  0.0109 -0.1785
32817W        W47948  11.155  11.790  12.090  0.2292  0.1609 -0.0955
32818W        W47949  13.485   7.284  13.849 -0.1710 -0.0655 -0.3781
32819W        W47950  16.848  14.250   1.588 -0.0956  0.2565 -0.0529
32820W        W47951   1.240  11.570  13.663 -0.0042  0.2689  0.0916
32821W        W47952   4.518  14.367   6.084 -0.1310  0.1166 -0.0549
32822W        W47953  13.243  17.996  14.316  0.0465 -0.0918 -0.0124
32823W        W47954  10.208   2.242   4.986 -0.1680 -0.1308  0.1134
32824W        W47955   9.272  14.074  13.079 -0.1030  0.2437  0.0964
32825W        W47956   5.869  10.958  13.571  0.0689  0.0824  0.1151
32826W        W47957   7.680   7.081  11.630  0.0749 -0.1659 -0.0117
32827W        W47958  13.045   8.349   5.997 -0.1238 -0.1468 -0.0265
32828W        W47959  16.821   2.979   5.650  0.1491 -0.0389 -0.1615
32829W        W47960  15.465   8.103   0.447 -0.2031  0.1923  0.0361
32830W        W47961   9.089  16.122  15.815 -0.0656  0.2530  0.5383
32831W        W47962   9.606  13.653  12.954  0.1539  0.2065 -0.0958
32832W        W47963   6.266  10.961   4.996  0.0723 -0.1044 -0.1043
32833W        W47964  13.779   9.964   3.968  0.0863  0.6757  0.1197
32834W        W47965   5.797  11.613  13.408  0.0943  0.0308  0.1608
32835W        W47966   5.891  15.601   2.597  0.0091 -0.2893  0.0166
32836W        W47967  18.091  10.145   0.230  0.1793  0.2260 -0.4667
32837W        W47968  11.359  10.639   3.708 -0.1688  0.3261  0.0763
32838W        W47969   4.721  18.046   5.326  0.0771 -0.1368 -0.3504
32839W        W47970   9.084  15.278  15.574 -0.0939 -0.3601  0.1606
32840W        W47971   9.812  12.034  15.436 -0.0410  0.0340 -0.0275
32841W        W47972   3.049  16.066   3.988  0.0574  0.1694 -0.0805
32842W        W47973   1.227  12.177   1.024 -0.1519  0.0129 -0.0672
32843W        W47974   8.003  14.449  16.029 -0.1339 -0.2461  0.0996
32844W        W47975   7.196  18.258  11.463  0.0932  0.3198  0.3113
32845W        W47976  12.883   8.596  11.718 -0.1798  0.0822  0.0537
32846W        W47977   9.736   8.765  15.833  0.0630  0.0714 -0.0115
32847W        W47978   6.040   4.832   1.863  0.3765  0.2654  0.0821
32848W        W47979   3.862  14.827  14.786 -0.1438  0.0603  0.2022
32849W        W47980   9.593  15.987  10.655  0.0872 -0.0017  0.2327
32850W        W47981   4.987   0.949  11.912 -0.1023 -0.3487 -0.1147
32851W        W47982   5.139   3.971   0.177 -0.2763  0.1440  0.0028
32852W        W47983  12.554  15.447   3.844 -0.0379 -0.0047  0.1082
32853W        W47984  14.140  12.970  13.668 -0.0518 -0.0304  0.0709
32854W        W47985  13.969   9.826   1.924 -0.0996  0.0275 -0.3357
32855W        W47986   2.515   1.951   3.114 -0.0503 -0.1462  0.3105
32856W        W47987  17.548   3.035  14.151 -0.0913 -0.1742 -0.0546
32857W        W47988  14.790  13.566   3.115  0.1671  0.0720 -0.3485
32858W        W47989   9.527   6.947  12.089  0.2450 -0.1941 -0.0926
32859W        W47990   8.841   3.589  10.617 -0.0389 -0.1450 -0.1175
32860W        W47991  10.405   8.163  12.106 -0.1374 -0.0182 -0.1105
32861W        W47992  15.021   8.877   1.462 -0.1565  0.1326 -0.0302
32862W        W47993  15.323  11.707   0.679  0.0911 -0.3271  0.0404
32863W        W47994   1.288  11.442   2.485 -0.4266 -0.0151 -0.1531
32864W        W47995   0.760  17.681  13.045 -0.2198  0.2166 -0.1181
32865W        W47996   2.798   3.395  12.596  0.1799 -0.1634  0.0848
32866W        W47997   6.904   1.666  10.983  0.0631 -0.0265 -0.2676
32867W        W47998   3.222   3.823  13.748 -0.1288  0.0975  0.2766
32868W        W47999   4.098  11.082   0.814 -0.2174  0.0566  0.0058
32869W        W48000   9.341   7.482  15.440 -0.1617  0.0139  0.1253
32870W        W48001  10.778   6.525   3.874  0.0791  0.0127 -0.1312
32871W        W48002   7.004   1.291   4.740  0.4641 -0.2328  0.0801
32872W        W48003  10.635  14.961  14.017  0.0812 -0.3264  0.0884
32873W        W48004  16.427   5.607   2.698 -0.0418 -0.4547 -0.0208
32874W        W48005   8.987   5.223   4.631  0.0175  0.3873  0.0159
32875W        W48006   3.255   5.453   4.667 -0.0298  0.3350  0.1953
32876W        W48007   3.140   5.420  15.858 -0.1321  0.0489  0.0265
32877W        W48008  10.349   9.800  11.196  0.0601 -0.0270  0.0841
32878W        W48009  10.666   0.827   2.285 -0.1301 -0.1165 -0.4444
32879W        W48010  17.212  10.038   0.920 -0.1814 -0.1799 -0.0825
32880W        W48011  10.135   3.365  16.094 -0.0131  0.1483 -0.1693
32881W        W48012  16.035  18.175   5.484  0.2245 -0.5715 -0.0142
32882W        W48013  16.065   7.113  13.941  0.1618 -0.3123  0.1458
32883W        W48014  14.806   4.867  10.934 -0.0275 -0.1749  0.1322
32884W        W48015   9.974  18.276   1.399 -0.1759  0.1151  0.1547
32885W        W48016  10.502  15.134  14.494  0.0445 -0.0824 -0.1707
32886W        W48017   5.279   8.750   1.266  0.1599 -0.1768 -0.2537
32887W        W48018   1.316   1.301   2.788  0.0206 -0.0557  0.3121
32888W        W48019  10.832   5.822  10.247  0.3607 -0.1216  0.1482
32889W        W48020  16.542  14.082   0.559 -0.0958 -0.3616  0.2546
32890W        W48021   6.795  17.497  12.991  0.0596  0.0561  0.3040
32891W        W48022   2.781   7.848  11.010  0.0249  0.1234 -0.1516
32892W        W48023  11.148   3.035   4.929 -0.0153 -0.1421  0.1412
32893W        W48024  12.402  13.682  12.625 -0.3444 -0.3109 -0.0758
32894W        W48025  16.758  11.933   3.490  0.1249 -0.1729 -0.0657
32895W        W48026   2.248   5.519   0.608 -0.2440  0.2300 -0.0381
32896W        W48027  11.495  16.519   2.520  0.3146 -0.0956  0.1695
32897W        W48028  15.379  14.758  14.218  0.0307 -0.1759 -0.3045
32898W        W48029  18.300   6.830   0.127 -0.3462  0.0292  0.2420
32899W        W48030  12.730   6.603   3.541 -0.1034 -0.0272 -0.1802
32900W        W48031   7.424  17.941   1.573  0.3004  0.0429 -0.2930
32901W        W48032  15.967   9.296   0.666 -0.2148 -0.1082  0.1910
32902W        W48033  10.611  15.926  13.105  0.3099  0.0422  0.1978
32903W        W48034  17.481   9.344   3.741  0.0357  0.3962 -0.3231
32904W        W48035   3.670   7.043   0.819 -0.2509  0.0244  0.0252
32905W        W48036  15.368   3.369  13.386 -0.5371  0.2940 -0.1068
32906W        W48037  12.434  14.366  12.846  0.1715 -0.0971 -0.1610
32907W        W48038   4.722   7.432   2.729  0.2700  0.1301 -0.1753
32908W        W48039   8.237   7.359   2.369  0.0909  0.3540 -0.5926
32909W        W48040  11.982   0.320  14.352 -0.0886  0.5764  0.0087
32910W        W48041   6.222   2.892  15.915  0.0211 -0.0830  0.1477
32911W        W48042   4.117   7.779  12.922 -0.0732  0.1133 -0.0954
32912W        W48043  16.701   9.847  10.826 -0.0765 -0.2318  0.3790
32913W        W48044   8.840  15.437   4.273  0.0971 -0.2620  0.0766
32914W        W48045   1.916  15.601  14.517 -0.1778  0.2127 -0.0133
32915W        W48046   4.127  10.734   1.360 -0.2886  0.0895  0.1561
32916W        W48047  12.161   3.628   3.555 -0.3522  0.1734  0.1047
32917W        W48048  11.735  17.953  13.186 -0.2753  0.0150  0.2426
32918W        W48049   9.807   1.307  12.102 -0.2471 -0.2199  0.1574
32919W        W48050   2.446  12.903   2.903  0.0381  0.0272 -0.0876
32920W        W48051   5.819   0.108   1.322  0.0423  0.2597  0.1728
32921W        W48052   0.087   7.062   3.118 -0.1904  0.2193 -0.1916
32922W        W48053   6.609  12.394  15.580 -0.0513 -0.2006 -0.1973
32923W        W48054  15.252  17.980   0.967  0.0234 -0.0121  0.0779
32924W        W48055   0.825   9.977   2.577  0.0900 -0.0259 -0.1077
32925W        W48056  16.044   6.538  15.917  0.0386 -0.1424 -0.2772
32926W        W48057  14.637  13.968   2.184 -0.0268 -0.0664 -0.0212
32927W        W48058  14.397   2.796   0.366  0.2638  0.2444 -0.0567
32928W        W48059   9.984   4.843   1.314  0.2667  0.1397 -0.0389
32929W        W48060   2.789   7.871  14.669  0.0822  0.1185  0.1365
32930W        W48061   7.840  16.847  16.036 -0.0066 -0.1132  0.2263
32931W        W48062   2.897  15.385   0.900 -0.2422 -0.0382  0.0240
32932W        W48063  17.152  15.099   0.879  0.3040 -0.2200  0.3755
32933W        W48064   9.695   9.690   2.990 -0.1356 -0.2559 -0.1284
32934W        W48065   9.575  12.057   1.843 -0.4184  0.1966 -0.1573
32935W        W48066   0.128  11.921  13.501  0.0129 -0.1713  0.1264
32936W        W48067   5.003  17.634  12.284 -0.0541  0.0974  0.0605
32937W        W48068   7.689  10.373   0.700  0.0358  0.1296  0.2328
32938W        W48069  11.881   8.825   5.342 -0.2526 -0.0177  0.1075
32939W        W48070   9.860   3.359  10.179  0.2657  0.1699  0.1443
32940W        W48071  13.300   7.253   3.624 -0.0749  0.1210  0.0053
32941W        W48072   0.551  10.080   3.309 -0.2820 -0.0271  0.0259
32942W        W48073  11.978   8.573   3.970  0.0686 -0.0261  0.0100
32943W        W48074  18.172  18.316  16.132  0.0235 -0.2210 -0.0456
32944W        W48075   8.361  15.026   1.342 -0.0772  0.0134  0.1138
32945W        W48076   8.111  11.541  12.843 -0.4424 -0.0085 -0.0201
32946W        W48077  15.833  12.863  14.905 -0.1626 -0.0257 -0.2782
32947W        W48078  10.785   6.163   2.939 -0.3743  0.1818  0.0557
32948W        W48079  10.404  13.204   2.954 -0.0956 -0.2730  0.1132
32949W        W48080  13.625   7.734   2.286  0.1879  0.1773 -0.1430
32950W        W48081  16.402   9.293  13.808 -0.2429  0.0525  0.1230
32951W        W48082   6.926   7.230   2.855 -0.0164  0.3832 -0.0588
32952W        W48083  12.977   6.656   0.048 -0.1192 -0.0927  0.3528
32953W        W48084  10.023  16.795  12.692  0.1022 -0.0092  0.1265
32954W        W48085   7.606   4.706  14.932 -0.0996  0.0214 -0.1262
32955W        W48086   5.448  17.202  13.560 -0.0195 -0.1700  0.1374
32956W        W48087  11.458  15.989  14.911  0.1382  0.2615 -0.1506
32957W        W48088  18.101   4.268   0.018  0.0390 -0.1290  0.2798
32958W        W48089   8.396   5.247  15.143 -0.1970 -0.1361 -0.1753
32959W        W48090  12.949   4.351  13.721  0.1290 -0.1139  0.4853
32960W        W48091  13.223   6.199  14.972 -0.1391 -0.0941  0.1765
32961W        W48092  17.441  14.383  13.426  0.1534  0.5591 -0.3445
32962W        W48093  17.610   3.570  15.580 -0.0722  0.3199 -0.2831
32963W        W48094  12.174   0.300  11.264 -0.0497 -0.2491 -0.0327
32964W        W48095   0.007   4.827  12.277  0.2325  0.3564 -0.2355
32965W        W48096   5.321   8.941  14.058 -0.2014  0.0062 -0.1111
32966W        W48097   4.524  16.984   3.086  0.1467  0.0128  0.1060
32967W        W48098  16.330  12.856   0.734  0.1880 -0.1585  0.2072
32968W        W48099  15.388  16.824   3.066 -0.0444 -0.0152  0.0026
32969W        W48100   4.626   8.121  10.282 -0.0496 -0.2916  0.0390
32970W        W48101  10.353  12.313   9.685  0.1857 -0.1504 -0.3350
32971W        W48102   5.129   4.583  11.280  0.1732 -0.1259  0.0843
32972W        W48103  13.538  11.843   0.394 -0.0639 -0.1177 -0.1193
32973W        W48104  12.758   2.814  15.501  0.0888 -0.3528  0.1164
32974W        W48105  14.596  12.290  13.081  0.1111  0.0999  0.1422
32975W        W48106  17.625  17.197  11.995  0.1188 -0.1826  0.0465
32976W        W48107  18.005   4.789   3.848 -0.1466  0.0122 -0.0899
32977W        W48108  12.836  11.613  12.812  0.4188 -0.2682  0.0986
32978W        W48109   3.963   4.374   4.512  0.0524 -0.0660 -0.0189
32979W        W48110   9.180  10.946   2.777  0.0260 -0.2818  0.2684
32980W        W48111  12.626  13.721   1.797 -0.2455 -0.3020 -0.2772
32981W        W48112  15.168   4.687   1.641  0.0111  0.2951  0.0789
32982W        W48113   9.111   8.520  11.695  0.2889 -0.2737 -0.0411
32983W        W48114  14.973   3.936  14.284 -0.1535 -0.1322 -0.3251
32984W        W48115   1.027   7.956  12.348 -0.0389 -0.0270 -0.0239
32985W        W48116  17.601  18.159   1.660  0.1653  0.0041 -0.1867
32986W        W48117  11.807  15.067   0.983  0.0420  0.0666 -0.2324
32987W        W48118   2.519   2.914   4.596  0.2763  0.0410 -0.0042
32988W        W48119  12.410   0.243   1.246 -0.0671  0.2569  0.0613
32989W        W48120  14.544  11.683  10.923  0.0204 -0.1785 -0.3164
32990W        W48121  11.766   2.882  15.846 -0.4186  0.0993 -0.1112
32991W        W48122   4.638   5.301  13.121  0.0546 -0.0364 -0.2606
32992W        W48123  15.172   0.915  10.579  0.2521  0.1695 -0.0848
32993W        W48124  17.990  15.766   1.102  0.0760  0.1101  0.0217
32994W        W48125   9.405  14.878  13.882  0.0272  0.0986  0.0808
32995W        W48126  13.740  12.910   0.455 -0.0015  0.0027 -0.0378
32996W        W48127   4.801   7.446  15.024  0.1676  0.2409  0.1070
32997W        W48128  14.702   0.740  14.823 -0.0734 -0.0473  0.0717
32998W        W48129  18.321  14.288   3.890  0.1835  0.2263 -0.0864
32999W        W48130   3.645  12.671   5.052  0.0512 -0.2304  0.2188
33000W        W48131   4.096   7.566   3.580  0.2719  0.0211 -0.1835
33001W        W48132   9.537  14.234   0.403 -0.1264 -0.1394 -0.1925
33002W        W48133  16.455   6.801   0.130 -0.2321 -0.2575 -0.1969
33003W        W48134   1.591  13.785  15.592 -0.0403  0.0985  0.0274
33004W        W48135  16.813  18.203  16.053 -0.1015  0.1482 -0.0898
33005W        W48136   8.298  18.239   2.465 -0.0832  0.0043 -0.1499
33006W        W48137   3.589  10.044   3.100  0.1173  0.5817 -0.2153
33007W        W48138   7.532   9.769   3.078 -0.3249 -0.1893  0.1057
33008W        W48139   9.327   6.098  15.321 -0.0758 -0.2849  0.1022
33009W        W48140  13.342  17.421   1.115 -0.0007 -0.0298 -0.0020
33010W        W48141  13.852   4.552  13.993 -0.0315  0.3082  0.1050
33011W        W48142   9.149  13.061  14.394  0.1327  0.0395 -0.0285
33012W        W48143  13.378  12.512  12.890 -0.0216 -0.0393  0.2722
33013W        W48144   1.318   4.249   0.873 -0.1458 -0.0139  0.0557
33014W        W48145  16.465   0.332   4.792 -0.0061 -0.0129 -0.0345
33015W        W48146   7.826  17.265   5.212 -0.1102  0.0125 -0.0096
33016W        W48147  16.108  13.999   2.207  0.0695  0.5700 -0.0405
33017W        W48148   6.828  16.538  15.309  0.0525  0.2296  0.5333
33018W        W48149   5.526   0.140  14.219  0.2815  0.0174  0.1182
33019W        W48150  16.908   1.741   3.619 -0.3272  0.0563 -0.0066
33020W        W48151   3.082   4.848  15.283 -0.2240  0.0310  0.1824
33021W        W48152  17.190  10.810   4.104 -0.0179  0.0783 -0.0550
33022W        W48153   3.748   9.299   2.892 -0.2575 -0.1728 -0.0205
33023W        W48154   6.784   0.129  11.215  0.2353 -0.2652 -0.1241
33024W        W48155   9.466  12.682  13.610  0.2254  0.0109 -0.0501
33025W        W48156   5.936   9.537   0.352  0.0005  0.0030  0.0474
33026W        W48157  14.553  15.083   3.210 -0.2113  0.0072  0.0137
33027W        W48158   7.105  10.753   2.991  0.4352 -0.0313  0.2375
33028W        W48159   4.410   5.733   1.394  0.3234 -0.1104 -0.0112
33029W        W48160  15.262  12.071  16.094  0.1260  0.1742  0.0678
33030W        W48161  18.146   7.932  11.437 -0.0496 -0.0825 -0.0431
33031W        W48162   1.083   9.642  14.656  0.0906 -0.1529 -0.1476
33032W        W48163  12.095  10.429   5.731 -0.2141 -0.1425 -0.0494
33033W        W48164  11.905   4.312  15.295 -0.1598 -0.1911  0.0649
33034W        W48165  15.811   6.830   5.898  0.3865 -0.0564 -0.0288
33035W        W48166  17.363  12.746   0.593  0.1612 -0.1464  0.2456
33036W        W48167  14.276   7.954   5.633 -0.1476  0.0498  0.0530
33037W        W48168   4.285  15.898  15.831  0.1879 -0.0223  0.0242
33038W        W48169  13.906   1.706   4.124  0.1310  0.2867  0.3123
33039W        W48170  13.658  13.816   0.348 -0.1683 -0.1202  0.0992
33040W        W48171   1.257  17.767   3.534  0.2357  0.0994 -0.2264
33041W        W48172   2.014   7.313  12.488 -0.0857 -0.0203  0.0703
33042W        W48173   3.631  15.181  11.551 -0.2741  0.1932  0.2641
33043W        W48174   2.911   6.490  15.061 -0.0493  0.1281  0.0273
33044W        W48175   0.013   5.754  11.280  0.0361 -0.0064  0.1238
33045W        W48176  14.302   5.585   5.653  0.0230 -0.2142  0.0885
33046W        W48177  15.699   1.233   5.231  0.1441 -0.0846  0.0100
33047W        W48178   6.386   3.723  11.182 -0.0922  0.1290  0.1302
33048W        W48179  16.001  18.277   4.395 -0.0451 -0.2001 -0.2462
33049W        W48180  17.295   1.368  11.811  0.1265 -0.0072  0.0118
33050W        W48181  12.629  16.349   4.639  0.1929  0.4405 -0.1122
33051W        W48182   6.652   0.757  13.440 -0.1713  0.0846 -0.0902
33052W        W48183   4.996   8.612  10.779 -0.0398 -0.1243  0.1018
33053W        W48184   3.095  14.829  12.137 -0.2109 -0.0862 -0.1253
33054W        W48185   2.711   1.593   3.452  0.1803 -0.0534 -0.1107
33055W        W48186   7.035   8.157  15.862 -0.0202 -0.0234  0.3920
33056W        W48187   2.948  17.835  15.166  0.3761  0.0684  0.1242
33057W        W48188   9.188   4.517   4.624  0.1099 -0.0033  0.0483
33058W        W48189  13.716  12.453   0.179  0.0865  0.0693  0.0171
33059W        W48190   5.078   9.202   4.125  0.0175 -0.2494 -0.0136
33060W        W48191   6.873   3.091   3.990  0.0344  0.3931 -0.0881
33061W        W48192  11.577   4.319   0.164 -0.2512 -0.2601  0.0849
33062W        W48193   8.211  17.666  15.599 -0.3041 -0.1307 -0.1273
33063W        W48194   7.920  13.551   2.054  0.0645  0.1146 -0.0017
33064W        W48195  13.204   6.653  14.355 -0.1756 -0.2555 -0.1999
33065W        W48196  13.710  10.874   5.642 -0.1607 -0.1450  0.2932
33066W        W48197   8.906  17.500  16.107  0.0935 -0.2820  0.2390
33067W        W48198   8.531   5.320   1.250  0.0005 -0.1096  0.1176
33068W        W48199  11.188   0.606   6.564 -0.0658 -0.0156  0.3685
33069W        W48200   4.466   1.329  14.694 -0.0346  0.1250  0.0753
33070W        W48201   4.285   2.110   1.785 -0.0677  0.1324 -0.2627
33071W        W48202   3.464   7.085  11.258  0.0421  0.0605 -0.1902
33072W        W48203   7.900   1.036  11.544  0.2011 -0.3382  0.0220
33073W        W48204   8.820   7.226  13.972 -0.0791 -0.1610 -0.1363
33074W        W48205  17.420  11.057   1.713 -0.0268 -0.1612  0.1945
33075W        W48206  12.407   5.847  13.641 -0.1959  0.1063 -0.3803
33076W        W48207   0.954   4.311   4.758  0.1804  0.0236 -0.3379
33077W        W48208   6.333  10.848   3.829  0.2405  0.0798  0.2999
33078W        W48209   9.348   7.602   4.079  0.0320  0.0964  0.0422
33079W        W48210   1.904   2.430   1.820 -0.2850  0.1920  0.0868
33080W        W48211  15.235   4.677   4.838  0.1013  0.0057 -0.1191
33081W        W48212  12.386  11.900  13.574 -0.1407 -0.0473 -0.2202
33082W        W48213  11.668   8.330   5.643 -0.1833  0.2211 -0.2784
33083W        W48214  13.734   9.744   2.478 -0.3731 -0.0147 -0.0598
33084W        W48215   4.807   3.268   3.340  0.1584  0.0701  0.0612
33085W        W48216  15.408   4.397   0.470 -0.0101  0.0211 -0.1284
33086W        W48217  13.776  15.366   4.352 -0.1748 -0.1407  0.1799
33087W        W48218  10.247   1.178   6.259 -0.2920 -0.0289 -0.1119
33088W        W48219  14.913  10.398   0.623  0.0490  0.1812  0.4058
33089W        W48220   6.122  16.432  16.123  0.2540 -0.2320 -0.0866
33090W        W48221  14.671   2.273   5.572  0.0007 -0.1975 -0.1352
33091W        W48222  15.778   3.887   2.560  0.1636 -0.0570 -0.4234
33092W        W48223  13.755   6.710   5.152 -0.0174 -0.0086  0.1770
33093W        W48224   1.215  17.344   4.027 -0.1665 -0.1717 -0.3840
33094W        W48225   6.508  17.850   2.925 -0.3154 -0.1184 -0.1781
33095W        W48226  14.190   9.300  14.216  0.1757  0.0972 -0.2747
33096W        W48227  11.942   9.289  12.468 -0.2984  0.0143 -0.0113
33097W        W48228  18.067  14.208   2.694 -0.2295 -0.0745  0.0472
33098W        W48229  11.534  16.708   4.491  0.0268  0.0312  0.3768
33099W        W48230   1.548  17.987   0.600 -0.0842 -0.1885  0.0025
33100W        W48231   1.843   9.353  11.365  0.0550  0.0725  0.0335
33101W        W48232  12.279   9.268  15.983 -0.3878 -0.0402 -0.1341
33102W        W48233   6.438   3.905   2.032  0.4529 -0.0017 -0.2178
33103W        W48234   6.658   4.395   0.479  0.3070  0.2800  0.0094
33104W        W48235  10.735  10.370   0.250  0.0072 -0.0422  0.2534
33105W        W48236   7.741  10.950  14.578  0.0556  0.4410 -0.1961
33106W        W48237   9.341   4.363  14.284  0.2722 -0.0862  0.0884
33107W        W48238  18.123   4.592  15.727  0.1198 -0.0071  0.2028
33108W        W48239   0.328   1.110   4.532  0.3251 -0.0802 -0.1445
33109W        W48240   8.288   4.762  13.606 -0.2233 -0.1455 -0.0204
33110W        W48241   1.752  15.188   1.005 -0.3854 -0.3100  0.0313
33111W        W48242   8.047   5.259   0.072 -0.0714 -0.1767 -0.2876
33112W        W48243  14.590  13.683  15.214  0.1678  0.0596  0.3446
33113W        W48244  17.437   3.490   3.367 -0.2430  0.2332 -0.0442
33114W        W48245   3.221   5.782   5.437 -0.3385 -0.0391  0.2585
33115W        W48246  14.093   9.444  12.429  0.1738  0.2512  0.0389
33116W        W48247   2.036  17.663  14.926 -0.0043 -0.3073 -0.1451
33117ION     NA48248   6.707   3.271  10.399  0.0065 -0.1171  0.2058
33118ION     NA48249  15.313   8.411  10.318 -0.0256 -0.1307  0.1487
33119ION     NA48250  11.301   1.502  10.403 -0.0400  0.3739  0.1018
33120ION     NA48251  12.558  15.922   4.246 -0.0797 -0.1521  0.3596
33121ION     NA48252  10.878   0.155   4.684 -0.1575  0.5401  0.1228
33122ION     NA48253   6.207   7.991  10.120 -0.0976 -0.0247  0.2136
33123ION     NA48254   0.722  17.459   6.180  0.2179 -0.0498 -0.4374
33124ION     NA48255   5.861   8.729   9.998  0.0819  0.0281 -0.0064
33125ION     NA48256   8.259   4.263  10.058  0.1517  0.2165 -0.2201
33126ION     NA48257   0.441   5.845   3.236 -0.0624  0.1155  0.1206
33127ION     NA48258   6.558   4.650  10.340  0.2281 -0.2587 -0.0413
33128ION     NA48259  11.735  12.876   1.051  0.0571 -0.0039  0.0807
33129ION     NA48260   9.522   7.824  10.347  0.0927  0.2098  0.1275
33130ION     NA48261   3.467   4.479  10.223 -0.2417 -0.0908  0.0458
33131ION     NA48262   8.550   0.385   6.205 -0.3018 -0.2017  0.0917
33132ION     NA48263   4.862   5.910  10.147  0.0850  0.1115 -0.1887
33133ION     NA48264  12.046   6.771  10.042 -0.1408 -0.2217  0.0368
33134ION     NA48265   7.931   1.566  10.299 -0.3208 -0.1358 -0.1434
33135ION     NA48266  13.657  13.623   3.021  0.0456 -0.1140  0.0558
33136ION     NA48267   2.717   6.094  10.101  0.2061 -0.1322 -0.0562
33137ION     NA48268  17.807   6.737  10.256 -0.0148  0.1601 -0.0384
33138ION     NA48269   2.702   5.078   9.969 -0.1534 -0.0989  0.0622
33139ION     NA48270  15.214  16.498  10.094  0.1484 -0.0342 -0.0826
33140ION     NA48271   0.777   5.588  10.323  0.1233 -0.0654  0.2368
33141ION     NA48272  13.968  14.873  10.049  0.1492 -0.0775 -0.1802
33142ION     NA48273   0.003  10.553   5.546 -0.1141 -0.0962 -0.0505
33143ION     NA48274  16.628   5.274  10.055 -0.0112 -0.1252  0.1049
33144ION     NA48275  14.097   5.867   6.048 -0.1191 -0.0979 -0.0159
33145ION     NA48276  11.754  18.109  10.535 -0.3884  0.1916  0.1115
33146ION     NA48277  11.097  16.061   9.883 -0.1596 -0.1321  0.2448
33147ION     NA48278  13.629   2.804   4.594  0.0003 -0.0016  0.1061
33148ION     NA48279   4.986   5.693   3.988  0.2741 -0.0231  0.2241
33149ION     NA48280   1.421   8.033   9.731  0.1956  0.1889 -0.2647
33150ION     NA48281   2.361   4.167  10.929  0.4251 -0.1479  0.1915
33151ION     NA48282   7.220   0.006   5.796 -0.0440 -0.0629  0.0284
33152ION     NA48283   6.868  13.473  13.613 -0.0642 -0.0956  0.1623
33153ION     NA48284   4.690  15.572  10.349 -0.3719  0.0516  0.2474
33154ION     NA48285  12.135  10.716  10.167 -0.1550  0.0640  0.2731
33155ION     NA48286   5.459   1.447  12.192 -0.2401  0.2667  0.0414
33156ION     NA48287   3.291   6.930  10.028  0.3733  0.1243 -0.2148
33157ION     NA48288   9.585   9.003  10.543  0.2610  0.0626 -0.0486
33158ION     NA48289  17.886   7.184   5.489  0.1920  0.3124  0.1559
33159ION     NA48290   6.726   5.706  10.399 -0.1118  0.4009 -0.1228
33160ION     NA48291  15.860  10.323  10.442  0.4396 -0.0141 -0.1483
33161ION     NA48292  17.856  17.157  10.249 -0.0084 -0.0357  0.0724
33162ION     NA48293  12.614   5.130  13.347 -0.2332 -0.0808 -0.3100
33163ION     NA48294  12.278  13.499   5.581 -0.0449 -0.1183  0.0342
33164ION     NA48295  14.566   8.737  10.455 -0.0831  0.0753 -0.1275
33165ION     NA48296   9.157  13.718   3.482  0.1758  0.0212 -0.1607
33166ION     NA48297  10.678  17.704   6.050 -0.1224  0.1554  0.2013
33167ION     NA48298  15.977  13.873  10.215 -0.2007 -0.0352  0.0335
33168ION     NA48299   0.527  17.991  14.849 -0.1815  0.1024 -0.1650
33169ION     NA48300   3.601  11.645  10.048 -0.0035 -0.2234 -0.0043
33170ION     NA48301  16.052   8.933  15.287 -0.1448  0.0969  0.0709
33171ION     NA48302   5.659   5.384  10.324  0.0523  0.1014 -0.0326
33172ION     NA48303   5.246   4.330  10.225  0.0865  0.2444  0.0582
33173ION     NA48304   1.956  11.029   9.729  0.1743 -0.1350 -0.2010
33174ION     NA48305   3.530   1.691   6.095  0.5580  0.5082 -0.1451
33175ION     NA48306   1.745   8.060  10.118 -0.0320  0.0037 -0.0690
33176ION     NA48307  14.376   7.753  10.401  0.1460 -0.0466  0.2962
33177ION     NA48308  13.672   1.976  11.897  0.4791 -0.0735 -0.0587
33178ION     NA48309  12.331  16.016  14.762 -0.0717 -0.2221  0.2515
33179ION     NA48310  13.590   5.408  12.103 -0.0430 -0.0809  0.3121
33180ION     NA48311  13.519   2.464  10.762  0.0850 -0.0484  0.1097
33181ION     NA48312   6.529   7.068   9.952  0.3744 -0.1241  0.0213
33182ION     NA48313   8.431   5.481   0.375  0.0470  0.1810 -0.0927
33183ION     NA48314   2.954   3.075  10.349 -0.0319 -0.2999 -0.1608
33184ION     NA48315   0.088  14.186  10.222 -0.2373 -0.3512 -0.0254
33185ION     NA48316   2.469   7.971   9.692  0.2691 -0.1884 -0.0092
33186ION     NA48317  14.996  12.495  10.115 -0.1169 -0.1655 -0.1875
33187ION     NA48318   0.675   6.573  11.405  0.1956  0.0279  0.2351
33188ION     NA48319   4.398  17.252   5.319 -0.0230 -0.0660 -0.1539
33189ION     NA48320  12.811  13.195   3.364 -0.1577  0.0853 -0.2301
33190ION     NA48321  15.506   4.075  10.256 -0.3549 -0.0611 -0.0502
33191ION     NA48322   4.496   7.710   9.902 -0.2586 -0.1502  0.1520
33192ION     NA48323  14.756   2.470   2.829 -0.0903 -0.0757 -0.2030
33193ION     NA48324   7.400   4.537  10.224  0.1356  0.1063 -0.1034
33194ION     NA48325   6.729   0.111  10.321 -0.0558  0.0785 -0.3868
33195ION     NA48326   5.541   3.390  11.325 -0.4867  0.1907  0.1122
33196ION     NA48327  16.732   7.485   9.846 -0.0146 -0.2664  0.0992
33197ION     NA48328  14.651  18.227   5.839 -0.1871 -0.4796  0.0934
33198ION     NA48329  12.595  15.915  10.072  0.2111 -0.0695 -0.0244
33199ION     NA48330  17.646   8.293   0.406 -0.1158 -0.1755  0.2057
33200ION     NA48331   4.017   7.653   2.142 -0.1236 -0.0436  0.1626
33201ION     NA48332   9.523   9.219   2.738 -0.0145  0.0785 -0.0077
33202ION     NA48333   4.555  11.769   4.705 -0.0590  0.0278 -0.1373
33203ION     NA48334  11.567  15.425  14.217  0.0505 -0.3379 -0.1042
33204ION     NA48335  11.074  15.030   9.823 -0.1139  0.1667  0.2381
33205ION     NA48336  15.054   6.355   9.923  0.3018  0.0676  0.0358
33206ION     NA48337  13.094   4.149  10.040 -0.0157  0.0237  0.0551
33207ION     NA48338   8.725  15.887   2.963 -0.0613  0.1875 -0.0815
33208ION     NA48339  13.388   2.199   9.984  0.3421 -0.0027 -0.1552
33209ION     NA48340   9.151  10.184  10.041  0.3154 -0.1519 -0.1721
33210ION     NA48341   5.388  18.213  10.127 -0.0123  0.1938 -0.1651
33211ION     NA48342  10.801   3.618  10.256  0.0567  0.2244 -0.0359
33212ION     NA48343  12.836  13.478  10.341  0.0336 -0.0603 -0.1352
33213ION     NA48344   5.545   3.580  10.307 -0.0515  0.0292  0.2492
33214ION     NA48345  10.225  15.261   9.904 -0.0570  0.3168 -0.2677
33215ION     NA48346   6.752  13.023  10.059  0.2039 -0.2027 -0.0552
33216ION     NA48347  14.589  17.859  10.335 -0.1755 -0.1476 -0.0082
33217ION     NA48348   8.246  15.971   5.142 -0.1397 -0.1235 -0.1091
33218ION     NA48349   5.896  11.173  10.102 -0.1665  0.1168  0.0203
33219ION     NA48350  10.584  16.753  10.437 -0.0064  0.0528  0.0171
33220ION     NA48351  16.451  13.095   2.131 -0.0255 -0.0011  0.0745
33221ION     NA48352   1.361  15.435  14.495  0.0601 -0.1757  0.2083
33222ION     NA48353  10.076   5.270  10.203 -0.0184 -0.0862 -0.1527
33223ION     NA48354  16.112  16.465  10.170 -0.1336  0.2850  0.1031
33224ION     NA48355   7.803  12.406   9.624  0.4106  0.1563  0.1858
33225ION     NA48356   8.027  12.434   5.278  0.3527 -0.3279  0.1532
33226ION     NA48357  16.898   9.919  10.343 -0.0807 -0.1550 -0.3965
33227ION     NA48358  15.350  10.439   6.256 -0.0955 -0.2900 -0.0298
33228ION     NA48359  10.284  12.371   5.876 -0.2138 -0.0577  0.1622
33229ION     NA48360   4.191   9.579  10.139  0.2645 -0.0979 -0.0733
33230ION     NA48361   4.219  10.633   0.083 -0.1795 -0.1899  0.2127
33231ION     NA48362  10.505   7.593  10.114 -0.0930  0.0824 -0.0777
33232ION     NA48363  12.391   7.610  10.134  0.1026 -0.2382 -0.3597
33233ION     NA48364   5.680  10.236  10.154 -0.1745  0.1205 -0.0298
33234ION     NA48365   9.714   5.300   5.846 -0.2627  0.0120  0.1556
33235ION     NA48366  14.440   3.540   0.648 -0.5369  0.1990  0.1544
33236ION     NA48367  11.912   0.501   5.535  0.1435  0.3061  0.0531
33237ION     NA48368  10.765  17.768  10.522 -0.0866 -0.1122 -0.3631
33238ION     NA48369  12.537  14.302   6.064 -0.2180  0.1214 -0.0696
33239ION     NA48370  14.450  11.266  11.871  0.1599 -0.0827 -0.1619
33240ION     NA48371   3.787   9.702  12.875 -0.2574 -0.0952 -0.1725
33241ION     NA48372  13.205   3.715   5.532 -0.1523 -0.2537  0.0194
33242ION     NA48373   9.874  13.027   9.515 -0.0775  0.0516 -0.1635
33243ION     NA48374  16.451   1.591  13.576  0.2288  0.2851  0.1556
33244ION     NA48375  12.191   9.425   6.041  0.0578 -0.2608  0.1217
33245ION     NA48376   0.364  14.979  10.440 -0.1573 -0.0472 -0.0455
33246ION     NA48377   6.650   9.991   9.998 -0.3697  0.1071 -0.1017
33247ION     NA48378  15.726  14.938   9.789 -0.4300 -0.1762 -0.2299
33248ION     NA48379  15.338   5.054   5.873  0.0027  0.0164 -0.2726
33249ION     NA48380   6.851  17.016  10.140  0.4714  0.0636  0.2601
33250ION     NA48381   3.966   6.486   2.564  0.0452  0.2556 -0.0688
33251ION     NA48382   8.102  14.287   5.696 -0.0772 -0.0369  0.0666
33252ION     NA48383   9.647  17.006  12.903  0.2490 -0.1052 -0.2481
33253ION     NA48384   5.920  14.900   4.260  0.0913  0.1234 -0.1399
33254ION     NA48385  11.376   9.861   5.784 -0.1890  0.2722 -0.1562
33255ION     NA48386   0.377  17.098  10.499  0.2320  0.1803 -0.2516
33256ION     NA48387   2.195  15.484  16.051  0.1173 -0.1069  0.1458
33257ION     NA48388   3.592  13.223   4.853 -0.1752  0.4910  0.0093
33258ION     NA48389   9.104   1.859   5.997 -0.3805  0.1784  0.0527
33259ION     NA48390   4.185  16.091   2.543  0.0896 -0.0661 -0.0792
33260ION     NA48391  17.019   7.898  16.023  0.0342 -0.0638 -0.0822
33261ION     NA48392   7.909   3.561  10.872  0.2106  0.1745  0.3427
33262ION     NA48393   6.953  10.485   1.242 -0.0763 -0.0224  0.0533
33263ION     NA48394  13.760   1.620  10.441  0.3119  0.1923 -0.3355
33264ION     NA48395   1.356  15.642   2.756 -0.1570  0.3370  0.1562
33265ION     NA48396  12.230   0.767   0.654 -0.1273 -0.1221  0.3822
33266ION     NA48397  11.612   3.661   3.945 -0.0395  0.0124  0.0972
33267ION     NA48398   2.833   9.002   9.741  0.0932  0.1572  0.2981
33268ION     NA48399  10.650  12.774   9.859  0.2706 -0.0543 -0.2601
33269ION     NA48400   9.485  16.909  10.179  0.0313  0.1434 -0.1323
33270ION     NA48401   9.397  11.606   4.682 -0.1790 -0.2534  0.1381
33271ION     NA48402   9.365  13.851   9.462  0.1672  0.0775  0.2114
33272ION     NA48403  14.102   6.412  10.084 -0.2867 -0.3213  0.2195
33273ION     NA48404   5.848   1.979   3.900  0.0447  0.3132  0.1192
33274ION     NA48405  17.355  12.844  10.073  0.1463 -0.2128 -0.0625
33275ION     NA48406   6.280  11.938   9.972 -0.0428  0.0721  0.4292
33276ION     NA48407   3.336   8.947   0.871  0.1058 -0.2138  0.0374
33277ION     NA48408   0.247   3.702  10.515  0.0234  0.0953  0.1070
33278ION     NA48409  10.124  15.826  13.187 -0.0930  0.2945 -0.0970
33279ION     NA48410  17.208  17.650   6.180  0.0351  0.2949  0.6334
33280ION     NA48411   2.717   4.384  10.405  0.1074  0.1865  0.0791
33281ION     NA48412   1.236   0.882   0.195 -0.2831  0.0672 -0.0291
33282ION     NA48413   8.474   7.060  10.090 -0.0521 -0.0734  0.0876
33283ION     NA48414  15.366  12.571  11.808  0.3079  0.1549  0.1579
33284ION     NA48415   1.826   4.265   5.921 -0.0010  0.0109 -0.6464
33285ION     NA48416   7.484   1.990  12.162 -0.0818 -0.2669  0.3746
33286ION     NA48417   7.283   6.572  12.453  0.3248 -0.0796 -0.3597
33287ION     NA48418   2.646  15.887   5.500 -0.3977  0.0356 -0.2262
33288ION     NA48419   7.392   9.483   9.850 -0.0926  0.0346 -0.0144
33289ION     NA48420  14.276   5.257   4.506  0.0967  0.0909 -0.4562
33290ION     NA48421  10.442   4.507   5.868  0.1253 -0.2227 -0.1081
33291ION     NA48422  10.933  11.043  10.158  0.0750  0.1787  0.3542
33292ION     NA48423  11.954   4.872  10.186 -0.1974 -0.0527  0.2172
33293ION     NA48424  10.215  14.411  12.908 -0.0491 -0.1649  0.1880
33294ION     NA48425   8.880   0.539  10.559 -0.1725 -0.3998  0.1385
33295ION     NA48426  13.144  18.342   5.661 -0.0682  0.2318  0.0359
33296ION     NA48427  11.842  16.484  10.227  0.1092  0.3558 -0.0333
33297ION     NA48428  11.352  15.888   0.989 -0.0858  0.2557  0.2476
33298ION     NA48429  10.745   3.640  15.693  0.0015  0.3862  0.0788
33299ION     NA48430  17.899   7.428   9.934  0.2203  0.0112  0.0016
33300ION     NA48431   6.745   0.939  10.299  0.2165 -0.1087 -0.0113
33301ION     NA48432  14.508  17.407   0.488 -0.1447  0.0813 -0.0253
33302ION     NA48433   2.428  18.052  10.054 -0.0130 -0.0384 -0.2833
33303ION     NA48434   5.441   4.514  11.647  0.2124  0.1685 -0.0506
33304ION     NA48435   6.957  14.805  10.945  0.1326 -0.0395 -0.2637
33305ION     NA48436   4.964  11.770  10.227  0.0122 -0.0124 -0.1213
33306ION     NA48437  16.737  14.574  10.039  0.0208 -0.2288 -0.2585
33307ION     NA48438   3.116   3.650  10.889 -0.2204  0.2114  0.1132
33308ION     NA48439  12.318   3.546   5.461  0.3048 -0.1794  0.3704
33309ION     NA48440   3.503   9.505   9.993  0.2089 -0.1578 -0.1403
33310ION     NA48441  17.302  12.238   2.765  0.2404  0.0053 -0.4762
33311ION     NA48442   0.835   0.457   6.004  0.4775 -0.3007  0.1334
33312ION     NA48443   2.461  13.863  14.419 -0.1311  0.1476 -0.0307
33313ION     NA48444   7.956   7.048  10.114 -0.1651  0.1407 -0.0110
33314ION     NA48445   7.065  11.502  15.250  0.2618 -0.2065 -0.1793
33315ION     NA48446  11.448  15.030  10.681  0.1354 -0.0265  0.0881
33316ION     NA48447  17.514   9.037  10.363  0.1313  0.0919 -0.0474
33317ION     NA48448   1.253   7.422   5.525 -0.1906 -0.0272 -0.0445
33318ION     NA48449   6.589  16.082  15.214  0.0039 -0.2229  0.1314
33319ION     NA48450  11.361   3.653   5.677 -0.0872 -0.0242  0.1443
33320ION     NA48451  16.855  10.946  10.297 -0.0212 -0.1085 -0.2262
33321ION     NA48452   0.503  15.972  13.879 -0.3189  0.0688 -0.3423
33322ION     NA48453  13.139   0.701   1.512 -0.0631 -0.1260 -0.1393
33323ION     NA48454  14.885   4.293   5.910 -0.0257  0.1591  0.0493
33324ION     NA48455   8.371  15.719  11.436 -0.1632  0.0346  0.1382
33325ION     NA48456   9.381  15.295  10.052 -0.0488  0.1025  0.0098
33326ION     NA48457   8.097   5.712  11.298  0.3698 -0.0651 -0.0893
33327ION     NA48458   3.362  18.132   6.121  0.0083  0.1922  0.1728
33328ION     NA48459   3.463  16.718   6.132  0.2249 -0.0748  0.2157
33329ION     NA48460   3.964   6.877   5.121 -0.2791  0.2916 -0.0210
33330ION     NA48461   6.123  10.505  11.907  0.1818  0.1199 -0.1360
33331ION     NA48462   9.769   6.380  15.243  0.0656  0.1189 -0.1842
33332ION     NA48463  15.282   4.235  12.777 -0.0817 -0.2863 -0.2533
33333ION     NA48464  12.702  10.498  10.343  0.0439  0.0703 -0.0673
33334ION     NA48465   3.928   3.084   1.710 -0.1944  0.0441  0.0856
33335ION     NA48466  15.998  16.354   5.866  0.0792 -0.3712  0.0036
33336ION     NA48467   1.891   6.910   5.662 -0.1749 -0.0572  0.1101
33337ION     NA48468  13.447  12.586  14.255  0.2901 -0.0412 -0.0151
33338ION     NA48469  15.198  17.729  12.367  0.0842  0.0955  0.2328
33339ION     NA48470  11.555  16.955   2.109  0.0817 -0.0743  0.4085
33340ION     NA48471   2.025   8.319   5.279  0.1205  0.2444 -0.2804
33341ION     NA48472   5.017   9.340  10.084 -0.3391 -0.1470 -0.2730
33342ION     NA48473  16.348  10.665  10.422  0.1590  0.0164 -0.1698
33343ION     NA48474   8.802  12.489   9.793  0.0477 -0.1007  0.0712
33344ION     NA48475   7.521  15.380  10.025 -0.0576  0.2060 -0.0348
33345ION     NA48476  17.847   5.400  15.908  0.2486 -0.2186  0.3933
33346ION     NA48477   8.585   6.569   4.280 -0.0345  0.0848 -0.4546
33347ION     NA48478  16.337   6.689  10.174 -0.3523  0.1208  0.1192
33348ION     NA48479   7.682   7.846  10.121 -0.1843  0.0149  0.1140
33349ION     NA48480   8.655   6.831   5.819 -0.2472  0.0477 -0.1529
33350ION     NA48481  16.654   6.613   5.830  0.0769  0.1374  0.2084
33351ION     NA48482   8.500   0.912   6.051 -0.0718  0.0622 -0.0626
33352ION     NA48483  16.359  13.189  10.057 -0.0522 -0.1147  0.0525
33353ION     NA48484  17.896  13.578  10.037 -0.0284  0.3024 -0.0272
33354ION     NA48485   7.514  16.674  12.398 -0.0737 -0.0463 -0.0003
33355ION     NA48486  13.098  12.394   4.496 -0.0833  0.0677  0.0312
33356ION     NA48487  14.332  13.188  14.344 -0.1982 -0.1569 -0.0456
33357ION     NA48488   4.152   4.750  12.557 -0.0873 -0.0110 -0.1829
33358ION     NA48489  13.366  10.047  10.939  0.1298  0.0372  0.3068
33359ION     NA48490   7.311  12.257   9.820  0.0743 -0.0604 -0.1165
33360ION     NA48491   1.172  10.332   9.848  0.1694 -0.1013  0.2462
33361ION     NA48492   2.894  11.087   4.946  0.0332  0.0424 -0.1540
33362ION     NA48493   2.533  11.578   1.491  0.0737  0.3616 -0.0033
33363ION     NA48494  10.594   0.933  10.487  0.1338 -0.1940 -0.1322
33364ION     NA48495   1.165  11.189  10.271 -0.0159 -0.0878  0.0568
33365ION     NA48496   7.738  15.873   2.060  0.1894  0.2729 -0.0984
33366ION     NA48497   1.079  14.540   2.183 -0.3600  0.1474 -0.0660
33367ION     NA48498   6.205  17.708  10.131 -0.1344 -0.0593  0.0720
33368ION     NA48499  10.531   1.815  10.265  0.0866  0.0535 -0.3218
33369ION     NA48500   9.844  14.490   9.694  0.1342 -0.0005 -0.0471
33370ION     NA48501   6.541  16.115   9.885 -0.0960  0.1314  0.2079
33371ION     NA48502   2.181  15.338  10.134  0.0142 -0.2335  0.1401
33372ION     NA48503  14.470  15.624  11.883  0.0356 -0.0216 -0.1867
33373ION     NA48504   3.138   8.683  11.095 -0.3055 -0.1052 -0.0107
33374ION     NA48505   6.316  14.306   4.442  0.0036 -0.0197  0.1371
33375ION     NA48506  14.656  10.709   4.715  0.1412 -0.2611 -0.2023
33376ION     NA48507  12.620   2.395  10.313 -0.3223  0.1086 -0.1130
33377ION     NA48508  14.384   0.750   6.141  0.2303  0.0679  0.3570
33378ION     NA48509  18.323   9.090  11.752 -0.1625 -0.1678 -0.3267
33379ION     NA48510  17.154  12.527  13.244 -0.1083  0.0428 -0.2446
33380ION     NA48511   4.946   0.492  10.593  0.0848  0.0250  0.0641
33381ION     NA48512  10.896  17.473   0.373 -0.1023 -0.1505  0.0436
33382ION     NA48513  10.464   2.743  10.434  0.1773 -0.1423  0.4380
33383ION     NA48514  11.884   8.570  10.313 -0.0637  0.1711  0.0591
33384ION     NA48515  14.379  16.632  10.158 -0.1879 -0.0667 -0.2765
33385ION     NA48516  15.281   9.614   3.148 -0.2112  0.1542 -0.0530
33386ION     NA48517   7.523  10.090   4.871 -0.1407 -0.0561  0.0728
33387ION     NA48518   3.547  17.167   5.869 -0.2636 -0.0781  0.2798
33388ION     NA48519   2.868   3.059   6.251 -0.2545 -0.1172 -0.2559
33389ION     NA48520  18.272  14.933   5.903 -0.3899  0.0656  0.2721
33390ION     NA48521   8.816  17.046  10.242  0.4412  0.3851  0.2445
33391ION     NA48522   2.679   0.747  10.222 -0.0308  0.1402 -0.1247
33392ION     NA48523   2.922   6.275  15.553 -0.0406  0.2262  0.0106
33393ION     NA48524   8.453  14.758   9.724  0.0456  0.0978 -0.1730
33394ION     NA48525   4.402  18.179   6.047  0.2615  0.3773 -0.0721
33395ION     NA48526  16.092   7.276   5.943  0.2894 -0.0516 -0.2533
33396ION     NA48527  12.183   9.681  10.280  0.0819 -0.0172 -0.1283
33397ION     NA48528   4.844  11.670   1.853 -0.0936 -0.0207 -0.1497
33398ION     NA48529  12.303   1.586  15.186  0.2137 -0.1778  0.2499
33399ION     NA48530   7.054  18.082   3.597 -0.0811  0.1662  0.2349
33400ION     NA48531   6.441  18.203   6.168  0.0431 -0.1026 -0.2528
33401ION     NA48532   1.677  11.938   5.816  0.2859  0.0019  0.0089
33402ION     NA48533   2.349   9.775  14.253  0.1268 -0.0522  0.0726
33403ION     NA48534   7.615   0.770  10.286 -0.2638 -0.2465 -0.3010
33404ION     NA48535   8.280   5.946   4.509  0.2326 -0.1769 -0.1617
33405ION     NA48536  18.343   3.778   5.717  0.0117  0.0500 -0.1791
33406ION     NA48537   6.371   4.305   3.797 -0.1216 -0.0977 -0.0764
33407ION     NA48538  10.711   5.740   3.210 -0.1267 -0.0071  0.0834
33408ION     NA48539   3.830   3.513  10.334 -0.2344 -0.4581  0.1021
33409ION     NA48540  11.174   8.237   5.919  0.0990 -0.0278 -0.0231
33410ION     NA48541   9.715  14.921   5.207  0.0496  0.1449 -0.3493
33411ION     NA48542  10.178   6.133  10.249  0.0132  0.0186 -0.1011
33412ION     NA48543  17.665  11.964  10.099 -0.0270 -0.1186 -0.3250
33413ION     NA48544   1.644  12.555   0.128 -0.2219 -0.4787 -0.4280
33414ION     NA48545   6.212  13.764  12.769  0.0575  0.1075 -0.2277
33415ION     NA48546   7.505  10.533   9.870  0.0060 -0.2939  0.0515
33416ION     NA48547   6.265  15.227  10.182 -0.1517 -0.1625 -0.3669
33417ION     NA48548   5.069  11.289   5.704  0.2423 -0.0066 -0.2340
33418ION     NA48549  17.385   3.754  14.707  0.2678 -0.2484 -0.2450
33419ION     NA48550  10.725   2.464  14.430  0.1310 -0.0264 -0.0300
33420ION     NA48551   5.412  17.184  10.081  0.5525  0.0706  0.2665
33421ION     NA48552  12.448   6.380  12.992  0.2393  0.1590  0.1192
33422ION     NA48553   4.729   5.787  12.102  0.0612 -0.2002  0.0690
33423ION     NA48554  10.042  12.165  10.052  0.0481 -0.0133 -0.1068
33424ION     NA48555   2.637   9.747   9.853  0.1968  0.1710  0.1641
33425ION     NA48556   0.165   2.078  10.588 -0.3096  0.3538 -0.1989
33426ION     NA48557   9.157   8.625  10.274 -0.0020  0.1800 -0.3799
33427ION     NA48558   4.478  13.120  10.363  0.1602  0.1628  0.1891
33428ION     NA48559   5.309  13.643   4.450  0.1711  0.0462  0.1107
33429ION     NA48560  16.571   8.582  10.196  0.2522  0.1957 -0.1565
33430ION     NA48561  12.523  16.919   3.952  0.2726 -0.3063 -0.0260
33431ION     NA48562   3.928   1.355  14.733  0.2868  0.1189 -0.1617
33432ION     NA48563  16.811  15.659   5.755  0.0937  0.2016  0.0273
33433ION     NA48564   5.829   0.636   0.033 -0.0411 -0.1774  0.1408
33434ION     NA48565  12.383  16.606   3.124  0.1782  0.1201 -0.1038
33435ION     NA48566  11.058  17.035  10.135 -0.0697 -0.1144  0.1800
33436ION     NA48567   3.685  17.433  10.330 -0.1716  0.0264  0.2447
33437ION     NA48568   4.652   0.775  15.619  0.2132  0.1103  0.3078
33438ION     NA48569   9.028   3.183  10.337 -0.1561  0.0132 -0.0257
33439ION     NA48570   9.157  11.461  10.042 -0.3466 -0.3292 -0.1905
33440ION     NA48571   6.549  17.380   5.668  0.0440 -0.1900  0.2056
33441ION     NA48572  11.781  14.078   4.576 -0.2079  0.2043 -0.1751
33442ION     NA48573  14.899   1.819  10.511 -0.1233  0.2143  0.0940
33443ION     NA48574  14.462  11.671   0.145 -0.1792  0.1275  0.5533
33444ION     NA48575  11.935   2.971  10.406  0.0242 -0.1450  0.0022
33445ION     NA48576   7.626   2.645  10.106  0.1256 -0.0267 -0.2973
33446ION     NA48577   2.178   7.045   9.931 -0.0981 -0.4469 -0.2784
33447ION     NA48578   3.569   4.993  10.389  0.1589  0.1493 -0.2389
33448ION     NA48579  17.118  13.623   9.926 -0.0124  0.1986  0.1232
33449ION     NA48580   8.939   2.080  16.127  0.3226  0.0273 -0.0928
33450ION     NA48581  16.957  14.934   1.379  0.1237 -0.1292  0.1808
33451ION     NA48582   7.185   7.556  10.340  0.0539 -0.0806 -0.0079
33452ION     NA48583  15.176   4.165   5.016 -0.1491 -0.0537  0.0291
33453ION     NA48584   1.947   1.390  10.255  0.1149  0.1123  0.0410
33454ION     NA48585   0.960   1.604   6.180 -0.0742 -0.1162 -0.2394
33455ION     NA48586   9.472  11.413  14.152 -0.1009 -0.0593  0.3718
33456ION     NA48587   2.070   9.348  10.358 -0.0191 -0.1998  0.0615
33457ION     NA48588   8.546   7.206  13.440 -0.4157 -0.1516 -0.1404
33458ION     NA48589   4.597   0.407  12.626  0.1748  0.0521  0.0283
33459ION     NA48590  13.793  10.768   2.958 -0.1129 -0.0182 -0.0989
33460ION     NA48591   2.556  17.071  10.080  0.1103  0.0788  0.5237
33461ION     NA48592  12.378  12.199  11.263 -0.0451 -0.0606  0.2206
33462ION     NA48593   9.454  17.617  10.151 -0.0720 -0.1315  0.1758
33463ION     NA48594  10.426   6.615   5.260 -0.0669  0.0165 -0.4265
33464ION     NA48595  11.913  12.166  10.032 -0.0164  0.0727  0.0250
33465ION     NA48596   1.247   2.528  10.449 -0.1750 -0.1794 -0.1450
33466ION     NA48597  16.638   8.804  14.187  0.1595 -0.0238 -0.2132
33467ION     NA48598   8.268  14.033  12.686  0.0590  0.3062  0.1403
33468ION     NA48599  10.042  11.182  10.308  0.2468  0.1227  0.3579
33469ION     NA48600  18.275   4.479  13.958 -0.2099  0.0736 -0.1461
33470ION     NA48601  10.255  17.545  10.266 -0.1274 -0.1588 -0.0631
33471ION     NA48602   2.253  12.725   9.916 -0.2871 -0.2782  0.0391
33472ION     NA48603  11.623   4.039  10.215 -0.2323  0.0485  0.2622
33473ION     NA48604   0.460   8.966  10.025  0.1006 -0.0941 -0.3261
33474ION     NA48605  12.577  13.377  11.753  0.0358  0.0011 -0.0838
33475ION     NA48606   4.286  12.228  10.152  0.0129 -0.1170 -0.1209
33476ION     NA48607  18.200  12.694  10.383  0.3574 -0.2211  0.0244
33477ION     NA48608   8.085   7.918  11.151  0.3989 -0.1511 -0.3298
33478ION     NA48609  13.187   6.126   9.978 -0.2316 -0.0275 -0.1758
33479ION     NA48610  11.210  13.431  10.069 -0.0427 -0.0692 -0.1377
33480ION     NA48611  14.234   5.500  10.093  0.0695  0.3882  0.0274
33481ION     NA48612   0.304  11.560   9.999  0.1300  0.0452  0.0136
33482ION     NA48613  15.590   2.109  14.926 -0.2422 -0.4724  0.1273
33483ION     NA48614   8.895   4.852  10.702 -0.2177 -0.0384 -0.2337
33484ION     NA48615   4.424   1.819  10.891 -0.1868 -0.2467  0.0138
33485ION     NA48616   3.896  10.381   9.915  0.0342  0.0488 -0.2298
33486ION     NA48617  13.807   9.178  10.429  0.2906  0.0175  0.0123
33487ION     NA48618   5.198   5.006   1.268 -0.0108 -0.0012  0.0401
33488ION     NA48619   6.593   3.554   3.189  0.2503  0.0953  0.1671
33489ION     NA48620  14.836   2.910   3.818  0.0239 -0.0281  0.2410
33490ION     NA48621   9.098  13.681   9.818  0.3436 -0.1212 -0.2221
33491ION     NA48622   1.835  17.754   2.767  0.2770 -0.1289 -0.3055
33492ION     NA48623  10.526   9.153  10.421 -0.2814 -0.2811  0.2255
33493ION     NA48624   9.924   9.845   3.473  0.1903 -0.2455  0.1967
33494ION     NA48625   6.360   6.532  10.118  0.0804  0.4503  0.0141
33495ION     NA48626   5.147  16.611  11.681  0.2779  0.1069 -0.0590
33496ION     NA48627   8.766  17.766   5.937  0.2411  0.1103 -0.1074
33497ION     NA48628   3.403  18.317  10.331 -0.0568 -0.0080  0.0143
33498ION     NA48629  10.257   4.536  10.263 -0.0668  0.0816 -0.0693
33499ION     NA48630   2.227   2.468  10.189 -0.1103  0.0178 -0.0098
33500ION     NA48631  13.687  13.028  10.338 -0.3599 -0.0201  0.0525
33501ION     NA48632   7.914   9.144   1.854 -0.1318 -0.1582 -0.0639
33502ION     NA48633  15.606  15.642  10.270  0.1114 -0.2362 -0.0289
33503ION     NA48634  16.780   2.683  10.175  0.5555 -0.1746  0.0117
33504ION     NA48635  13.506   5.680  10.256 -0.0539  0.3574 -0.2132
33505ION     NA48636  16.802  12.172  10.490 -0.1128 -0.2704 -0.1317
33506ION     NA48637  18.176   8.627   1.336 -0.1080  0.1438  0.1809
33507ION     NA48638  13.695  17.820  10.262  0.2334 -0.0169 -0.0729
33508ION     NA48639  14.952   2.335  10.369 -0.1316 -0.1214  0.1360
33509ION     NA48640  15.061   6.250   5.598 -0.0307  0.1953 -0.2097
33510ION     NA48641   7.347  14.036   5.696 -0.4317 -0.0803 -0.1605
33511ION     NA48642   5.683  17.250   1.555  0.0462  0.0716  0.0361
33512ION     NA48643  18.072   2.204   2.474 -0.0279 -0.2086  0.0229
33513ION     NA48644  10.638   4.761   0.632  0.1829 -0.2472  0.1400
33514ION     NA48645   5.394   8.047   9.717 -0.3173  0.3405 -0.0783
33515ION     NA48646  10.779   6.808  10.130 -0.0890 -0.0253  0.2840
33516ION     NA48647   6.119  12.983  11.272 -0.0869  0.0341  0.0812
33517ION     NA48648  14.558  10.591  14.717 -0.1899 -0.0286 -0.0367
33518ION     NA48649  17.132  17.514  11.208  0.2468 -0.1471 -0.1927
33519ION     NA48650  10.400   6.659   5.881 -0.1521 -0.1377  0.0884
33520ION     NA48651   6.381  14.154   9.850 -0.1586  0.1075  0.1117
33521ION     NA48652   8.492   2.879   0.392  0.0496 -0.1661  0.0063
33522ION     NA48653  16.006   3.424  15.191 -0.2356  0.0538 -0.2267
33523ION     NA48654   2.509  12.075   5.642  0.0311 -0.1021 -0.2298
33524ION     NA48655  14.422  15.232   5.719 -0.1262 -0.1680  0.0468
33525ION     NA48656  10.904  10.054  10.326 -0.0409  0.0303 -0.1318
33526ION     NA48657   7.687  11.437   9.631 -0.0335  0.1379 -0.2655
33527ION     NA48658   1.362   4.794  14.900 -0.2491  0.0140  0.1488
33528ION     NA48659   4.553  17.938  10.150  0.0561 -0.1474  0.0983
33529ION     NA48660  13.016   1.251   5.939  0.2319  0.0599  0.1147
33530ION     NA48661  11.998   1.929  10.190 -0.0741 -0.0006 -0.1178
33531ION     NA48662  14.038   0.956  12.828  0.2349 -0.0102  0.2923
33532ION     NA48663  14.122   3.509  10.277 -0.0311  0.0917 -0.0758
33533ION     NA48664  10.960   8.402   9.941 -0.3072  0.0199  0.2076
33534ION     NA48665   7.635   5.740  10.259  0.3569  0.1127 -0.0521
33535ION     NA48666  13.929  10.064   6.311  0.3134 -0.2655 -0.0639
33536ION     NA48667   2.967  12.171  12.104 -0.0422 -0.0281  0.1792
33537ION     NA48668   8.787   1.684  10.308 -0.0643  0.3043 -0.2823
33538ION     NA48669   7.081   6.346   0.404  0.0631 -0.4055 -0.0474
33539ION     NA48670  10.112   0.096  10.247  0.3176 -0.0936  0.1545
33540ION     NA48671  12.283   6.145  10.640 -0.3406 -0.2727  0.0585
33541ION     NA48672   7.494  16.430  10.028 -0.0455  0.1455 -0.1112
33542ION     NA48673   5.396  14.122  10.155 -0.3867 -0.0525  0.2072
33543ION     NA48674  16.839   6.339  11.140  0.2315  0.0654  0.2100
33544ION     NA48675  11.949  15.772  12.599 -0.0693  0.1629  0.0977
33545ION     NA48676   7.101  16.238  16.080  0.0615  0.0263  0.0443
33546ION     NA48677  11.237   2.426  10.186 -0.0888 -0.0444 -0.0794
33547ION     NA48678  14.991  14.769   1.077  0.1315  0.0919 -0.1150
33548ION     NA48679  17.867   6.004   3.893  0.1038  0.1974  0.2814
33549ION     NA48680  11.737   9.422   2.781 -0.1367  0.0806 -0.3091
33550ION     NA48681   9.883  16.108  10.207  0.1635 -0.0792 -0.2914
33551ION     NA48682   5.221   5.437   5.778  0.3908 -0.3257  0.0978
33552ION     NA48683  14.121   5.929   2.263 -0.0748  0.0473  0.0975
33553ION     NA48684   5.999  16.260   2.958  0.3233  0.0523 -0.1605
33554ION     NA48685  14.333   1.184  10.870 -0.0051  0.0331 -0.3625
33555ION     NA48686  14.006   5.603  15.058 -0.1611 -0.0997 -0.1273
33556ION     NA48687   9.560   2.500  10.232 -0.4241 -0.1681 -0.2943
33557ION     NA48688  10.188   8.527  10.071 -0.1359  0.1498 -0.1899
33558ION     NA48689   5.916  10.708   1.063  0.0648 -0.0057  0.1606
33559ION     NA48690  12.634  11.498  10.165 -0.0319 -0.0911  0.2345
33560ION     NA48691   6.843  14.726  15.122 -0.0563  0.0177  0.1436
33561ION     NA48692  13.329   0.418  10.236 -0.0878 -0.0387  0.1948
33562ION     NA48693  18.065   8.903  10.495  0.3496 -0.0493  0.0465
33563ION     NA48694   5.976   2.757  10.299 -0.1359 -0.0221 -0.1829
33564ION     NA48695  15.319  11.891   2.204  0.3487  0.2930  0.2488
33565ION     NA48696   1.057   7.305  10.011  0.0729  0.0712  0.0289
33566ION     NA48697   8.513   2.804  10.188  0.3549 -0.3135 -0.2047
33567ION     NA48698  15.054  18.352   4.094  0.2075  0.0666 -0.1567
33568ION     NA48699  14.565   5.204  15.658 -0.0376  0.0105 -0.2830
33569ION     NA48700   7.126   0.422   6.052 -0.1762 -0.0742 -0.2063
33570ION     NA48701  11.188   6.144  10.186 -0.1040  0.1304  0.2066
33571ION     NA48702  14.735  10.741   3.059  0.2138  0.0856  0.4291
33572ION     NA48703   0.178   3.162  10.519 -0.2900  0.1346 -0.0949
33573ION     NA48704   2.846  10.663   9.904 -0.0383  0.1112 -0.0417
33574ION     NA48705   3.330  12.694   0.989 -0.2861 -0.0638 -0.0606
33575ION     NA48706  12.062   6.215  13.698 -0.0419  0.1120 -0.0302
33576ION     NA48707  12.068  11.966   1.727  0.2278  0.2992 -0.1832
33577ION     NA48708  14.490  14.351   2.428 -0.2366 -0.1889 -0.2173
33578ION     NA48709   2.102  10.776  11.225 -0.0465  0.3099 -0.1601
33579ION     NA48710   5.651  17.963   0.908 -0.1715  0.4322 -0.0039
33580ION     NA48711  14.341  10.419  10.476 -0.0916 -0.1238  0.1371
33581ION     NA48712   7.006   6.235  10.353  0.1550  0.0664 -0.1267
33582ION     NA48713   2.215  10.794  16.131  0.0027  0.1006  0.0469
33583ION     NA48714  10.470  13.880   5.344  0.2063 -0.1365  0.0631
33584ION     NA48715   0.299   4.770   2.085 -0.1647 -0.0035  0.0306
33585ION     NA48716   5.701  13.897  15.445  0.2505  0.1967 -0.3291
33586ION     NA48717  10.638   2.855   0.711  0.0687 -0.0763  0.1971
33587ION     NA48718  10.028  17.596   2.970  0.2456 -0.0342 -0.0354
33588ION     NA48719   7.141  15.526   3.169 -0.0165  0.0656  0.0434
33589ION     NA48720  14.825  18.152   0.495 -0.0493 -0.1025  0.2473
33590ION     NA48721  10.453  12.709   2.147  0.0691  0.0053  0.0516
33591ION     NA48722  11.594  17.773   1.859  0.0756  0.0702 -0.2146
33592ION     NA48723   3.586   2.355  10.490  0.1788  0.0920  0.2213
33593ION     NA48724   2.967   2.001  10.798  0.1485 -0.1824  0.0221
33594ION     NA48725  15.752   0.763   6.082  0.2689 -0.4852 -0.2503
33595ION     NA48726  11.538  12.724  10.123  0.1929 -0.0231  0.1829
33596ION     NA48727   3.516  15.315   1.270 -0.1594 -0.2294 -0.0968
33597ION     NA48728  12.055   4.147  15.762  0.0599 -0.0324  0.0550
33598ION     NA48729   5.137   4.260   5.904  0.4909 -0.0064 -0.1553
33599ION     NA48730   6.143   1.789   9.864  0.1493 -0.3171  0.0532
33600ION     NA48731   5.418  14.972  10.337 -0.1553 -0.1007 -0.1009
33601ION     NA48732  12.856  14.360  10.349 -0.1809  0.1822  0.1688
33602ION     NA48733   1.154   3.513  10.354  0.1543 -0.1339  0.2006
33603ION     NA48734  14.438  18.195   3.285  0.0739 -0.1548 -0.0218
33604ION     NA48735  16.455  11.283  15.839 -0.0841  0.1641  0.2226
33605ION     NA48736   9.295  16.185  12.633 -0.2511 -0.3389 -0.0027
33606ION     NA48737   8.972   8.837  15.146 -0.3307  0.0443  0.0596
33607ION     NA48738   0.420  12.248  11.571  0.0396  0.1448 -0.1642
33608ION     NA48739  16.176  17.915  10.325  0.1462 -0.3481 -0.2537
33609ION     NA48740   5.730  15.875  10.046  0.1581  0.0329 -0.1329
33610ION     NA48741   9.805   2.014   6.311 -0.3074  0.0008 -0.2400
33611ION     NA48742  18.342   8.272   9.924 -0.4824 -0.1111  0.0631
33612ION     NA48743  13.245  15.409  10.194 -0.2663  0.1202  0.0268
33613ION     NA48744  10.027  14.701   1.793 -0.4393  0.4486 -0.1424
33614ION     NA48745   3.810  15.050  10.322  0.1790  0.0357  0.2908
33615ION     NA48746   2.096   1.322   5.985 -0.0175  0.2101 -0.2473
33616ION     NA48747   1.984  13.511   9.916  0.1303 -0.1519 -0.1728
33617ION     NA48748  10.425  13.779   9.638  0.4081  0.1596 -0.2438
33618ION     NA48749   8.590  15.225  10.548 -0.2446 -0.1193  0.2299
33619ION     NA48750   2.933  16.335  10.174 -0.0288 -0.1461 -0.3332
33620ION     NA48751  13.700   7.220  10.211 -0.0978  0.2420  0.1874
33621ION     NA48752   9.579   1.895   1.290 -0.0241  0.0666  0.2858
33622ION     NA48753   9.481   6.013   4.191 -0.4184  0.0060  0.0590
33623ION     NA48754  12.912   1.680  10.792 -0.1922 -0.2285 -0.5128
33624ION     NA48755   3.742  12.433  10.353  0.1210  0.1968  0.2594
33625ION     NA48756   3.523   8.205   9.711 -0.1620 -0.2408 -0.0981
33626ION     NA48757  15.123   9.300  10.670  0.0722  0.2392  0.0822
33627ION     NA48758   4.558  14.468  10.432  0.0900 -0.1273  0.0282
33628ION     NA48759  12.381  17.376  10.211  0.1936  0.2329 -0.0154
33629ION     NA48760   1.670   3.725  14.554  0.1349 -0.1143  0.2207
33630ION     NA48761  18.027  13.529   2.214 -0.3807 -0.3447 -0.3176
33631ION     NA48762  15.415  16.058  13.324 -0.1039  0.2047  0.2035
33632ION     NA48763   6.869   8.634   9.940 -0.1585  0.1285  0.1416
33633ION     NA48764  12.922  12.246  10.135 -0.0124 -0.0700 -0.2345
33634ION     NA48765  14.164  11.572   9.967 -0.0884  0.0531  0.1739
33635ION     NA48766   8.703   6.366  10.329 -0.0103 -0.1180  0.1320
33636ION     NA48767   0.672  13.363   9.981 -0.0583 -0.1362 -0.1938
33637ION     NA48768   6.876  11.271   9.814  0.0222  0.1358 -0.0333
33638ION     NA48769   4.825  16.426  10.249 -0.1323  0.1641  0.0933
33639ION     NA48770   2.062  12.493   1.346  0.0816 -0.0551  0.3567
33640ION     NA48771  13.547   4.830   9.905 -0.1767  0.1529 -0.2422
33641ION     NA48772  17.040   9.214   1.598 -0.0064  0.0472  0.1472
33642ION     NA48773   7.719  13.287   9.607 -0.0420 -0.2118 -0.1326
33643ION     NA48774   7.807  18.065   5.883  0.0726 -0.3493  0.1471
33644ION     NA48775   7.055   2.213   9.836 -0.1011 -0.2459  0.0359
33645ION     NA48776  15.439   8.929  14.390 -0.1686 -0.1628 -0.1234
33646ION     NA48777   6.826  15.992   3.756 -0.2809 -0.0120 -0.0879
33647ION     NA48778  16.700   5.518   4.319 -0.0092  0.0114 -0.0357
33648ION     NA48779   7.312  17.527   5.376 -0.0468  0.3229 -0.1230
33649ION     NA48780   2.057   5.538  14.898  0.2165  0.2212 -0.2165
33650ION     NA48781   9.185   1.779  11.332  0.0160  0.0525 -0.2355
33651ION     NA48782   7.756  14.132  14.420  0.0649  0.2403 -0.2910
33652ION     NA48783  16.369  12.557  15.711 -0.0315 -0.0206  0.1974
33653ION     NA48784  10.975  14.536  14.766 -0.0114  0.0165  0.3570
33654ION     NA48785  13.038   3.576   0.040  0.1875 -0.0723 -0.2267
33655ION     NA48786   9.298  10.816   5.110 -0.0102 -0.2620  0.0328
33656ION     NA48787  12.644  15.594   0.185 -0.0718 -0.2608  0.1404
33657ION     NA48788  15.008  13.870   4.621  0.3757 -0.0778 -0.2132
33658ION     NA48789  10.664  17.653  15.767  0.1082  0.1601 -0.4324
33659ION     NA48790   6.649  12.189   5.598 -0.1505  0.0072 -0.0165
33660ION     NA48791   1.621   4.955  10.542 -0.1331  0.0051 -0.0573
33661ION     NA48792  16.154   4.489  10.195 -0.2780  0.0754 -0.0727
33662ION     NA48793   0.260  12.396   5.595  0.0860 -0.0620 -0.4006
33663ION     NA48794  11.047   9.078  10.277  0.1897  0.3121  0.1352
33664ION     NA48795  13.791  16.068   5.570  0.4295  0.3456 -0.0126
33665ION     NA48796  10.127   0.938  10.824  0.0846 -0.1018  0.2017
33666ION     NA48797  11.012   4.902  14.896 -0.0576 -0.1187  0.2179
33667ION     NA48798  15.068  14.342  10.160  0.2744  0.0296 -0.3721
33668ION     NA48799   8.647   6.165   5.684  0.0119  0.1819  0.1886
33669ION     NA48800   9.986  11.800   4.028 -0.0959  0.2120 -0.2191
33670ION     NA48801  15.959   0.299  10.923  0.0373 -0.3442 -0.0369
33671ION     NA48802   7.357  12.842  12.911 -0.2615 -0.1252  0.0185
33672ION     NA48803   8.583  16.114  10.141 -0.2753  0.1037  0.0573
33673ION     NA48804  16.619   2.818  11.046  0.2073 -0.0382 -0.1622
33674ION     NA48805   6.741  10.079  11.186  0.0304 -0.0714  0.1778
33675ION     NA48806   7.598  18.349  10.621  0.0037 -0.0929 -0.0109
33676ION     NA48807  16.121   4.638   5.826 -0.1190  0.0208 -0.2020
33677ION     NA48808   8.866  14.316   5.369 -0.0445 -0.1271 -0.0858
33678ION     NA48809  14.472   5.624  12.736  0.1084 -0.0259 -0.3291
33679ION     NA48810  14.965  16.461  10.608  0.1741  0.2254 -0.1457
33680ION     NA48811   2.859  15.263  10.424  0.1032 -0.1741 -0.0621
33681ION     NA48812  10.616   4.858  14.028 -0.0991 -0.0594  0.0102
33682ION     NA48813  13.578  16.503  13.470 -0.1185 -0.2130 -0.0470
33683ION     NA48814  14.515   7.918   3.372 -0.1545 -0.2651  0.2236
33684ION     NA48815  12.590   1.471  12.999  0.1228 -0.6485 -0.0711
33685ION     NA48816   4.129  17.290  10.055  0.1076  0.2689 -0.1387
33686ION     NA48817   7.314   6.170   4.845 -0.0357  0.0369 -0.1223
33687ION     NA48818  16.286  18.242  16.018 -0.1299 -0.2902 -0.0005
33688ION     NA48819   2.379  18.272  10.598 -0.1803 -0.1739  0.1262
33689ION     NA48820  17.637   8.385  13.540 -0.0722  0.0036  0.0908
33690ION     NA48821   3.292  14.292  10.316  0.1360 -0.1125 -0.0383
33691ION     NA48822   2.812   9.768   3.013  0.1493 -0.4523 -0.0778
33692ION     NA48823  11.787  15.545  10.073  0.2958  0.1717  0.3164
33693ION     NA48824  12.728   4.958  10.176  0.2084  0.0172  0.0518
33694ION     NA48825   9.442   4.765  10.517  0.1068  0.0412 -0.0294
33695ION     NA48826   6.710   7.490  14.727  0.1052 -0.0050 -0.0996
33696ION     NA48827   5.084   6.898   9.757  0.0914  0.0311  0.0648
33697ION     NA48828  12.742  14.613  12.448  0.0081 -0.0875 -0.1668
33698ION     NA48829   7.609  14.311   9.618  0.1061 -0.1290 -0.1745
33699ION     NA48830  14.186  15.519  10.645  0.0278 -0.2276  0.3363
33700ION     NA48831  15.216   5.340  10.009  0.1067  0.1391  0.0818
33701ION     NA48832  15.004   0.147  10.949 -0.0591 -0.1044 -0.1331
33702ION     NA48833   4.342  10.098   9.983  0.0774  0.0551 -0.0546
33703ION     NA48834  10.463  10.364  10.291  0.2246  0.0052  0.2827
33704ION     NA48835   5.513   7.157   9.990  0.2292  0.1508 -0.1928
33705ION     NA48836  12.472  10.582   2.655  0.2060 -0.2652  0.1451
33706ION     NA48837   9.228  14.902   0.309 -0.1364 -0.0290 -0.0535
33707ION     NA48838  18.286  10.224  10.088  0.3268 -0.1612 -0.0848
33708ION     NA48839   2.367  11.914  10.056 -0.1328  0.0410  0.1409
33709ION     NA48840  14.192  17.529   6.181  0.3371  0.2320  0.0217
33710ION     NA48841   4.242   3.170   5.580 -0.0241  0.1503  0.1282
33711ION     NA48842  15.883  11.335  10.343 -0.1114 -0.1981 -0.1770
33712ION     NA48843  10.490   2.580   6.065  0.2480  0.2134 -0.0056
33713ION     NA48844   4.954   9.145   3.293  0.0429  0.0962  0.0582
33714ION     NA48845   5.698   1.448   1.934  0.3623  0.0004 -0.4695
33715ION     NA48846   0.548  16.837   6.279 -0.2195  0.1783  0.1281
33716ION     NA48847   1.944   3.925  10.706  0.0328 -0.0136  0.0951
33717ION     NA48848   7.720  17.169  13.048  0.0649 -0.2003 -0.0771
33718ION     NA48849   0.541  15.379   6.048  0.0557  0.0774 -0.1898
33719ION     NA48850   7.262   2.826  11.615 -0.0045  0.1655  0.0273
33720ION     NA48851  14.267  10.327  15.971 -0.0094 -0.1791 -0.1434
33721ION     NA48852   3.759   6.676  10.260  0.3702 -0.1904 -0.1829
33722ION     NA48853   2.729   4.204   3.117  0.3126  0.1063 -0.1893
33723ION     NA48854   9.990  15.781   5.433 -0.0745 -0.0267 -0.0063
33724ION     NA48855  13.196   8.047  10.620 -0.0780  0.3479  0.1556
33725ION     NA48856   1.330  11.768  10.010 -0.1166 -0.1443 -0.2922
33726ION     NA48857   9.202   6.389  10.365 -0.2324  0.3484  0.1689
33727ION     NA48858  16.020   4.403  11.447  0.0756  0.1948 -0.0595
33728ION     NA48859   0.951   6.276   9.876  0.1010 -0.0561  0.2493
33729ION     NA48860   2.646  11.871   3.753 -0.3273 -0.3141 -0.0671
33730ION     NA48861  12.475   9.021   6.166 -0.1204 -0.0336  0.0687
33731ION     NA48862  16.523  16.580   2.472  0.2116  0.0280 -0.3169
33732ION     NA48863   6.692   6.630   5.516  0.0337 -0.3661 -0.0864
33733ION     NA48864   9.759   9.487  10.097 -0.2262  0.1372 -0.2398
33734ION     NA48865  12.206   6.922   4.989  0.0597 -0.0469 -0.0282
33735ION     NA48866   6.261   2.713   1.421  0.2005 -0.0668 -0.1968
33736ION     NA48867  17.511   5.744  10.127 -0.0184  0.0021  0.1005
33737ION     NA48868   6.976   9.448   0.758 -0.0033  0.5094 -0.0633
33738ION     NA48869   3.895  13.167  10.048 -0.3540  0.1823 -0.0458
33739ION     NA48870  16.983   0.545   0.705  0.2047 -0.3312 -0.0464
33740ION     NA48871  14.980  15.536  10.098  0.0192  0.0844 -0.2203
33741ION     NA48872  17.217   1.165  10.478 -0.0580  0.0406 -0.2574
33742ION     NA48873  16.515   4.766  13.319  0.1854  0.0683  0.1030
33743ION     NA48874   2.661   6.757  14.709  0.0465  0.0639  0.1963
33744ION     NA48875   2.825  13.279  10.516  0.0089 -0.0229  0.0662
33745ION     NA48876  14.862   4.971   9.980 -0.0360 -0.0201 -0.1450
33746ION     NA48877  14.390  14.346   5.994 -0.2865 -0.0817 -0.0641
33747ION     NA48878  16.535   3.596  10.257  0.2244 -0.2281  0.1179
33748ION     NA48879  12.831   8.487  10.300  0.2644 -0.2926  0.2228
33749ION     NA48880   8.379  10.379  16.141  0.1685 -0.0684 -0.4336
33750ION     NA48881  15.257   1.627   6.064  0.0178 -0.0598 -0.1551
33751ION     NA48882   3.064  14.413   1.180  0.0718  0.0210 -0.0757
33752ION     NA48883   8.865   7.240  16.109  0.3783  0.1961 -0.0032
33753ION     NA48884   7.999  10.268   9.891  0.2272  0.3329  0.0191
33754ION     NA48885  14.169   9.671   3.840  0.3358 -0.0425 -0.1073
33755ION     NA48886  15.796   1.708  10.457  0.1426  0.2650  0.0572
33756ION     NA48887  12.732  10.580  11.253  0.0510 -0.1801  0.1253
33757ION     NA48888   2.713  11.463   9.917 -0.1239 -0.1641  0.2077
33758ION     NA48889  12.487  13.910   4.301 -0.0074 -0.1221 -0.2205
33759ION     NA48890   1.663   0.903  10.095  0.0085  0.0232  0.1732
33760ION     NA48891   6.694   7.162   5.078  0.2861  0.0051  0.4767
33761ION     NA48892  17.365   7.390   1.168  0.0776  0.0350  0.0690
33762ION     NA48893   1.953  13.281  13.297 -0.0611  0.0003 -0.1488
33763ION     NA48894   5.501  16.963  15.722  0.2171  0.0059 -0.0757
33764ION     NA48895   7.503   5.302   5.584 -0.0281 -0.1107 -0.1521
33765ION     NA48896   4.141  14.756   0.222  0.1233 -0.0596  0.2031
33766ION     NA48897  14.738   1.609   6.025 -0.2935  0.0654 -0.1808
33767ION     NA48898  18.360   6.090   9.869  0.0124  0.2256  0.4133
33768ION     NA48899   1.172   8.500   5.455 -0.2479  0.1061 -0.0658
33769ION     NA48900  16.503   1.663   1.506  0.0847 -0.3559 -0.3040
33770ION     NA48901  17.845  18.211  10.286  0.0224 -0.0415  0.2930
33771ION     NA48902  17.727   9.288   5.206 -0.0144 -0.2872  0.0075
33772ION     NA48903   4.488  14.952   6.013 -0.0142 -0.1467 -0.0214
33773ION     NA48904   9.695   4.155   4.975  0.0222 -0.1471  0.5030
33774ION     NA48905  11.183   8.859   3.208 -0.1100  0.0181 -0.1942
33775ION     NA48906   2.342  11.525  13.713 -0.0404 -0.1762  0.1029
33776ION     NA48907   8.367  10.895   9.856 -0.2977  0.1685 -0.0919
33777ION     NA48908  14.068   4.395  10.239 -0.2090  0.2603  0.0784
33778ION     NA48909  15.292   7.700   5.860  0.1258  0.1590 -0.1801
33779ION     NA48910   6.352   5.702   5.284  0.2522 -0.3246 -0.2140
33780ION     NA48911   1.601  17.932  10.206  0.1180  0.4921  0.0357
33781ION     NA48912   5.230  10.234  10.376  0.0864 -0.4027 -0.0775
33782ION     NA48913  17.437   2.115   1.347 -0.3223 -0.1552  0.1917
33783ION     NA48914   0.263   0.072  10.429 -0.2309  0.1305  0.1287
33784ION     NA48915   5.416   8.497  14.304  0.2646 -0.2263  0.1094
33785ION     NA48916   4.086  12.516   5.198  0.1299 -0.0718  0.5100
33786ION     NA48917   0.414   9.503  10.088  0.0932  0.2485  0.0836
33787ION     NA48918   0.741   1.446  10.335  0.0105 -0.3268  0.2299
33788ION     NA48919  13.972   7.991   5.070  0.0660  0.1478 -0.1918
33789ION     NA48920  12.263   0.452  10.530 -0.0516 -0.1343  0.0357
33790ION     NA48921  14.328  15.561   3.031  0.1070 -0.3345  0.0223
33791ION     NA48922  11.589  14.185  10.165  0.0568  0.0177 -0.3257
33792ION     NA48923   1.782  15.859   6.065  0.0998 -0.1774  0.1695
33793ION     NA48924   8.143   8.799   9.986  0.2139  0.2483 -0.0219
33794ION     NA48925  11.675   9.321  11.605  0.0377  0.1879 -0.0814
33795ION     NA48926  10.357  14.440  15.906  0.4280  0.4406 -0.3741
33796ION     NA48927  12.384   2.834   3.715 -0.0451  0.4929 -0.0348
33797ION     NA48928  18.120   0.794  10.503  0.0458 -0.2393  0.0953
33798ION     NA48929   2.523  14.495   9.991 -0.1013  0.1336 -0.1002
33799ION     NA48930   9.819  17.345  11.644  0.2853  0.0015 -0.1605
33800ION     NA48931   1.286  14.801  10.348  0.0540  0.3691 -0.1365
33801ION     NA48932  18.012  16.147  10.686  0.0993 -0.1241 -0.4002
33802ION     NA48933  17.393   4.582  10.340 -0.2831  0.0139 -0.0736
33803ION     CL48934  12.704   4.838   5.470 -0.0975  0.1050 -0.0794
33804ION     CL48935  17.726   4.586   1.188  0.0897  0.0216 -0.2732
33805ION     CL48936  10.681  10.288  13.220 -0.0399 -0.0828 -0.2755
33806ION     CL48937   0.267   1.494  14.330 -0.2593  0.2239 -0.3114
33807ION     CL48938  16.620  12.965  15.907 -0.0625  0.2897  0.3224
33808ION     CL48939  17.600   5.841  16.088 -0.1380 -0.0610 -0.0065
33809ION     CL48940   9.891   0.767  11.237 -0.3159 -0.0247 -0.1519
33810ION     CL48941   2.238   8.825  12.132 -0.0663  0.4107  0.1145
33811ION     CL48942   0.626  11.085  13.877  0.4525  0.1860  0.0562
33812ION     CL48943  16.536  15.203   1.609  0.0226  0.3360 -0.1178
33813ION     CL48944  12.331   4.759  13.501 -0.0537 -0.1444 -0.0865
33814ION     CL48945  12.790   1.398   3.340  0.3110  0.1515  0.1763
33815ION     CL48946  11.449   3.112   0.131  0.1755  0.0620  0.0901
33816ION     CL48947  15.698   9.453   2.935  0.0339 -0.0730  0.0515
  18.36982  18.36982  16.14588
