INSANE! Membrane UpperLeaflet>loPI:POPI:DPPI:PYPI:ERGO=20.0:5.0:3.0:2.0:10.0 LowerLeaflet>PSPI:POPI:POPS:YOPS:POPE:YOPE:POPC:YOPC:ERGO=6.0:14.0:21.0:9.0:9.0:21.0:12.0:48.0:60.0
48947
    1loPI    C1    1  12.261   9.504  10.518  0.3278 -0.1572 -0.1515
    1loPI    C2    2  12.279   9.809  10.777  0.2199 -0.1467 -0.1558
    1loPI    C3    3  12.214   9.437  10.909 -0.0199 -0.1162 -0.1834
    1loPI   PO4    4  12.235   9.677  10.326  0.1184  0.1285 -0.0148
    1loPI   GL1    5  11.958   9.768  10.017 -0.3647 -0.1786 -0.0066
    1loPI   GL2    6  12.131  10.081   9.937  0.0685  0.0545 -0.0559
    1loPI   C1A    7  11.900   9.666   9.626 -0.1729  0.0744 -0.0708
    1loPI   C2A    8  11.987   9.645   9.215 -0.1938 -0.0401  0.1377
    1loPI   C3A    9  11.887   9.445   8.975 -0.0653 -0.0123 -0.1744
    1loPI   C4A   10  11.872   9.315   8.458 -0.3070 -0.0209 -0.0782
    1loPI   C5A   11  11.927   9.074   8.124 -0.2631 -0.0992  0.0997
    1loPI   C6A   12  11.819   9.002   7.741  0.0281 -0.0058 -0.2254
    1loPI   C1B   13  12.030  10.213   9.617 -0.0492  0.2985  0.1397
    1loPI   C2B   14  12.136  10.144   9.146 -0.3784  0.0867  0.0560
    1loPI   C3B   15  12.220   9.974   8.840  0.1814 -0.2410 -0.3312
    1loPI   C4B   16  12.302   9.573   8.625 -0.0452  0.1686 -0.1745
    2loPI    C1   17  14.181  10.183  10.763 -0.0229 -0.0507  0.2804
    2loPI    C2   18  13.910  10.430  10.604  0.1226 -0.0415  0.0423
    2loPI    C3   19  13.816  10.210  10.924 -0.1578 -0.0209 -0.0233
    2loPI   PO4   20  14.238  10.049  10.542 -0.0060  0.1342 -0.0886
    2loPI   GL1   21  14.167  10.183  10.194 -0.0660 -0.3055  0.0289
    2loPI   GL2   22  13.918  10.274  10.045 -0.1574  0.0019  0.0866
    2loPI   C1A   23  14.332  10.042   9.749 -0.1009 -0.0538  0.1113
    2loPI   C2A   24  14.386  10.138   9.290 -0.1365  0.2766  0.0736
    2loPI   C3A   25  14.325  10.199   8.786  0.2084 -0.2592 -0.2729
    2loPI   C4A   26  14.408  10.552   8.476 -0.1940  0.2387  0.0230
    2loPI   C5A   27  14.761  10.758   8.268  0.0273 -0.1497  0.1005
    2loPI   C6A   28  15.132  10.900   8.201  0.2633  0.3832 -0.2139
    2loPI   C1B   29  14.009  10.394   9.605 -0.1650 -0.0370 -0.0160
    2loPI   C2B   30  13.989  10.363   9.124 -0.2796  0.2195 -0.1014
    2loPI   C3B   31  13.874  10.393   8.638  0.1988 -0.0627  0.0498
    2loPI   C4B   32  13.826  10.691   8.399  0.1610 -0.0684 -0.1039
    3loPI    C1   33   7.699   8.403  10.350 -0.0780 -0.0074  0.0356
    3loPI    C2   34   7.722   8.799  10.302  0.0553  0.0126  0.2513
    3loPI    C3   35   7.717   8.642  10.670 -0.2520 -0.1725  0.1716
    3loPI   PO4   36   7.744   8.246  10.230  0.0512 -0.0841 -0.1212
    3loPI   GL1   37   7.852   7.900   9.930  0.0048  0.0973  0.2763
    3loPI   GL2   38   8.168   7.794   9.926  0.2571  0.2254 -0.1653
    3loPI   C1A   39   7.958   7.908   9.473  0.0856 -0.0858 -0.2014
    3loPI   C2A   40   7.882   7.551   9.127  0.0749  0.0015 -0.0797
    3loPI   C3A   41   7.578   7.469   8.854  0.0880 -0.2360 -0.0257
    3loPI   C4A   42   7.596   7.521   8.397  0.1405 -0.3327 -0.3830
    3loPI   C5A   43   7.920   7.435   7.963 -0.1087  0.3909 -0.2620
    3loPI   C6A   44   8.009   7.041   7.689 -0.0573  0.1192 -0.1692
    3loPI   C1B   45   8.249   7.481   9.555  0.1449  0.1854 -0.0286
    3loPI   C2B   46   8.397   7.470   9.078 -0.0740 -0.2401 -0.0771
    3loPI   C3B   47   8.435   7.269   8.684  0.4453 -0.2150 -0.4275
    3loPI   C4B   48   8.582   7.284   8.269 -0.1670  0.0990 -0.1657
    4loPI    C1   49  16.965   9.686  10.994  0.1937 -0.2120  0.0337
    4loPI    C2   50  17.191   9.788  11.308 -0.0492  0.2652  0.0627
    4loPI    C3   51  16.829   9.628  11.366  0.0790 -0.0464  0.0188
    4loPI   PO4   52  17.104   9.576  10.839  0.1507  0.0990  0.0563
    4loPI   GL1   53  17.320   9.623  10.546  0.0596  0.0012  0.0853
    4loPI   GL2   54  17.224  10.008  10.430 -0.2450  0.0120  0.2734
    4loPI   C1A   55  17.098   9.607  10.117  0.0156  0.2107  0.2320
    4loPI   C2A   56  17.003   9.428   9.649 -0.0931 -0.0024 -0.0510
    4loPI   C3A   57  16.946   9.255   9.215 -0.1379 -0.2447  0.1664
    4loPI   C4A   58  16.844   9.044   8.874 -0.1779 -0.1927 -0.4207
    4loPI   C5A   59  16.842   8.994   8.438  0.5038 -0.1900 -0.0228
    4loPI   C6A   60  16.726   9.063   8.077 -0.1532 -0.0411  0.1875
    4loPI   C1B   61  17.388  10.024  10.070  0.0345 -0.0283  0.0645
    4loPI   C2B   62  17.312  10.003   9.691 -0.0530  0.5753 -0.1368
    4loPI   C3B   63  17.269  10.032   9.199  0.0154  0.0411  0.3745
    4loPI   C4B   64  17.052  10.149   8.825 -0.1409 -0.2560  0.2155
    5loPI    C1   65  12.033   5.589  10.527 -0.0939 -0.4488 -0.0546
    5loPI    C2   66  12.428   5.605  10.585 -0.0859  0.0467 -0.1970
    5loPI    C3   67  12.182   5.576  10.898  0.0565 -0.1451 -0.1007
    5loPI   PO4   68  12.025   5.814  10.354  0.3267  0.4171 -0.0977
    5loPI   GL1   69  12.092   6.030  10.019  0.0709 -0.1277 -0.0239
    5loPI   GL2   70  12.221   6.330  10.041  0.0249 -0.0926 -0.1873
    5loPI   C1A   71  12.226   5.965   9.668  0.0513  0.1069 -0.0385
    5loPI   C2A   72  12.187   5.929   9.301  0.0793  0.3540 -0.1832
    5loPI   C3A   73  12.480   5.856   8.970 -0.2669 -0.0379 -0.0631
    5loPI   C4A   74  12.397   5.748   8.573  0.1841  0.0836  0.0575
    5loPI   C5A   75  12.503   5.688   8.186 -0.2622  0.0040  0.3862
    5loPI   C6A   76  12.926   5.956   7.981 -0.3852 -0.0724  0.2356
    5loPI   C1B   77  11.859   6.321   9.664  0.1643 -0.0158  0.0839
    5loPI   C2B   78  11.696   6.148   9.181  0.2775  0.0080  0.2410
    5loPI   C3B   79  11.550   6.087   8.682 -0.1529 -0.2012 -0.1053
    5loPI   C4B   80  11.194   6.271   8.509 -0.2445  0.1668  0.1085
    6loPI    C1   81   5.951  17.967  10.375  0.0055  0.0331 -0.0521
    6loPI    C2   82   6.189  17.763  10.127  0.1302  0.0379  0.0622
    6loPI    C3   83   6.242  17.735  10.523 -0.0767  0.0186  0.0895
    6loPI   PO4   84   5.932  18.183  10.181  0.0234 -0.1175  0.0341
    6loPI   GL1   85   5.636  18.432  10.007 -0.2084  0.2973 -0.0415
    6loPI   GL2   86   5.956  18.689  10.002 -0.0688  0.1765  0.1444
    6loPI   C1A   87   5.616  18.586   9.597  0.0509 -0.1045 -0.2812
    6loPI   C2A   88   5.566  18.620   9.234 -0.0591  0.0567 -0.0880
    6loPI   C3A   89   5.818  18.590   8.947  0.0287 -0.0365 -0.0869
    6loPI   C4A   90   5.842  18.621   8.554 -0.0965 -0.0182  0.1821
    6loPI   C5A   91   5.759  18.801   8.133 -0.2233  0.1630 -0.0244
    6loPI   C6A   92   5.540  18.889   7.738  0.0524 -0.2724  0.1431
    6loPI   C1B   93   6.393  18.729   9.909  0.0080 -0.1981  0.0165
    6loPI   C2B   94   6.696  18.792   9.544  0.2177 -0.3032 -0.1325
    6loPI   C3B   95   6.935  19.102   9.299  0.4062 -0.0990 -0.2666
    6loPI   C4B   96   7.147  19.208   8.837 -0.1360  0.4565 -0.2492
    7loPI    C1   97   8.606  14.795  10.673 -0.2248  0.2852  0.0904
    7loPI    C2   98   8.703  14.563  10.984 -0.0342  0.2714  0.0220
    7loPI    C3   99   8.460  14.877  11.037 -0.0991  0.1989  0.1611
    7loPI   PO4  100   8.837  14.853  10.518 -0.0567 -0.1056 -0.1060
    7loPI   GL1  101   8.937  14.943  10.083  0.0585  0.0531 -0.1169
    7loPI   GL2  102   9.214  14.863   9.906  0.0553 -0.2363 -0.0939
    7loPI   C1A  103   8.695  14.643   9.757  0.0494  0.2347 -0.1211
    7loPI   C2A  104   8.700  14.181   9.720 -0.2807 -0.3803  0.0792
    7loPI   C3A  105   8.589  13.899   9.472  0.0525  0.2005 -0.3655
    7loPI   C4A  106   8.681  13.759   9.087  0.1151  0.1924 -0.1038
    7loPI   C5A  107   8.902  13.691   8.764  0.2024 -0.2531  0.2024
    7loPI   C6A  108   8.723  13.635   8.417 -0.0260  0.1950 -0.1607
    7loPI   C1B  109   9.070  14.845   9.521 -0.3131 -0.0306  0.2127
    7loPI   C2B  110   8.706  14.577   9.263 -0.0974  0.0518 -0.0752
    7loPI   C3B  111   8.897  14.205   8.921  0.0402  0.3350 -0.0153
    7loPI   C4B  112   8.983  14.143   8.517 -0.2687  0.1239 -0.1540
    8loPI    C1  113  16.997  10.264  10.749  0.1742 -0.0091  0.0064
    8loPI    C2  114  16.676  10.126  10.944  0.0860 -0.1067 -0.2047
    8loPI    C3  115  16.999  10.244  11.149 -0.1665  0.2080  0.0224
    8loPI   PO4  116  16.779  10.437  10.521 -0.1105 -0.2479 -0.1011
    8loPI   GL1  117  16.685  10.557  10.162 -0.0539 -0.1078 -0.0706
    8loPI   GL2  118  16.789  10.684   9.988 -0.1548 -0.1766 -0.1711
    8loPI   C1A  119  16.418  10.397   9.848 -0.0120 -0.0190  0.2405
    8loPI   C2A  120  16.213  10.190   9.536 -0.1349 -0.1053 -0.1156
    8loPI   C3A  121  16.230  10.171   9.072  0.1493  0.1445 -0.0959
    8loPI   C4A  122  16.475  10.047   8.749 -0.0478 -0.2780 -0.0844
    8loPI   C5A  123  16.702   9.947   8.392  0.0160  0.0577 -0.1015
    8loPI   C6A  124  16.877   9.603   8.102  0.0138 -0.3994 -0.0909
    8loPI   C1B  125  16.933  10.447   9.651  0.1694 -0.1721  0.0913
    8loPI   C2B  126  17.203  10.694   9.357  0.0260  0.0621 -0.1069
    8loPI   C3B  127  17.665  10.890   9.414 -0.1821  0.1262 -0.0474
    8loPI   C4B  128  18.016  10.994   9.319  0.3132  0.1773 -0.1766
    9loPI    C1  129  15.794  16.745  10.254 -0.1294 -0.0839 -0.1352
    9loPI    C2  130  15.836  16.525   9.922  0.0774  0.0113 -0.1738
    9loPI    C3  131  15.622  16.385  10.230 -0.1958 -0.0376 -0.3827
    9loPI   PO4  132  15.780  17.016  10.139 -0.0277  0.0865 -0.0728
    9loPI   GL1  133  15.833  17.079   9.684  0.1983  0.2828  0.2310
    9loPI   GL2  134  15.632  16.978   9.585  0.0491  0.0151 -0.0263
    9loPI   C1A  135  16.184  16.834   9.589 -0.2233  0.2706  0.1255
    9loPI   C2A  136  16.309  16.493   9.213  0.2230 -0.1237 -0.0840
    9loPI   C3A  137  16.501  16.617   8.882  0.2092 -0.0292 -0.0512
    9loPI   C4A  138  16.332  16.727   8.447 -0.2531 -0.1949 -0.0775
    9loPI   C5A  139  16.191  16.481   8.133 -0.3320  0.0447  0.2892
    9loPI   C6A  140  16.072  16.528   7.726 -0.0677 -0.0640 -0.0127
    9loPI   C1B  141  15.790  16.599   9.388 -0.0779  0.0452  0.2059
    9loPI   C2B  142  15.647  16.327   9.040 -0.3023 -0.1632 -0.0908
    9loPI   C3B  143  15.180  16.280   8.909  0.0956 -0.0741  0.0534
    9loPI   C4B  144  14.846  16.363   9.231  0.3024  0.0069 -0.2897
   10loPI    C1  145  13.538  11.308  10.794 -0.0840  0.0531 -0.0297
   10loPI    C2  146  13.813  11.152  11.039 -0.1643  0.2542  0.1922
   10loPI    C3  147  13.704  11.535  11.078 -0.2425  0.2648 -0.1037
   10loPI   PO4  148  13.698  11.265  10.489  0.0829  0.0739 -0.0181
   10loPI   GL1  149  13.486  11.168  10.180 -0.3866 -0.2666 -0.0635
   10loPI   GL2  150  13.359  11.287   9.895  0.0174  0.0538  0.0010
   10loPI   C1A  151  13.614  10.844   9.857 -0.0792  0.0145  0.1990
   10loPI   C2A  152  13.669  10.691   9.479 -0.0376  0.2769 -0.0209
   10loPI   C3A  153  13.571  10.799   9.079  0.0494 -0.1075  0.0867
   10loPI   C4A  154  13.393  10.708   8.730  0.0194 -0.0354 -0.0378
   10loPI   C5A  155  13.302  10.878   8.288 -0.0059 -0.1981 -0.2166
   10loPI   C6A  156  13.287  10.901   7.793  0.1563 -0.2394  0.2210
   10loPI   C1B  157  12.951  11.145   9.854  0.2219  0.1492  0.0603
   10loPI   C2B  158  12.658  10.997   9.576 -0.0857  0.0625 -0.1102
   10loPI   C3B  159  12.629  10.928   9.102 -0.0857 -0.1709  0.1298
   10loPI   C4B  160  12.559  11.065   8.740  0.2211 -0.1754 -0.1824
   11loPI    C1  161  15.162   2.879  10.309  0.1415  0.1436 -0.0077
   11loPI    C2  162  14.814   3.044  10.202 -0.0226 -0.1001  0.1393
   11loPI    C3  163  14.877   2.941  10.583  0.1730 -0.1477  0.0949
   11loPI   PO4  164  15.362   3.063  10.248  0.2781  0.3676  0.2904
   11loPI   GL1  165  15.453   3.291   9.842  0.1857  0.1036  0.0230
   11loPI   GL2  166  15.491   3.611   9.839 -0.2391  0.0038  0.0696
   11loPI   C1A  167  15.191   3.217   9.402  0.0544  0.3419 -0.0575
   11loPI   C2A  168  15.134   3.275   8.987  0.1417  0.0941  0.1281
   11loPI   C3A  169  15.273   3.224   8.633  0.2996 -0.1157 -0.0594
   11loPI   C4A  170  15.539   2.973   8.333 -0.2108 -0.0307 -0.2646
   11loPI   C5A  171  15.879   2.825   8.033 -0.0301  0.0982  0.0285
   11loPI   C6A  172  16.207   3.074   7.785 -0.0951  0.1521 -0.2639
   11loPI   C1B  173  15.606   3.483   9.457  0.0827  0.1538  0.2825
   11loPI   C2B  174  15.550   3.569   9.069 -0.1276 -0.0085 -0.5535
   11loPI   C3B  175  15.540   3.624   8.680  0.0111  0.0148  0.0031
   11loPI   C4B  176  15.279   3.676   8.368  0.1619 -0.1439 -0.1866
   12loPI    C1  177   2.195   8.416  10.628  0.1859  0.0263 -0.1708
   12loPI    C2  178   2.199   8.370  11.025 -0.2262  0.2962 -0.1290
   12loPI    C3  179   2.534   8.312  10.814 -0.0438 -0.0203  0.2337
   12loPI   PO4  180   1.950   8.229  10.503 -0.1905 -0.0723 -0.0477
   12loPI   GL1  181   1.903   7.941  10.289  0.0593  0.0530 -0.0454
   12loPI   GL2  182   1.578   7.949  10.147  0.0268 -0.0405  0.0750
   12loPI   C1A  183   1.941   7.816   9.859  0.0669 -0.1695 -0.0166
   12loPI   C2A  184   1.893   7.757   9.410 -0.0598 -0.1113  0.0001
   12loPI   C3A  185   1.714   7.721   9.034  0.0289 -0.2147 -0.0794
   12loPI   C4A  186   1.711   7.637   8.702  0.0963  0.0579  0.0852
   12loPI   C5A  187   1.462   7.285   8.534 -0.0334 -0.2945 -0.0039
   12loPI   C6A  188   1.330   6.992   8.244  0.0474  0.1059 -0.0338
   12loPI   C1B  189   1.348   7.911   9.733 -0.0889  0.0027  0.1649
   12loPI   C2B  190   1.259   7.859   9.303 -0.0999  0.0331  0.0948
   12loPI   C3B  191   1.239   7.776   8.939  0.1423  0.1424 -0.1889
   12loPI   C4B  192   1.182   7.738   8.520 -0.1313 -0.1353  0.0057
   13loPI    C1  193   4.491   7.242  10.374 -0.1709  0.0642 -0.0536
   13loPI    C2  194   4.862   7.109  10.303 -0.1707 -0.0423  0.1403
   13loPI    C3  195   4.789   7.336  10.624 -0.2300  0.1730 -0.0233
   13loPI   PO4  196   4.340   7.039  10.376  0.0836 -0.1609  0.0524
   13loPI   GL1  197   4.149   6.809  10.046 -0.0880 -0.0658  0.1525
   13loPI   GL2  198   3.844   6.929  10.070  0.1027  0.0775  0.2662
   13loPI   C1A  199   4.211   6.746   9.667  0.1822  0.2054  0.1960
   13loPI   C2A  200   4.108   6.721   9.253  0.2649 -0.2283 -0.5004
   13loPI   C3A  201   4.018   6.612   8.823  0.3712 -0.2162  0.0671
   13loPI   C4A  202   3.728   6.593   8.590 -0.0298 -0.0762  0.0245
   13loPI   C5A  203   3.803   6.542   8.289  0.1571  0.1152 -0.0661
   13loPI   C6A  204   3.926   6.732   8.071  0.0681 -0.3160 -0.1580
   13loPI   C1B  205   3.551   7.034   9.790 -0.0183  0.0870  0.0126
   13loPI   C2B  206   3.438   7.332   9.542  0.2010 -0.2161  0.1606
   13loPI   C3B  207   3.396   7.345   9.257 -0.0166 -0.0737  0.0970
   13loPI   C4B  208   3.695   7.520   8.955  0.0389 -0.1258  0.2466
   14loPI    C1  209  10.556   5.469  10.395 -0.2137  0.0380 -0.0177
   14loPI    C2  210  10.527   5.422  10.791 -0.0283  0.0356 -0.0034
   14loPI    C3  211  10.526   5.789  10.633 -0.1937  0.0336 -0.0094
   14loPI   PO4  212  10.681   5.302  10.324 -0.1445 -0.1946  0.0842
   14loPI   GL1  213  10.541   4.996   9.995  0.1816  0.1094 -0.1699
   14loPI   GL2  214  10.436   4.729  10.065  0.1345 -0.1541 -0.0921
   14loPI   C1A  215  10.724   4.945   9.522 -0.2107  0.3061 -0.0889
   14loPI   C2A  216  10.562   4.917   9.149 -0.1813  0.1838 -0.0448
   14loPI   C3A  217  10.565   4.990   8.683  0.1771  0.2169 -0.0015
   14loPI   C4A  218  10.655   4.981   8.230  0.0668  0.0520 -0.0922
   14loPI   C5A  219  10.797   4.986   7.815 -0.0063 -0.2360  0.3808
   14loPI   C6A  220  10.720   4.775   7.533  0.4490 -0.0609 -0.3494
   14loPI   C1B  221  10.277   4.765   9.643 -0.0569 -0.1952 -0.0513
   14loPI   C2B  222  10.177   4.639   9.302  0.1147 -0.2508 -0.1485
   14loPI   C3B  223  10.156   4.637   8.830 -0.3815 -0.2785  0.0808
   14loPI   C4B  224  10.158   4.775   8.356 -0.3004  0.0718  0.1816
   15loPI    C1  225   3.423   1.353  10.343 -0.0436  0.0600 -0.1131
   15loPI    C2  226   3.518   1.641  10.604 -0.1207 -0.0766  0.0673
   15loPI    C3  227   3.260   1.353  10.708 -0.0789 -0.1859 -0.1275
   15loPI   PO4  228   3.401   1.540  10.085 -0.3596  0.0586 -0.0602
   15loPI   GL1  229   3.617   1.492   9.709 -0.3018  0.2351 -0.1259
   15loPI   GL2  230   3.351   1.318   9.565 -0.1224 -0.3165  0.0304
   15loPI   C1A  231   3.770   1.838   9.391  0.2334  0.1415 -0.1306
   15loPI   C2A  232   3.747   1.921   8.931  0.1533  0.3871  0.0341
   15loPI   C3A  233   3.797   2.045   8.459  0.1879  0.0444 -0.3733
   15loPI   C4A  234   3.780   2.373   8.094  0.1616  0.0268  0.2394
   15loPI   C5A  235   3.921   2.723   7.904 -0.4285 -0.0884 -0.1443
   15loPI   C6A  236   3.803   3.132   7.816 -0.1210  0.0912 -0.0584
   15loPI   C1B  237   3.327   1.560   9.211  0.0107  0.3386  0.0360
   15loPI   C2B  238   3.182   1.794   8.900  0.2232 -0.0526 -0.2464
   15loPI   C3B  239   3.271   1.904   8.455 -0.1301  0.0707 -0.0582
   15loPI   C4B  240   3.328   2.169   8.105 -0.2291  0.0760 -0.0396
   16loPI    C1  241  15.480   4.261  10.588  0.1283  0.0120 -0.2034
   16loPI    C2  242  15.691   3.921  10.570 -0.1734 -0.1877 -0.0467
   16loPI    C3  243  15.489   4.014  10.903 -0.0012  0.2044 -0.0467
   16loPI   PO4  244  15.405   4.345  10.404  0.0447  0.3206  0.0375
   16loPI   GL1  245  15.284   4.695  10.090 -0.0172 -0.0154  0.0128
   16loPI   GL2  246  15.565   4.501   9.936  0.2166 -0.0510  0.1806
   16loPI   C1A  247  15.204   4.835   9.682 -0.0107 -0.0901  0.0915
   16loPI   C2A  248  15.168   4.928   9.186 -0.0710 -0.0818 -0.0894
   16loPI   C3A  249  15.316   5.044   8.798  0.1815 -0.3868 -0.0648
   16loPI   C4A  250  15.335   5.059   8.258  0.0979 -0.2425 -0.0685
   16loPI   C5A  251  15.508   5.285   8.017 -0.0816 -0.3201  0.0208
   16loPI   C6A  252  15.783   5.519   7.741  0.3477 -0.1191  0.2183
   16loPI   C1B  253  15.607   4.488   9.440  0.1934  0.2310 -0.1614
   16loPI   C2B  254  15.526   4.560   9.089 -0.2882 -0.1033 -0.1241
   16loPI   C3B  255  15.631   4.681   8.644 -0.1912  0.1124  0.0686
   16loPI   C4B  256  15.856   4.564   8.346 -0.4585  0.3285  0.0703
   17loPI    C1  257  13.793  14.789  10.498 -0.1150  0.5113  0.0475
   17loPI    C2  258  14.141  14.846  10.686  0.0042  0.2674 -0.0940
   17loPI    C3  259  13.797  14.929  10.872  0.1184  0.0141  0.2400
   17loPI   PO4  260  13.866  14.836  10.184  0.0535  0.2142  0.1238
   17loPI   GL1  261  13.922  15.098   9.778 -0.1170  0.3506 -0.0889
   17loPI   GL2  262  13.557  15.138   9.970 -0.4508 -0.1436 -0.0472
   17loPI   C1A  263  14.099  15.058   9.340  0.3161 -0.0332  0.3034
   17loPI   C2A  264  14.211  15.124   8.909 -0.2419  0.1062 -0.3894
   17loPI   C3A  265  14.252  15.052   8.456  0.1030  0.0806 -0.2053
   17loPI   C4A  266  14.416  15.301   8.140  0.1989 -0.3994 -0.0253
   17loPI   C5A  267  14.248  15.668   7.845  0.2446  0.1086  0.0365
   17loPI   C6A  268  13.852  15.847   7.775  0.0274  0.0301  0.0550
   17loPI   C1B  269  13.264  15.031   9.722 -0.1129  0.1843  0.0151
   17loPI   C2B  270  13.323  15.122   9.254  0.0004  0.3233  0.0461
   17loPI   C3B  271  13.281  15.084   8.859  0.1251  0.0973  0.0763
   17loPI   C4B  272  13.146  15.023   8.505  0.0073 -0.2865  0.1725
   18loPI    C1  273   7.356   5.784  10.540 -0.0122 -0.0412  0.1909
   18loPI    C2  274   7.008   5.703  10.360 -0.0419 -0.1119  0.2792
   18loPI    C3  275   7.012   5.906  10.704  0.0188  0.0776  0.1678
   18loPI   PO4  276   7.522   5.837  10.341 -0.0855  0.1361  0.2026
   18loPI   GL1  277   7.312   5.794   9.885  0.2429 -0.1353  0.1350
   18loPI   GL2  278   7.620   5.714   9.783 -0.0762 -0.1382 -0.0304
   18loPI   C1A  279   7.343   6.010   9.478  0.0003  0.0959  0.1231
   18loPI   C2A  280   7.128   6.173   9.071  0.1141 -0.3166  0.2329
   18loPI   C3A  281   7.078   6.161   8.607 -0.1438 -0.1785 -0.3587
   18loPI   C4A  282   6.947   6.167   8.275 -0.0293  0.1446 -0.1120
   18loPI   C5A  283   6.649   6.259   8.011  0.0103  0.0589 -0.0616
   18loPI   C6A  284   6.529   6.575   7.932  0.3502  0.1224  0.1799
   18loPI   C1B  285   7.429   5.546   9.494 -0.0263 -0.5506 -0.1902
   18loPI   C2B  286   7.402   5.596   9.070  0.2332  0.1622  0.0879
   18loPI   C3B  287   7.483   5.946   8.802 -0.0341 -0.0587  0.2763
   18loPI   C4B  288   7.892   6.140   8.877 -0.0737  0.0822 -0.1754
   19loPI    C1  289  12.838   1.142  10.367 -0.0903  0.0007  0.3295
   19loPI    C2  290  12.986   1.422  10.610  0.3291  0.1511 -0.0837
   19loPI    C3  291  13.178   1.074  10.566 -0.0926 -0.1408  0.2862
   19loPI   PO4  292  12.761   1.234  10.095  0.0538 -0.0087 -0.0762
   19loPI   GL1  293  12.968   1.325   9.777 -0.1841  0.1862  0.1875
   19loPI   GL2  294  13.030   0.921   9.811 -0.1988  0.5525  0.1279
   19loPI   C1A  295  13.260   1.208   9.434  0.0575 -0.2080  0.1969
   19loPI   C2A  296  13.526   1.253   9.046 -0.0424 -0.2113  0.1628
   19loPI   C3A  297  13.602   1.058   8.688  0.3041 -0.1450  0.1211
   19loPI   C4A  298  13.645   1.167   8.284 -0.0876  0.1377  0.0783
   19loPI   C5A  299  13.712   0.855   7.979 -0.1754  0.0332  0.2092
   19loPI   C6A  300  14.045   0.485   7.930  0.1241  0.0822  0.0635
   19loPI   C1B  301  12.806   0.976   9.422  0.0700 -0.1222 -0.0341
   19loPI   C2B  302  12.881   1.131   9.087 -0.1267 -0.1601 -0.1104
   19loPI   C3B  303  13.041   1.498   8.804 -0.0357  0.0084 -0.1532
   19loPI   C4B  304  13.393   1.541   8.608  0.4175  0.2353 -0.0093
   20loPI    C1  305   3.089   3.923  10.724 -0.0950  0.2929 -0.0435
   20loPI    C2  306   3.288   3.708  10.996  0.1082  0.2812 -0.1991
   20loPI    C3  307   2.927   3.856  11.083  0.0952  0.1285  0.0132
   20loPI   PO4  308   3.217   4.122  10.707  0.0567 -0.3725 -0.1233
   20loPI   GL1  309   3.466   4.150  10.292 -0.2542 -0.2798  0.1202
   20loPI   GL2  310   3.167   4.036  10.218  0.3309  0.0924 -0.0825
   20loPI   C1A  311   3.474   4.437   9.927 -0.0811  0.0081 -0.0421
   20loPI   C2A  312   3.602   4.409   9.617 -0.0743 -0.1454  0.5108
   20loPI   C3A  313   3.552   4.628   9.242  0.1261  0.2119  0.3660
   20loPI   C4A  314   3.575   4.673   8.784 -0.3575  0.0972 -0.0651
   20loPI   C5A  315   3.451   4.756   8.421  0.1559  0.1249 -0.3625
   20loPI   C6A  316   3.273   4.558   8.006 -0.3477  0.0638  0.0742
   20loPI   C1B  317   3.240   3.785   9.800 -0.1841 -0.0702  0.0523
   20loPI   C2B  318   3.240   3.791   9.402 -0.0360  0.1179  0.0620
   20loPI   C3B  319   3.141   3.802   9.012  0.2725  0.1620 -0.0311
   20loPI   C4B  320   2.994   4.031   8.633  0.0621 -0.1595 -0.2181
   21loPI    C1  321  13.030   8.445  10.544  0.0001  0.3687  0.0840
   21loPI    C2  322  13.428   8.480  10.569  0.0656 -0.0669 -0.2182
   21loPI    C3  323  13.230   8.259  10.837  0.0083  0.2324 -0.0074
   21loPI   PO4  324  12.935   8.420  10.336 -0.0027 -0.0110  0.0805
   21loPI   GL1  325  12.910   8.382   9.910 -0.0471 -0.1825 -0.0037
   21loPI   GL2  326  12.539   8.448   9.950 -0.0030 -0.4458  0.1034
   21loPI   C1A  327  12.856   8.436   9.467  0.2241 -0.1148 -0.1048
   21loPI   C2A  328  12.656   8.239   9.129 -0.2059 -0.5042 -0.1070
   21loPI   C3A  329  12.548   8.510   8.798  0.0894  0.1009 -0.0323
   21loPI   C4A  330  12.328   8.786   8.459 -0.1114  0.0026 -0.2480
   21loPI   C5A  331  12.463   9.084   8.083 -0.1316  0.0489 -0.0100
   21loPI   C6A  332  12.712   9.369   7.800 -0.1247  0.0573 -0.3791
   21loPI   C1B  333  12.360   8.133   9.667 -0.2038  0.0869  0.1770
   21loPI   C2B  334  12.453   7.792   9.363  0.0708  0.1582 -0.3898
   21loPI   C3B  335  12.554   7.616   8.902  0.0290 -0.1017 -0.1496
   21loPI   C4B  336  12.444   7.658   8.485  0.0244  0.1762 -0.0479
   22loPI    C1  337  17.817  16.612  10.519 -0.0974 -0.1356  0.1216
   22loPI    C2  338  17.442  16.736  10.453 -0.0027  0.0232 -0.1327
   22loPI    C3  339  17.510  16.421  10.690 -0.2788  0.1556  0.1291
   22loPI   PO4  340  17.938  16.515  10.251  0.2306  0.1540  0.1818
   22loPI   GL1  341  18.072  16.641   9.887 -0.0659  0.1012 -0.2710
   22loPI   GL2  342  17.797  16.529   9.761  0.0262 -0.1597  0.1209
   22loPI   C1A  343  18.424  16.915   9.811 -0.1471 -0.1409  0.0190
   22loPI   C2A  344  18.298  17.075   9.464 -0.0259  0.0552 -0.2730
   22loPI   C3A  345  18.095  17.161   9.195  0.1297 -0.0055  0.0819
   22loPI   C4A  346  17.805  17.076   8.872 -0.0179 -0.0201  0.0560
   22loPI   C5A  347  17.749  17.139   8.480 -0.2958 -0.0644 -0.1002
   22loPI   C6A  348  17.544  16.987   8.109 -0.1687 -0.0635  0.1234
   22loPI   C1B  349  17.999  16.615   9.317 -0.0645 -0.2452  0.0230
   22loPI   C2B  350  18.149  16.684   8.879  0.1207 -0.1456  0.3914
   22loPI   C3B  351  18.221  16.624   8.414 -0.0159  0.0190 -0.2185
   22loPI   C4B  352  18.088  16.622   7.908 -0.1222  0.2140 -0.2163
   23loPI    C1  353  15.017  17.324  10.053 -0.0519  0.1177 -0.0140
   23loPI    C2  354  15.256  17.606   9.900 -0.0633  0.0907 -0.0825
   23loPI    C3  355  15.373  17.223   9.901 -0.1324  0.0688 -0.1733
   23loPI   PO4  356  14.811  17.379   9.902 -0.0961 -0.0308 -0.2826
   23loPI   GL1  357  14.798  17.399   9.547  0.2204 -0.1354  0.0318
   23loPI   GL2  358  14.756  17.620   9.270 -0.0427  0.1092 -0.1116
   23loPI   C1A  359  14.986  17.228   9.154  0.0583  0.0090  0.3810
   23loPI   C2A  360  15.287  17.200   8.829  0.4854 -0.1237  0.2526
   23loPI   C3A  361  15.418  17.401   8.450 -0.2997  0.0239  0.1737
   23loPI   C4A  362  15.350  17.703   8.152  0.2642 -0.1006 -0.0886
   23loPI   C5A  363  15.150  17.805   7.825 -0.3166  0.0306  0.2178
   23loPI   C6A  364  15.243  17.844   7.353 -0.1383 -0.1512 -0.1495
   23loPI   C1B  365  14.989  17.599   8.875  0.2725  0.1583  0.0411
   23loPI   C2B  366  15.103  17.828   8.535 -0.0168  0.0222  0.0427
   23loPI   C3B  367  15.116  18.139   8.234  0.1983 -0.2018  0.3272
   23loPI   C4B  368  15.276  18.563   8.075 -0.2271 -0.0639  0.0508
   24loPI    C1  369  12.518   8.717  10.486  0.1326 -0.0688  0.0627
   24loPI    C2  370  12.186   8.561  10.647  0.1692 -0.1694  0.0414
   24loPI    C3  371  12.421   8.335  10.414  0.1134 -0.0234 -0.1585
   24loPI   PO4  372  12.469   9.012  10.481 -0.1593  0.2096 -0.0409
   24loPI   GL1  373  12.402   9.266  10.038  0.1035 -0.0585 -0.0050
   24loPI   GL2  374  12.025   9.250  10.116 -0.1064 -0.3210 -0.0692
   24loPI   C1A  375  12.294   9.322   9.551 -0.1274  0.1482 -0.0814
   24loPI   C2A  376  12.049   9.182   9.359  0.0321 -0.0376 -0.1902
   24loPI   C3A  377  11.794   8.840   9.325 -0.1711 -0.4785  0.1012
   24loPI   C4A  378  11.905   8.418   9.420 -0.0178  0.0234  0.1099
   24loPI   C5A  379  12.013   8.145   9.179 -0.0341  0.0943 -0.0159
   24loPI   C6A  380  12.262   7.997   8.851 -0.0436  0.0062 -0.1137
   24loPI   C1B  381  11.999   9.070   9.869  0.1974  0.2665  0.0327
   24loPI   C2B  382  12.229   8.760   9.600 -0.1125  0.0126  0.2271
   24loPI   C3B  383  12.289   8.586   9.181  0.1391 -0.0098 -0.1271
   24loPI   C4B  384  12.044   8.526   8.822 -0.0511  0.0675  0.0349
   25loPI    C1  385   6.092   7.820  10.726 -0.2795 -0.0094 -0.3735
   25loPI    C2  386   5.797   7.552  10.761 -0.0442 -0.2442 -0.1411
   25loPI    C3  387   6.095   7.558  11.028 -0.0735  0.2904 -0.1079
   25loPI   PO4  388   6.065   7.994  10.516 -0.1573 -0.1113  0.0152
   25loPI   GL1  389   6.098   8.120   9.990  0.1542 -0.1186 -0.1297
   25loPI   GL2  390   5.899   7.850   9.735 -0.0479  0.2137  0.4970
   25loPI   C1A  391   6.412   8.139   9.602 -0.1376 -0.0476 -0.1953
   25loPI   C2A  392   6.690   8.089   9.194  0.3922 -0.1300  0.0903
   25loPI   C3A  393   6.824   8.170   8.769 -0.1583 -0.2322 -0.2616
   25loPI   C4A  394   6.898   8.267   8.350  0.1586  0.0916 -0.1592
   25loPI   C5A  395   7.146   8.252   8.019 -0.0637  0.0342 -0.0248
   25loPI   C6A  396   7.552   8.220   7.940 -0.0738  0.0018 -0.3146
   25loPI   C1B  397   5.894   8.085   9.326  0.0718  0.0011 -0.2510
   25loPI   C2B  398   5.913   8.149   8.853 -0.0220  0.0546  0.0174
   25loPI   C3B  399   5.908   8.171   8.418  0.1578  0.2228  0.1603
   25loPI   C4B  400   5.883   8.253   7.981 -0.0917 -0.0636  0.1983
   26loPI    C1  401  15.385   6.135  10.584 -0.0020  0.3555 -0.0012
   26loPI    C2  402  15.407   6.071  10.978  0.0599  0.0949 -0.0451
   26loPI    C3  403  15.084   5.954  10.774  0.0378  0.2089 -0.0765
   26loPI   PO4  404  15.531   6.087  10.440 -0.1394  0.3850 -0.1786
   26loPI   GL1  405  15.666   5.947  10.019 -0.1566  0.0760  0.0960
   26loPI   GL2  406  15.478   5.788   9.792 -0.1932  0.0968 -0.0641
   26loPI   C1A  407  15.722   6.315   9.748  0.1109  0.1934 -0.1542
   26loPI   C2A  408  15.734   6.467   9.328  0.1068  0.2753  0.1399
   26loPI   C3A  409  15.821   6.647   8.987 -0.1912  0.0263 -0.3077
   26loPI   C4A  410  15.862   6.974   8.674  0.1640  0.0317 -0.0196
   26loPI   C5A  411  15.955   7.385   8.481 -0.0450  0.0608  0.0619
   26loPI   C6A  412  15.722   7.817   8.276 -0.1530  0.2483 -0.0061
   26loPI   C1B  413  15.525   5.947   9.341  0.1689 -0.0590 -0.1780
   26loPI   C2B  414  15.586   6.121   9.016 -0.1099  0.3080 -0.0732
   26loPI   C3B  415  15.485   6.097   8.611 -0.4526 -0.1206  0.1097
   26loPI   C4B  416  15.405   6.145   8.143  0.0070  0.0289  0.1211
   27loPI    C1  417   5.646  17.135  10.435  0.2073 -0.1464 -0.3208
   27loPI    C2  418   5.351  17.384  10.331  0.1828  0.0566  0.2013
   27loPI    C3  419   5.723  17.523  10.374  0.2714 -0.1081 -0.0154
   27loPI   PO4  420   5.591  16.948  10.242  0.0161  0.0322 -0.0451
   27loPI   GL1  421   5.809  16.762   9.885 -0.0396  0.2393  0.0033
   27loPI   GL2  422   5.528  16.644   9.833 -0.0987  0.0823 -0.3510
   27loPI   C1A  423   5.867  17.028   9.631 -0.2505  0.1756  0.1611
   27loPI   C2A  424   5.805  17.226   9.319 -0.0295  0.1831 -0.0828
   27loPI   C3A  425   5.752  17.235   8.911 -0.0897 -0.1867 -0.1931
   27loPI   C4A  426   5.897  17.097   8.517 -0.0653  0.1037  0.0807
   27loPI   C5A  427   5.786  16.748   8.221 -0.1090  0.1286 -0.0812
   27loPI   C6A  428   5.682  16.754   7.853 -0.0219  0.0756  0.4408
   27loPI   C1B  429   5.519  16.665   9.431 -0.2390 -0.0409 -0.0245
   27loPI   C2B  430   5.713  16.550   9.107  0.1585  0.1236 -0.2838
   27loPI   C3B  431   5.819  16.553   8.683 -0.1366 -0.3589 -0.1457
   27loPI   C4B  432   6.185  16.517   8.372 -0.1412  0.1197 -0.0163
   28loPI    C1  433  10.081   6.823  10.747 -0.3133  0.0809  0.0909
   28loPI    C2  434  10.269   6.601  11.021 -0.1589 -0.0172 -0.0924
   28loPI    C3  435  10.415   6.959  10.919 -0.2995  0.0851  0.0610
   28loPI   PO4  436  10.066   6.660  10.506 -0.2279 -0.1433 -0.0465
   28loPI   GL1  437  10.160   6.649  10.130 -0.0600 -0.0483 -0.0797
   28loPI   GL2  438  10.044   6.385   9.903 -0.4498 -0.1919  0.0047
   28loPI   C1A  439  10.280   6.916   9.784 -0.3810 -0.1639 -0.1968
   28loPI   C2A  440  10.343   6.924   9.220 -0.0983  0.1314  0.2560
   28loPI   C3A  441  10.544   6.968   8.881 -0.3683 -0.2469  0.0874
   28loPI   C4A  442  10.583   7.055   8.535 -0.2869 -0.2184 -0.2347
   28loPI   C5A  443  10.526   7.088   8.165 -0.0510 -0.3077  0.1596
   28loPI   C6A  444  10.679   6.939   7.802 -0.2054 -0.0927  0.0758
   28loPI   C1B  445  10.268   6.436   9.504 -0.1423 -0.0927 -0.1711
   28loPI   C2B  446  10.255   6.419   9.076 -0.2873  0.0670  0.0193
   28loPI   C3B  447  10.257   6.639   8.664 -0.3227  0.0000 -0.0380
   28loPI   C4B  448  10.226   6.747   8.206 -0.0451  0.0832  0.0361
   29loPI    C1  449   5.773  14.694  10.829 -0.1112 -0.3938 -0.0136
   29loPI    C2  450   5.641  14.464  11.128 -0.0280 -0.1010  0.2545
   29loPI    C3  451   6.013  14.610  11.139 -0.0669  0.0142  0.0685
   29loPI   PO4  452   5.743  14.528  10.599 -0.0751 -0.1636 -0.0523
   29loPI   GL1  453   5.637  14.688  10.149  0.0869 -0.4283  0.1988
   29loPI   GL2  454   5.495  14.929  10.070 -0.0794 -0.0718  0.0356
   29loPI   C1A  455   5.958  14.894   9.827  0.0859  0.0157  0.0644
   29loPI   C2A  456   5.935  14.948   9.326  0.0180  0.2117  0.1674
   29loPI   C3A  457   5.890  15.031   8.873  0.1272  0.1119 -0.0119
   29loPI   C4A  458   5.986  15.207   8.500 -0.0286  0.2656 -0.1314
   29loPI   C5A  459   6.275  15.280   8.218  0.2162  0.2038 -0.0850
   29loPI   C6A  460   6.489  15.705   8.048  0.0231 -0.1242  0.1936
   29loPI   C1B  461   5.503  14.773   9.665 -0.0573  0.1935  0.2210
   29loPI   C2B  462   5.499  14.757   9.276 -0.0159 -0.2019  0.2574
   29loPI   C3B  463   5.457  14.743   8.789  0.2825 -0.2860  0.1065
   29loPI   C4B  464   5.703  14.793   8.411  0.1719  0.0864 -0.0361
   30loPI    C1  465  10.663  10.900  10.368  0.2199 -0.1679 -0.1718
   30loPI    C2  466  10.850  10.706  10.072  0.0420 -0.5154 -0.0618
   30loPI    C3  467  10.658  10.500  10.356 -0.1579 -0.1743  0.0561
   30loPI   PO4  468  10.473  11.078  10.233 -0.1967  0.1001  0.0920
   30loPI   GL1  469  10.435  11.093   9.777 -0.2163  0.0391  0.0231
   30loPI   GL2  470  10.497  11.337   9.714 -0.0689  0.0111 -0.1792
   30loPI   C1A  471  10.111  11.218   9.425 -0.2959 -0.3735  0.0585
   30loPI   C2A  472   9.987  10.866   9.128  0.0690 -0.2867 -0.1568
   30loPI   C3A  473  10.015  10.676   8.871  0.1333  0.3551 -0.1969
   30loPI   C4A  474   9.782  10.705   8.500 -0.3429 -0.0650  0.2155
   30loPI   C5A  475   9.618  10.380   8.247 -0.0074 -0.0752  0.1505
   30loPI   C6A  476   9.404  10.099   8.074 -0.0205 -0.2272  0.1219
   30loPI   C1B  477  10.569  11.093   9.318  0.4098  0.1630 -0.1389
   30loPI   C2B  478  10.453  10.906   8.996  0.0023 -0.2103  0.1123
   30loPI   C3B  479  10.539  10.497   8.665  0.0439  0.0990 -0.3225
   30loPI   C4B  480  10.587  10.156   8.400  0.0352 -0.1847 -0.2681
   31loPI    C1  481   2.269   8.955  10.605 -0.2819  0.0431 -0.0542
   31loPI    C2  482   2.030   8.794  10.882 -0.0615 -0.1118  0.0496
   31loPI    C3  483   2.116   9.185  10.895 -0.4902 -0.0051 -0.1243
   31loPI   PO4  484   2.204   8.890  10.369  0.1403 -0.0005  0.1179
   31loPI   GL1  485   2.347   8.830  10.071 -0.0060 -0.1366 -0.1039
   31loPI   GL2  486   2.259   9.089   9.878  0.0129  0.3495  0.0102
   31loPI   C1A  487   2.156   8.653   9.710 -0.0674  0.0541  0.0132
   31loPI   C2A  488   1.915   8.594   9.348 -0.1991  0.0243 -0.0813
   31loPI   C3A  489   1.904   8.489   9.069 -0.0584 -0.0814 -0.2294
   31loPI   C4A  490   1.764   8.604   8.667 -0.2460 -0.0148  0.1008
   31loPI   C5A  491   1.694   8.985   8.434  0.1968  0.1836  0.2235
   31loPI   C6A  492   1.379   9.246   8.287 -0.0116 -0.1273  0.1948
   31loPI   C1B  493   1.831   9.038   9.532  0.1514 -0.2406  0.1927
   31loPI   C2B  494   1.938   9.002   9.029 -0.2201  0.1654 -0.1793
   31loPI   C3B  495   2.213   8.965   8.637  0.3364  0.2206 -0.0052
   31loPI   C4B  496   2.639   8.822   8.738  0.3685 -0.0108 -0.0242
   32loPI    C1  497  16.928   7.877  10.943 -0.0273  0.1136 -0.0564
   32loPI    C2  498  17.121   7.749  10.617 -0.1092  0.1093 -0.1036
   32loPI    C3  499  17.325   7.915  10.918 -0.0465  0.2248 -0.2087
   32loPI   PO4  500  16.767   8.026  10.821 -0.1560 -0.1153  0.0420
   32loPI   GL1  501  16.714   7.845  10.360 -0.0723  0.0786  0.2089
   32loPI   GL2  502  16.516   7.511  10.347 -0.1496  0.0735 -0.0618
   32loPI   C1A  503  17.004   7.636  10.154  0.2269  0.1017 -0.0473
   32loPI   C2A  504  17.382   7.449   9.734  0.1634 -0.2703  0.1388
   32loPI   C3A  505  17.648   7.348   9.315 -0.1450 -0.2417 -0.0460
   32loPI   C4A  506  17.716   7.164   8.897  0.0808  0.1049 -0.0701
   32loPI   C5A  507  17.988   7.002   8.531 -0.1680  0.0696  0.1947
   32loPI   C6A  508  18.380   6.885   8.404  0.0477 -0.2332  0.1879
   32loPI   C1B  509  16.651   7.632   9.822  0.0786 -0.0226 -0.1870
   32loPI   C2B  510  16.690   7.798   9.397 -0.1519  0.2103 -0.1212
   32loPI   C3B  511  16.649   7.657   8.966 -0.0058 -0.2535  0.1400
   32loPI   C4B  512  16.432   7.597   8.540 -0.2012 -0.1762  0.1793
   33loPI    C1  513  13.433   4.153  10.627  0.0204 -0.1696  0.1355
   33loPI    C2  514  13.821   4.229  10.686  0.0481 -0.2104  0.0093
   33loPI    C3  515  13.560   4.276  10.986  0.1308 -0.0567  0.0585
   33loPI   PO4  516  13.406   4.335  10.435 -0.3475 -0.3170 -0.0047
   33loPI   GL1  517  13.249   4.445  10.124 -0.1866  0.0470 -0.1102
   33loPI   GL2  518  13.202   4.099  10.061  0.0151 -0.1334  0.3059
   33loPI   C1A  519  13.449   4.334   9.669  0.0447  0.0137  0.0743
   33loPI   C2A  520  13.317   4.196   9.294  0.0169  0.3399 -0.2049
   33loPI   C3A  521  13.200   4.146   8.923  0.1560 -0.1482 -0.1457
   33loPI   C4A  522  12.970   4.290   8.590 -0.1485  0.0460  0.2686
   33loPI   C5A  523  12.967   4.059   8.183  0.1945 -0.0982  0.0372
   33loPI   C6A  524  12.974   4.085   7.795 -0.0721 -0.0725  0.3368
   33loPI   C1B  525  12.993   4.008   9.687 -0.3387  0.3175  0.1840
   33loPI   C2B  526  12.833   3.843   9.299  0.0206 -0.0150  0.1055
   33loPI   C3B  527  12.691   3.978   8.931 -0.1326 -0.1262  0.1596
   33loPI   C4B  528  12.584   3.915   8.551 -0.0591 -0.4411  0.1717
   34loPI    C1  529   5.512  16.227  10.440 -0.0205  0.0090 -0.1134
   34loPI    C2  530   5.516  16.587  10.613  0.0499 -0.0323 -0.0285
   34loPI    C3  531   5.215  16.334  10.686  0.0743 -0.0456  0.0259
   34loPI   PO4  532   5.577  16.287  10.167  0.1748  0.0590  0.0672
   34loPI   GL1  533   5.624  15.930   9.949 -0.2475 -0.3323  0.0121
   34loPI   GL2  534   5.870  15.791   9.928  0.0556  0.0440 -0.2218
   34loPI   C1A  535   5.568  16.120   9.588 -0.0560  0.0092 -0.0021
   34loPI   C2A  536   5.631  15.983   9.105 -0.0912 -0.2940  0.0289
   34loPI   C3A  537   5.768  16.074   8.746 -0.0165  0.5320  0.0618
   34loPI   C4A  538   5.795  16.188   8.377 -0.2587 -0.1032  0.0163
   34loPI   C5A  539   5.568  16.333   8.046  0.2333 -0.0956  0.1236
   34loPI   C6A  540   5.197  16.284   7.806  0.1059  0.3962 -0.1210
   34loPI   C1B  541   6.076  15.794   9.665 -0.0060 -0.0029  0.0239
   34loPI   C2B  542   6.013  15.784   9.274  0.1444  0.1146 -0.1736
   34loPI   C3B  543   6.181  15.718   8.926 -0.0708  0.2444 -0.0924
   34loPI   C4B  544   6.166  15.806   8.448  0.0201 -0.2574  0.0973
   35loPI    C1  545   4.750   5.411  10.563  0.1719 -0.0591  0.0743
   35loPI    C2  546   4.747   5.747  10.780 -0.0079  0.0526 -0.0978
   35loPI    C3  547   4.855   5.401  10.949  0.1115  0.1838  0.0987
   35loPI   PO4  548   4.689   5.515  10.320  0.1310  0.1976 -0.0243
   35loPI   GL1  549   4.747   5.505   9.928 -0.0378  0.1680 -0.1640
   35loPI   GL2  550   4.637   5.876   9.901 -0.1187 -0.1710  0.0413
   35loPI   C1A  551   4.810   5.481   9.554 -0.1309 -0.2424  0.3059
   35loPI   C2A  552   4.881   5.600   9.076 -0.5075  0.0004 -0.3669
   35loPI   C3A  553   4.875   5.889   8.760 -0.4793  0.1838  0.0887
   35loPI   C4A  554   4.988   6.269   8.540  0.2762 -0.3488  0.2854
   35loPI   C5A  555   4.778   6.517   8.268  0.1785  0.3125  0.1953
   35loPI   C6A  556   4.421   6.633   8.023 -0.1771  0.0318 -0.5119
   35loPI   C1B  557   4.357   5.854   9.634  0.3076 -0.2719 -0.0695
   35loPI   C2B  558   4.403   5.809   9.139 -0.2013  0.1123 -0.3784
   35loPI   C3B  559   4.417   5.739   8.686  0.0167  0.0338  0.3188
   35loPI   C4B  560   4.543   5.671   8.305 -0.2725 -0.1136 -0.0167
   36loPI    C1  561   9.099   6.903  10.738  0.3512 -0.0805  0.0791
   36loPI    C2  562   9.071   7.168  11.037  0.1108  0.0102 -0.0215
   36loPI    C3  563   8.742   7.050  10.842  0.2030 -0.4335  0.0808
   36loPI   PO4  564   9.271   7.010  10.492 -0.1386 -0.2013 -0.0262
   36loPI   GL1  565   9.058   7.127  10.143  0.1305 -0.4662  0.2156
   36loPI   GL2  566   9.068   6.798  10.002  0.1033 -0.4486  0.0165
   36loPI   C1A  567   9.375   7.232   9.798  0.1683  0.2911  0.0858
   36loPI   C2A  568   9.436   7.279   9.400 -0.0745 -0.0567  0.1318
   36loPI   C3A  569   9.287   7.142   9.155  0.4507  0.0001 -0.2156
   36loPI   C4A  570   9.368   7.245   8.748 -0.1738 -0.1747 -0.3448
   36loPI   C5A  571   9.464   7.323   8.270 -0.3442  0.1816 -0.1035
   36loPI   C6A  572   9.453   7.534   7.896  0.2602 -0.0220  0.2798
   36loPI   C1B  573   9.019   6.993   9.627  0.0442 -0.0806  0.1055
   36loPI   C2B  574   8.849   7.410   9.395  0.1029 -0.2563 -0.2525
   36loPI   C3B  575   8.880   7.471   8.977 -0.2148 -0.0822  0.1401
   36loPI   C4B  576   9.002   7.450   8.493 -0.1946  0.0738 -0.0466
   37loPI    C1  577  17.083  14.965  10.478 -0.0052  0.0768  0.2108
   37loPI    C2  578  16.991  15.329  10.342 -0.1232  0.0256  0.1525
   37loPI    C3  579  16.819  15.191  10.676 -0.0693  0.0281  0.1812
   37loPI   PO4  580  17.342  14.905  10.279  0.2794 -0.0785  0.0853
   37loPI   GL1  581  17.395  14.766   9.902  0.1946  0.0649 -0.0716
   37loPI   GL2  582  17.647  14.965   9.812 -0.0631 -0.1827  0.1764
   37loPI   C1A  583  17.194  14.724   9.442 -0.0821  0.1104 -0.0185
   37loPI   C2A  584  17.154  14.948   9.022  0.0961  0.2642  0.2140
   37loPI   C3A  585  16.857  14.974   8.665  0.1869 -0.0409 -0.2008
   37loPI   C4A  586  16.624  14.815   8.290 -0.2371 -0.1041 -0.2383
   37loPI   C5A  587  16.160  14.853   8.126 -0.1562  0.1171  0.0772
   37loPI   C6A  588  15.721  15.012   8.002  0.1506  0.1128 -0.0475
   37loPI   C1B  589  17.635  15.032   9.277 -0.1440  0.1056  0.0351
   37loPI   C2B  590  17.608  15.123   8.871  0.0471 -0.2387 -0.0834
   37loPI   C3B  591  17.465  14.890   8.523  0.0079 -0.0830  0.0061
   37loPI   C4B  592  17.169  14.569   8.415 -0.0645 -0.2861 -0.3589
   38loPI    C1  593   8.967   1.399  10.498 -0.0508 -0.1548  0.2082
   38loPI    C2  594   9.280   1.192  10.636  0.0491 -0.0576  0.1291
   38loPI    C3  595   9.263   1.589  10.688 -0.0627 -0.0630  0.1360
   38loPI   PO4  596   8.723   1.124  10.389 -0.1594  0.2708  0.0427
   38loPI   GL1  597   8.608   1.303   9.954  0.0553 -0.0192  0.0039
   38loPI   GL2  598   8.903   1.444   9.965  0.2270  0.0275  0.1167
   38loPI   C1A  599   8.662   1.376   9.522  0.0610 -0.1479  0.1056
   38loPI   C2A  600   8.739   1.401   9.124  0.1540 -0.2968  0.0244
   38loPI   C3A  601   8.871   1.605   8.718  0.1501 -0.1895 -0.0883
   38loPI   C4A  602   8.812   1.514   8.286  0.1514 -0.1317  0.0232
   38loPI   C5A  603   9.137   1.510   7.962  0.0200 -0.1742 -0.4172
   38loPI   C6A  604   9.554   1.399   7.780 -0.0622  0.0389  0.1134
   38loPI   C1B  605   9.130   1.636   9.647  0.1003 -0.0795 -0.4043
   38loPI   C2B  606   9.207   1.741   9.156  0.0898  0.0558 -0.2153
   38loPI   C3B  607   9.221   1.945   8.800  0.2977  0.2634 -0.2457
   38loPI   C4B  608   9.124   1.909   8.406  0.0537 -0.0514 -0.4024
   39loPI    C1  609   4.696  14.323  10.531 -0.0656  0.0073  0.0258
   39loPI    C2  610   4.759  14.709  10.616  0.1034  0.0158 -0.1318
   39loPI    C3  611   4.919  14.425  10.848 -0.2042  0.0385  0.1142
   39loPI   PO4  612   4.628  14.425  10.257  0.1645  0.2094 -0.1204
   39loPI   GL1  613   4.571  14.238   9.953 -0.2201  0.2885  0.0544
   39loPI   GL2  614   4.572  14.515   9.772 -0.0908 -0.1701  0.0216
   39loPI   C1A  615   4.857  14.151   9.590 -0.1299 -0.1396 -0.2449
   39loPI   C2A  616   4.906  14.213   9.225 -0.1312  0.0868 -0.1120
   39loPI   C3A  617   4.903  14.182   8.834  0.1423  0.4684  0.2956
   39loPI   C4A  618   4.869  13.920   8.315  0.0478  0.1981  0.1210
   39loPI   C5A  619   5.160  13.796   8.072 -0.1142 -0.0917  0.1676
   39loPI   C6A  620   5.426  13.574   7.843 -0.0942 -0.1156  0.4128
   39loPI   C1B  621   4.538  14.699   9.340 -0.3146 -0.2514 -0.3344
   39loPI   C2B  622   4.511  14.880   8.997  0.2873 -0.1259  0.1744
   39loPI   C3B  623   4.669  14.883   8.577  0.0569 -0.1104 -0.0540
   39loPI   C4B  624   4.849  15.140   8.214 -0.0486  0.1155 -0.0667
   40loPI    C1  625  11.182   7.085  10.491 -0.0627  0.1725  0.0062
   40loPI    C2  626  10.825   6.962  10.623 -0.0082 -0.1141 -0.1053
   40loPI    C3  627  11.119   7.040  10.883 -0.1655  0.1767 -0.0097
   40loPI   PO4  628  11.228   6.907  10.224  0.2356 -0.1545 -0.1500
   40loPI   GL1  629  11.504   6.995   9.842  0.1855  0.0125 -0.1173
   40loPI   GL2  630  11.485   6.620   9.803  0.0521  0.0728 -0.3597
   40loPI   C1A  631  11.481   7.392   9.586  0.1450 -0.1335  0.0451
   40loPI   C2A  632  11.563   7.399   9.124 -0.0800 -0.2455 -0.0466
   40loPI   C3A  633  11.614   7.355   8.662  0.1303 -0.0255  0.1782
   40loPI   C4A  634  11.608   7.091   8.403  0.0117 -0.0831 -0.4014
   40loPI   C5A  635  11.370   6.847   8.233  0.1091 -0.3832  0.2155
   40loPI   C6A  636  10.958   6.688   8.296 -0.0635 -0.1714 -0.1020
   40loPI   C1B  637  11.432   6.551   9.361 -0.1330 -0.1313 -0.2808
   40loPI   C2B  638  11.563   6.658   8.949 -0.2427  0.0364 -0.4279
   40loPI   C3B  639  11.577   6.582   8.588  0.0636  0.3007 -0.3479
   40loPI   C4B  640  11.885   6.627   8.309 -0.1197 -0.2994  0.2383
   41loPI    C1  641   4.671   8.328  10.779 -0.0439 -0.0109  0.0527
   41loPI    C2  642   4.518   8.676  10.904 -0.0421 -0.0254  0.0953
   41loPI    C3  643   4.547   8.368  11.157 -0.4478 -0.1947 -0.0548
   41loPI   PO4  644   4.785   8.368  10.567  0.4420 -0.0303  0.0178
   41loPI   GL1  645   4.893   8.100  10.277  0.1802  0.0390 -0.1343
   41loPI   GL2  646   5.107   8.098  10.061 -0.0295  0.0941 -0.1077
   41loPI   C1A  647   4.562   8.097   9.935  0.1319  0.2235 -0.1123
   41loPI   C2A  648   4.443   8.120   9.479  0.3257  0.0335  0.0758
   41loPI   C3A  649   4.334   8.161   9.062 -0.0109  0.2086  0.0145
   41loPI   C4A  650   4.431   7.958   8.695 -0.2877  0.1364  0.2173
   41loPI   C5A  651   4.512   7.908   8.191  0.0176  0.3864 -0.0339
   41loPI   C6A  652   4.283   7.587   7.942 -0.1003  0.0031 -0.1687
   41loPI   C1B  653   4.985   8.081   9.651 -0.0476  0.0716  0.0960
   41loPI   C2B  654   4.890   8.159   9.239  0.4049 -0.0553  0.0214
   41loPI   C3B  655   4.874   8.428   8.886 -0.0893 -0.1771  0.2165
   41loPI   C4B  656   4.670   8.425   8.487  0.0929 -0.0074 -0.0977
   42loPI    C1  657  13.879   8.672  10.619 -0.1959 -0.0502 -0.1640
   42loPI    C2  658  13.596   8.948  10.681 -0.1352  0.0283 -0.2349
   42loPI    C3  659  13.783   8.780  10.992  0.1511  0.4028 -0.1973
   42loPI   PO4  660  13.872   8.690  10.369  0.1265 -0.0974 -0.1784
   42loPI   GL1  661  13.617   8.740  10.103 -0.0292 -0.1316  0.2153
   42loPI   GL2  662  13.289   8.694  10.077 -0.0567  0.2023  0.1332
   42loPI   C1A  663  13.623   8.878   9.648  0.0590  0.0106 -0.0863
   42loPI   C2A  664  13.724   8.836   9.295  0.0254  0.0185  0.1702
   42loPI   C3A  665  13.500   8.853   8.860 -0.2553 -0.2639 -0.1876
   42loPI   C4A  666  13.423   8.721   8.428 -0.3143  0.2249  0.1686
   42loPI   C5A  667  13.560   8.504   8.050  0.1623 -0.0148 -0.0920
   42loPI   C6A  668  13.395   8.035   7.966 -0.0548 -0.1723  0.2700
   42loPI   C1B  669  13.156   8.780   9.685 -0.2297  0.3524 -0.3223
   42loPI   C2B  670  13.165   8.812   9.225 -0.0422 -0.0347  0.2294
   42loPI   C3B  671  13.028   8.599   8.846  0.2137  0.0288 -0.1251
   42loPI   C4B  672  12.970   8.554   8.495  0.0096 -0.0279  0.0941
   43loPI    C1  673   1.187  15.211  10.165 -0.0354  0.0585 -0.0885
   43loPI    C2  674   1.269  15.398  10.509 -0.1363 -0.1291  0.0393
   43loPI    C3  675   1.342  15.007  10.472  0.1894 -0.0448 -0.2674
   43loPI   PO4  676   1.319  15.333   9.896  0.1230 -0.3571  0.0925
   43loPI   GL1  677   1.400  15.593   9.542 -0.2711  0.0049  0.1135
   43loPI   GL2  678   1.077  15.687   9.635  0.0829  0.0019 -0.1097
   43loPI   C1A  679   1.359  15.820   9.214  0.0995  0.0924 -0.0872
   43loPI   C2A  680   1.170  15.801   8.786  0.3037 -0.0836 -0.0500
   43loPI   C3A  681   1.315  15.709   8.309 -0.0603 -0.0501 -0.4658
   43loPI   C4A  682   1.452  15.827   7.894 -0.2063  0.5520  0.1051
   43loPI   C5A  683   1.887  15.657   7.866  0.0341  0.1008  0.1099
   43loPI   C6A  684   2.179  15.589   7.666 -0.2811 -0.3597 -0.0394
   43loPI   C1B  685   0.887  15.534   9.307 -0.0736  0.3356 -0.1431
   43loPI   C2B  686   0.800  15.498   8.862  0.2481  0.4531 -0.0135
   43loPI   C3B  687   0.833  15.620   8.405  0.0674  0.4857  0.2136
   43loPI   C4B  688   0.831  15.452   7.950  0.0312 -0.0942 -0.1783
   44loPI    C1  689  17.105   3.427  10.242  0.0347 -0.0649  0.0686
   44loPI    C2  690  16.817   3.274  10.474  0.0606 -0.0501  0.1107
   44loPI    C3  691  17.201   3.183  10.545  0.0904  0.1705  0.2436
   44loPI   PO4  692  16.987   3.391  10.006 -0.0680 -0.3298  0.1176
   44loPI   GL1  693  16.690   3.320   9.675 -0.0080  0.0856 -0.1695
   44loPI   GL2  694  16.522   3.548   9.727  0.0696  0.0728  0.1115
   44loPI   C1A  695  16.986   3.301   9.317  0.2442 -0.0092 -0.1903
   44loPI   C2A  696  16.962   3.450   8.891 -0.2587 -0.2882  0.2571
   44loPI   C3A  697  17.041   3.824   8.528  0.3056  0.1504  0.0831
   44loPI   C4A  698  16.931   4.184   8.484  0.1709 -0.3704  0.1576
   44loPI   C5A  699  17.106   4.544   8.625 -0.0186  0.2077 -0.0136
   44loPI   C6A  700  17.154   4.958   8.751  0.0969 -0.0356  0.3614
   44loPI   C1B  701  16.433   3.491   9.276  0.0475  0.1575 -0.0432
   44loPI   C2B  702  16.498   3.574   8.908  0.0879  0.0498  0.2275
   44loPI   C3B  703  16.485   3.463   8.504  0.2827 -0.1383 -0.1668
   44loPI   C4B  704  16.765   3.628   8.158  0.0029  0.0507 -0.2025
   45loPI    C1  705   5.210   7.551  10.406  0.1988 -0.1153 -0.1174
   45loPI    C2  706   5.161   7.888  10.615 -0.0918 -0.0575 -0.2732
   45loPI    C3  707   5.278   7.553  10.800  0.0591  0.0920 -0.0931
   45loPI   PO4  708   5.027   7.620  10.235  0.1387  0.1816  0.0004
   45loPI   GL1  709   4.909   7.384   9.895  0.3008  0.0701 -0.3410
   45loPI   GL2  710   5.239   7.437   9.754 -0.0789 -0.2293 -0.0176
   45loPI   C1A  711   4.755   7.702   9.519  0.0941 -0.1100 -0.2782
   45loPI   C2A  712   4.764   7.623   9.108  0.0858  0.0569  0.0755
   45loPI   C3A  713   4.688   7.518   8.733  0.2692  0.2100 -0.2396
   45loPI   C4A  714   4.662   7.453   8.401 -0.0960 -0.0491  0.1654
   45loPI   C5A  715   4.845   7.536   7.947  0.2959 -0.1479  0.0092
   45loPI   C6A  716   5.099   7.283   7.674  0.0073 -0.2154  0.1686
   45loPI   C1B  717   5.045   7.245   9.367 -0.0097  0.2117 -0.0353
   45loPI   C2B  718   5.087   7.207   8.905 -0.1297  0.0556 -0.1179
   45loPI   C3B  719   5.157   7.549   8.487 -0.0460  0.0020 -0.0782
   45loPI   C4B  720   5.329   7.544   8.117  0.2587 -0.1535 -0.2016
   46loPI    C1  721   5.665   6.164  10.642 -0.1582 -0.0726  0.0297
   46loPI    C2  722   5.606   5.973  10.989 -0.4446  0.0972  0.0777
   46loPI    C3  723   5.626   6.373  10.981 -0.0995  0.0804 -0.0570
   46loPI   PO4  724   5.483   5.969  10.387  0.0621  0.1610  0.1544
   46loPI   GL1  725   5.316   5.947   9.987 -0.1788  0.2644 -0.2327
   46loPI   GL2  726   5.570   5.661   9.954 -0.0958 -0.2211  0.0340
   46loPI   C1A  727   5.154   5.861   9.544  0.0129  0.0536 -0.0129
   46loPI   C2A  728   5.331   5.858   9.133  0.0760  0.1802 -0.0206
   46loPI   C3A  729   5.428   5.761   8.716  0.1362 -0.0752  0.1578
   46loPI   C4A  730   5.423   5.591   8.354 -0.2300 -0.0130 -0.0226
   46loPI   C5A  731   5.377   5.232   8.066 -0.4326  0.1021 -0.1041
   46loPI   C6A  732   5.530   4.813   8.157  0.2182  0.3747 -0.1943
   46loPI   C1B  733   5.673   5.655   9.557  0.0813  0.0165  0.0591
   46loPI   C2B  734   5.838   5.649   9.142 -0.0288 -0.1634 -0.2442
   46loPI   C3B  735   5.764   5.426   8.783  0.1005  0.1871  0.0428
   46loPI   C4B  736   5.747   5.248   8.374 -0.0499 -0.2106 -0.0190
   47loPI    C1  737  13.502   7.043  10.693  0.0076  0.1833  0.0875
   47loPI    C2  738  13.366   7.060  11.069 -0.0815 -0.2658  0.0816
   47loPI    C3  739  13.283   6.743  10.840 -0.1602  0.0716 -0.3725
   47loPI   PO4  740  13.377   7.283  10.533  0.1751 -0.1303 -0.1768
   47loPI   GL1  741  13.092   7.446  10.312  0.2104  0.0936 -0.2067
   47loPI   GL2  742  12.857   7.359  10.112 -0.3089 -0.1091  0.1730
   47loPI   C1A  743  13.015   7.799   9.964  0.0165  0.2274  0.0770
   47loPI   C2A  744  12.930   7.918   9.602  0.1009 -0.1532 -0.1442
   47loPI   C3A  745  13.058   7.881   9.149  0.1395 -0.2869  0.0377
   47loPI   C4A  746  12.919   8.114   8.674  0.0233 -0.2132  0.2542
   47loPI   C5A  747  12.554   8.154   8.492  0.0613  0.0972  0.0147
   47loPI   C6A  748  12.234   8.301   8.418 -0.0586  0.2926  0.2219
   47loPI   C1B  749  13.269   7.315   9.837  0.0044  0.0149  0.2331
   47loPI   C2B  750  13.294   7.176   9.328  0.1394 -0.0762 -0.1860
   47loPI   C3B  751  13.429   7.288   9.006 -0.1950  0.1717  0.0899
   47loPI   C4B  752  13.643   7.217   8.578 -0.1840  0.1966  0.0176
   48loPI    C1  753  10.475  17.681  10.527 -0.0735 -0.0518 -0.0702
   48loPI    C2  754  10.670  17.394  10.726 -0.2257 -0.1775 -0.0998
   48loPI    C3  755  10.324  17.537  10.869 -0.2096 -0.0920 -0.1461
   48loPI   PO4  756  10.728  17.703  10.367 -0.0414  0.0508  0.0367
   48loPI   GL1  757  10.821  17.613   9.896 -0.1300 -0.0855  0.0076
   48loPI   GL2  758  10.961  17.956   9.908 -0.1185  0.2570  0.1236
   48loPI   C1A  759  10.619  17.669   9.503 -0.2082  0.0355  0.1694
   48loPI   C2A  760  10.571  17.493   9.065 -0.0989 -0.0347  0.0889
   48loPI   C3A  761  10.398  17.442   8.690  0.1412  0.1977 -0.0292
   48loPI   C4A  762  10.008  17.549   8.372  0.0825  0.0404  0.0300
   48loPI   C5A  763   9.890  17.692   8.064 -0.3009  0.0907 -0.0795
   48loPI   C6A  764   9.534  17.582   7.773 -0.0732 -0.1217  0.1170
   48loPI   C1B  765  10.952  18.215   9.525 -0.2218 -0.2986 -0.1480
   48loPI   C2B  766  11.006  18.299   9.098 -0.0957  0.1499 -0.0015
   48loPI   C3B  767  10.942  18.301   8.693 -0.1375 -0.0221  0.3506
   48loPI   C4B  768  11.079  18.407   8.223  0.1410  0.0402  0.0728
   49loPI    C1  769  13.788  18.021  10.375  0.2479 -0.0254  0.0112
   49loPI    C2  770  13.744  18.238  10.707 -0.0891  0.0105 -0.0537
   49loPI    C3  771  13.780  17.841  10.732 -0.3706 -0.0126  0.0127
   49loPI   PO4  772  13.948  18.109  10.217  0.4312 -0.3839  0.2691
   49loPI   GL1  773  13.871  18.108   9.749  0.1724  0.1858 -0.0828
   49loPI   GL2  774  13.776  17.784   9.618  0.2839 -0.2515  0.0080
   49loPI   C1A  775  14.057  18.294   9.456 -0.0179 -0.0249  0.1497
   49loPI   C2A  776  14.187  18.226   9.012  0.1347  0.2066  0.0332
   49loPI   C3A  777  14.178  18.244   8.515 -0.0108  0.2102  0.1078
   49loPI   C4A  778  14.215  18.043   8.095 -0.0203 -0.2991  0.1399
   49loPI   C5A  779  14.399  18.343   7.782 -0.3071 -0.1260  0.1811
   49loPI   C6A  780  14.751  18.545   7.739  0.1131 -0.3869 -0.1149
   49loPI   C1B  781  13.878  17.496   9.413 -0.3920 -0.1964 -0.2530
   49loPI   C2B  782  13.864  17.296   9.000 -0.1322 -0.0861  0.0008
   49loPI   C3B  783  14.091  17.274   8.620  0.0966 -0.3416 -0.0376
   49loPI   C4B  784  14.350  17.266   8.243 -0.2108  0.0477  0.0317
   50loPI    C1  785   5.802   3.405  10.435 -0.0920  0.1796  0.2697
   50loPI    C2  786   6.049   3.198  10.672 -0.0369 -0.0087  0.0515
   50loPI    C3  787   5.750   3.011  10.483 -0.1566  0.1627  0.0692
   50loPI   PO4  788   5.696   3.665  10.566 -0.0990  0.3495 -0.1082
   50loPI   GL1  789   5.477   3.870  10.189  0.0831  0.1736 -0.2598
   50loPI   GL2  790   5.787   3.694  10.006 -0.1472 -0.1119  0.4287
   50loPI   C1A  791   5.405   3.911   9.732 -0.3143 -0.0666 -0.0636
   50loPI   C2A  792   5.446   3.778   9.193  0.4680 -0.0207  0.0014
   50loPI   C3A  793   5.524   3.533   8.856  0.2233 -0.1365  0.1363
   50loPI   C4A  794   5.393   3.613   8.503 -0.2131 -0.0578 -0.1564
   50loPI   C5A  795   5.069   3.562   8.218  0.0739 -0.0479  0.1423
   50loPI   C6A  796   4.734   3.434   8.015  0.2106 -0.3803  0.1766
   50loPI   C1B  797   5.709   3.526   9.537  0.1511 -0.3455  0.0446
   50loPI   C2B  798   5.901   3.388   9.192 -0.2131 -0.1746  0.0222
   50loPI   C3B  799   6.151   3.448   8.837 -0.0233  0.0008 -0.0550
   50loPI   C4B  800   6.275   3.566   8.311 -0.0919  0.2759 -0.0968
   51loPI    C1  801  15.073  15.310  10.334 -0.0798 -0.5205  0.1847
   51loPI    C2  802  15.219  15.208   9.976 -0.1503  0.1203 -0.0403
   51loPI    C3  803  14.835  15.139  10.061 -0.1872  0.1608 -0.1708
   51loPI   PO4  804  15.080  15.580  10.347 -0.0322  0.1560 -0.2176
   51loPI   GL1  805  14.980  15.658   9.940  0.0153 -0.2010 -0.0467
   51loPI   GL2  806  15.027  15.903   9.689 -0.1785  0.1114 -0.1237
   51loPI   C1A  807  14.639  15.646   9.616 -0.1995  0.0588  0.1340
   51loPI   C2A  808  14.598  15.345   9.161  0.1194 -0.2575  0.0564
   51loPI   C3A  809  14.633  15.351   8.742  0.3191  0.2507 -0.2206
   51loPI   C4A  810  14.785  15.225   8.390  0.1052  0.1284 -0.4638
   51loPI   C5A  811  15.034  14.821   8.250  0.2130 -0.1313 -0.0021
   51loPI   C6A  812  15.337  14.609   8.027  0.1417  0.3067 -0.3221
   51loPI   C1B  813  14.852  15.856   9.197 -0.2884 -0.2011  0.0888
   51loPI   C2B  814  14.914  15.793   8.844 -0.2845  0.1330  0.0800
   51loPI   C3B  815  15.121  15.968   8.472  0.0547  0.0108  0.2114
   51loPI   C4B  816  15.118  16.053   8.047 -0.4507 -0.4390 -0.1596
   52loPI    C1  817  13.515  12.137  10.543  0.2089  0.1753  0.2180
   52loPI    C2  818  13.675  11.782  10.634  0.0580 -0.0475 -0.3445
   52loPI    C3  819  13.899  12.064  10.462  0.0256 -0.0985 -0.4709
   52loPI   PO4  820  13.249  12.091  10.490  0.0624  0.0280  0.2294
   52loPI   GL1  821  12.954  12.252  10.102  0.0429 -0.1402 -0.1221
   52loPI   GL2  822  13.273  12.313  10.041 -0.1968  0.0609 -0.0058
   52loPI   C1A  823  12.705  12.303   9.827  0.2954 -0.2014  0.0361
   52loPI   C2A  824  12.757  12.184   9.402  0.2157  0.0054  0.0766
   52loPI   C3A  825  12.832  11.734   9.227  0.2475 -0.3136  0.0591
   52loPI   C4A  826  12.889  11.530   8.840 -0.1201  0.0067 -0.0791
   52loPI   C5A  827  12.933  11.306   8.400 -0.3395  0.1641 -0.0372
   52loPI   C6A  828  12.817  10.973   8.082  0.1573 -0.0622 -0.1189
   52loPI   C1B  829  13.483  12.514   9.547 -0.0391  0.0236 -0.1983
   52loPI   C2B  830  13.411  12.593   9.107  0.3371  0.1078  0.2917
   52loPI   C3B  831  13.363  12.536   8.690 -0.1678 -0.0825  0.0397
   52loPI   C4B  832  13.316  12.496   8.196 -0.1296  0.3612 -0.2488
   53loPI    C1  833   3.054   2.186  10.668 -0.5294 -0.0688 -0.0440
   53loPI    C2  834   3.126   1.884  10.921 -0.0758  0.0108 -0.0699
   53loPI    C3  835   3.059   2.252  11.063 -0.1477 -0.0079 -0.0551
   53loPI   PO4  836   3.312   2.154  10.480  0.0485 -0.1186 -0.0294
   53loPI   GL1  837   3.432   2.041  10.159  0.2955 -0.0483  0.2868
   53loPI   GL2  838   3.650   1.964   9.990  0.1087  0.1503 -0.1145
   53loPI   C1A  839   3.288   2.445   9.814  0.4743 -0.0078 -0.0826
   53loPI   C2A  840   3.410   2.657   9.475 -0.0700  0.1425  0.0342
   53loPI   C3A  841   3.281   2.681   9.160  0.4526 -0.0396  0.2291
   53loPI   C4A  842   3.025   2.764   8.750 -0.1743 -0.1367 -0.0469
   53loPI   C5A  843   3.082   3.062   8.420 -0.1820  0.0169  0.2366
   53loPI   C6A  844   2.817   3.411   8.203 -0.0056 -0.0717  0.2558
   53loPI   C1B  845   3.753   2.304   9.713 -0.0027  0.2514 -0.1133
   53loPI   C2B  846   3.726   2.292   9.269  0.1403 -0.1000 -0.1525
   53loPI   C3B  847   3.790   2.499   8.945 -0.1637  0.3414 -0.0167
   53loPI   C4B  848   3.971   2.538   8.542  0.0585  0.2829  0.0373
   54loPI    C1  849  13.271   4.812  10.469 -0.1897 -0.0309  0.1526
   54loPI    C2  850  13.404   5.091  10.722 -0.0696  0.0254  0.0285
   54loPI    C3  851  13.553   4.720  10.738 -0.1227  0.0067  0.0955
   54loPI   PO4  852  13.269   4.958  10.254  0.2046  0.1382 -0.2258
   54loPI   GL1  853  13.069   5.107   9.910 -0.0615 -0.2644  0.0246
   54loPI   GL2  854  13.032   5.407   9.751 -0.0464 -0.0341  0.1317
   54loPI   C1A  855  13.053   4.683   9.688 -0.3696  0.0791 -0.1052
   54loPI   C2A  856  12.851   4.404   9.321 -0.0623  0.0205  0.0413
   54loPI   C3A  857  12.690   4.436   8.959 -0.1301 -0.1404  0.1270
   54loPI   C4A  858  12.671   4.717   8.624  0.1495 -0.1455  0.1494
   54loPI   C5A  859  12.836   4.696   8.215 -0.3501  0.2532  0.1395
   54loPI   C6A  860  13.168   4.521   8.085 -0.1105 -0.1069  0.0335
   54loPI   C1B  861  13.336   5.050   9.484 -0.0982 -0.3049 -0.1363
   54loPI   C2B  862  13.305   4.645   9.299 -0.4659 -0.1289 -0.0937
   54loPI   C3B  863  13.557   4.528   8.915 -0.0481  0.2844 -0.0471
   54loPI   C4B  864  13.558   4.291   8.554 -0.0493  0.1545 -0.2111
   55loPI    C1  865  13.690  17.485  10.396  0.0272  0.1532  0.1890
   55loPI    C2  866  13.422  17.243  10.570  0.1051  0.0113  0.1133
   55loPI    C3  867  13.780  17.299  10.739  0.1061  0.0334  0.1038
   55loPI   PO4  868  13.565  17.333  10.082 -0.0751  0.1467  0.1042
   55loPI   GL1  869  13.421  17.295   9.743 -0.0957  0.0665  0.2407
   55loPI   GL2  870  13.242  17.547   9.703 -0.0842  0.0412  0.2309
   55loPI   C1A  871  13.488  17.141   9.344  0.0400  0.1170 -0.0763
   55loPI   C2A  872  13.414  17.089   8.892 -0.0939 -0.1943  0.2368
   55loPI   C3A  873  13.686  17.029   8.554  0.4431 -0.1675 -0.1803
   55loPI   C4A  874  13.796  16.695   8.260  0.3338  0.1161  0.2325
   55loPI   C5A  875  13.786  16.575   7.792  0.3357  0.1706  0.0656
   55loPI   C6A  876  13.949  16.763   7.458  0.1442  0.1659 -0.0392
   55loPI   C1B  877  13.366  17.613   9.221 -0.0993  0.2726  0.0454
   55loPI   C2B  878  13.529  17.506   8.739 -0.0734  0.0739  0.1649
   55loPI   C3B  879  13.508  17.624   8.330 -0.0015 -0.2707 -0.0413
   55loPI   C4B  880  13.316  17.947   8.190  0.2233  0.1487  0.1285
   56loPI    C1  881  11.083   7.606  10.671 -0.1467 -0.0993  0.0053
   56loPI    C2  882  10.812   7.432  10.434 -0.3826 -0.0946  0.2654
   56loPI    C3  883  10.762   7.428  10.830 -0.0210 -0.0554  0.3150
   56loPI   PO4  884  11.294   7.563  10.574 -0.1140 -0.3583 -0.2814
   56loPI   GL1  885  11.511   7.771  10.242  0.3424 -0.1685 -0.0996
   56loPI   GL2  886  11.757   7.658  10.416 -0.0758  0.1930 -0.1201
   56loPI   C1A  887  11.395   7.891   9.862 -0.0619 -0.0403 -0.0879
   56loPI   C2A  888  11.197   7.795   9.502  0.0023 -0.4020  0.0152
   56loPI   C3A  889  11.062   7.695   9.070  0.1734 -0.0281 -0.1252
   56loPI   C4A  890  11.229   7.655   8.693 -0.1945 -0.0017 -0.0563
   56loPI   C5A  891  11.411   7.562   8.275  0.0150  0.1007 -0.0112
   56loPI   C6A  892  11.603   7.847   8.109  0.1541 -0.0032 -0.0398
   56loPI   C1B  893  11.795   7.489   9.990  0.1893 -0.0350  0.1092
   56loPI   C2B  894  11.977   7.371   9.579  0.4707  0.0627  0.0013
   56loPI   C3B  895  12.026   7.593   9.182  0.1481  0.1070 -0.2192
   56loPI   C4B  896  12.052   7.531   8.804  0.1590 -0.1785 -0.0823
   57loPI    C1  897   3.707   8.505  10.571  0.1818  0.0852  0.1305
   57loPI    C2  898   3.417   8.608  10.316  0.1132 -0.1819  0.0979
   57loPI    C3  899   3.568   8.880  10.566 -0.2674 -0.0740  0.2173
   57loPI   PO4  900   3.816   8.366  10.476 -0.0751  0.1328 -0.2133
   57loPI   GL1  901   3.935   8.327  10.128 -0.1963  0.3694 -0.0985
   57loPI   GL2  902   4.060   8.363   9.904 -0.0642 -0.2690  0.0792
   57loPI   C1A  903   3.573   8.499   9.863 -0.0338  0.0643  0.1604
   57loPI   C2A  904   3.531   8.429   9.452  0.0696 -0.1226 -0.2181
   57loPI   C3A  905   3.492   8.501   9.043 -0.2373  0.0037  0.0546
   57loPI   C4A  906   3.686   8.427   8.574 -0.5034 -0.1534  0.2896
   57loPI   C5A  907   3.543   8.573   8.104 -0.2076 -0.3541  0.1909
   57loPI   C6A  908   3.319   8.360   7.772 -0.0206  0.1443 -0.0621
   57loPI   C1B  909   4.028   8.424   9.456  0.2248 -0.0945 -0.1570
   57loPI   C2B  910   3.955   8.412   9.026 -0.2324 -0.1114  0.0090
   57loPI   C3B  911   4.150   8.376   8.592 -0.0410 -0.2565  0.2715
   57loPI   C4B  912   4.098   8.176   8.208 -0.0494 -0.2080 -0.0143
   58loPI    C1  913   3.755  10.557  10.276  0.1306  0.1598 -0.0753
   58loPI    C2  914   3.662  10.934  10.371 -0.1570  0.0986 -0.1037
   58loPI    C3  915   3.592  10.639  10.633  0.2188  0.0822 -0.0166
   58loPI   PO4  916   3.747  10.410   9.949 -0.1301  0.0072  0.0273
   58loPI   GL1  917   3.529  10.261   9.733  0.2512 -0.0109 -0.1553
   58loPI   GL2  918   3.336  10.108   9.841 -0.1180  0.0657 -0.2670
   58loPI   C1A  919   3.213  10.311   9.455 -0.2411  0.2105 -0.1423
   58loPI   C2A  920   2.829  10.635   9.300 -0.1397 -0.2217  0.1645
   58loPI   C3A  921   2.663  10.831   8.998 -0.0619 -0.4070  0.1358
   58loPI   C4A  922   2.301  10.805   8.629 -0.0364  0.1936  0.2079
   58loPI   C5A  923   2.047  10.370   8.553  0.0011 -0.2717 -0.2049
   58loPI   C6A  924   2.033   9.954   8.543 -0.1155 -0.4624 -0.1329
   58loPI   C1B  925   3.541   9.831   9.479  0.0820 -0.1302  0.3073
   58loPI   C2B  926   3.456   9.443   9.274  0.1404  0.2944  0.0703
   58loPI   C3B  927   3.572   9.272   8.889  0.0412  0.1001  0.1924
   58loPI   C4B  928   3.471   8.944   8.603  0.1366  0.0636  0.2596
   59loPI    C1  929   9.746   9.401  10.471  0.0924 -0.1313  0.0792
   59loPI    C2  930   9.673   9.773  10.598  0.1059 -0.0905 -0.0316
   59loPI    C3  931   9.472   9.625  10.285  0.0682 -0.1927  0.0406
   59loPI   PO4  932  10.003   9.326  10.358 -0.0302 -0.1262  0.1861
   59loPI   GL1  933  10.211   9.277   9.982  0.2695 -0.1320 -0.2318
   59loPI   GL2  934  10.448   9.202   9.758 -0.1490  0.3959 -0.2664
   59loPI   C1A  935   9.947   9.217   9.634  0.0367  0.5298  0.0112
   59loPI   C2A  936   9.970   9.211   9.185 -0.0888  0.0017  0.3079
   59loPI   C3A  937   9.937   9.304   8.796 -0.4104 -0.0202  0.0697
   59loPI   C4A  938  10.063   9.214   8.345  0.2259  0.2527  0.3418
   59loPI   C5A  939  10.014   8.839   8.128  0.0877  0.1432  0.0291
   59loPI   C6A  940   9.921   8.495   7.897  0.1711 -0.0904  0.3419
   59loPI   C1B  941  10.447   9.409   9.421  0.2568 -0.3047  0.4568
   59loPI   C2B  942  10.423   9.264   9.010  0.1047 -0.2351  0.1091
   59loPI   C3B  943  10.509   9.363   8.536 -0.1493  0.4157 -0.0290
   59loPI   C4B  944  10.446   9.587   8.182 -0.1372  0.0928  0.0947
   60loPI    C1  945   7.914  13.657  10.081  0.1366 -0.1478 -0.0622
   60loPI    C2  946   8.251  13.639  10.295  0.0950 -0.0635  0.0109
   60loPI    C3  947   8.263  13.763   9.915  0.1392 -0.0104  0.0293
   60loPI   PO4  948   7.764  13.418  10.155  0.1149  0.0868  0.0377
   60loPI   GL1  949   7.545  13.393   9.782 -0.0036  0.3365  0.3758
   60loPI   GL2  950   7.318  13.543   9.600 -0.0756 -0.1013 -0.0745
   60loPI   C1A  951   7.706  13.401   9.326  0.2140 -0.1788 -0.0276
   60loPI   C2A  952   7.552  13.327   8.933  0.0537  0.2820 -0.0397
   60loPI   C3A  953   7.347  13.047   8.759 -0.0544  0.2453  0.0982
   60loPI   C4A  954   7.261  12.667   8.693  0.0722  0.3520  0.0308
   60loPI   C5A  955   7.179  12.352   8.551 -0.3036  0.0577 -0.0744
   60loPI   C6A  956   6.946  12.081   8.747 -0.0799  0.0484 -0.0648
   60loPI   C1B  957   7.258  13.133   9.400  0.0075 -0.0401 -0.3359
   60loPI   C2B  958   7.478  12.868   9.195  0.1344  0.2102 -0.0055
   60loPI   C3B  959   7.764  12.737   8.837 -0.3343 -0.3829  0.1209
   60loPI   C4B  960   7.757  12.772   8.440 -0.0534  0.1908  0.0265
   61loPI    C1  961  14.596   6.500  10.560  0.0719  0.0310 -0.1782
   61loPI    C2  962  14.680   6.715  10.887  0.0955  0.0236 -0.1795
   61loPI    C3  963  14.733   6.318  10.889  0.1401  0.0293 -0.2076
   61loPI   PO4  964  14.387   6.608  10.433  0.0599 -0.2437 -0.1645
   61loPI   GL1  965  14.188   6.843  10.196  0.0560  0.0528 -0.2428
   61loPI   GL2  966  13.883   6.607  10.077  0.0576  0.1989 -0.0289
   61loPI   C1A  967  14.209   6.989   9.747  0.1143 -0.0858  0.0834
   61loPI   C2A  968  14.376   6.906   9.314  0.2171 -0.1027 -0.0462
   61loPI   C3A  969  14.335   6.807   8.885  0.0766 -0.2124  0.0300
   61loPI   C4A  970  14.555   6.701   8.398  0.0270  0.1325 -0.1990
   61loPI   C5A  971  14.857   6.842   8.166  0.1993  0.0673 -0.1077
   61loPI   C6A  972  15.267   6.747   8.026 -0.1594 -0.0275 -0.2621
   61loPI   C1B  973  13.972   6.464   9.632 -0.2719 -0.0766  0.3270
   61loPI   C2B  974  14.070   6.527   9.210  0.1901  0.1339 -0.2396
   61loPI   C3B  975  13.941   6.327   8.829 -0.0815 -0.0048  0.2058
   61loPI   C4B  976  14.065   6.358   8.341 -0.1169 -0.2792 -0.1925
   62loPI    C1  977   8.547   3.208  10.569 -0.1043 -0.2495 -0.0575
   62loPI    C2  978   8.768   2.893  10.680  0.2347 -0.0177 -0.0585
   62loPI    C3  979   8.666   3.171  10.949 -0.3237 -0.2742  0.0102
   62loPI   PO4  980   8.637   3.292  10.268 -0.1492 -0.1815 -0.0851
   62loPI   GL1  981   8.518   3.143   9.960  0.1396  0.0375 -0.4830
   62loPI   GL2  982   8.676   3.493   9.815  0.2487 -0.1757 -0.3000
   62loPI   C1A  983   8.155   3.111   9.786 -0.0656 -0.1003  0.0940
   62loPI   C2A  984   7.980   3.191   9.368 -0.0424  0.2530  0.3090
   62loPI   C3A  985   7.811   3.373   9.088 -0.0148 -0.1749 -0.2363
   62loPI   C4A  986   7.765   3.637   8.692 -0.0786 -0.0203 -0.0236
   62loPI   C5A  987   7.994   3.848   8.350 -0.0426 -0.2424 -0.1523
   62loPI   C6A  988   7.999   4.178   8.099  0.0432 -0.0930 -0.0839
   62loPI   C1B  989   8.730   3.346   9.390  0.3801 -0.0102  0.1748
   62loPI   C2B  990   8.922   3.425   8.920  0.0187  0.2024  0.0808
   62loPI   C3B  991   9.054   3.609   8.683 -0.5100  0.0079  0.0755
   62loPI   C4B  992   9.115   3.658   8.182 -0.0759 -0.2751  0.0789
   63loPI    C1  993  13.907  14.190  10.436 -0.0425 -0.0141  0.0993
   63loPI    C2  994  13.894  14.355  10.800  0.0452 -0.0426  0.1155
   63loPI    C3  995  13.752  13.985  10.742  0.1576 -0.0915  0.1502
   63loPI   PO4  996  13.715  14.343  10.223 -0.3022 -0.1844  0.1596
   63loPI   GL1  997  13.636  14.397   9.867 -0.2566  0.1255 -0.1585
   63loPI   GL2  998  13.528  14.629   9.798  0.0731 -0.1523  0.1611
   63loPI   C1A  999  13.640  14.305   9.420  0.0025 -0.1615  0.0030
   63loPI   C2A 1000  13.623  14.339   8.986 -0.2696  0.0294 -0.4163
   63loPI   C3A 1001  13.670  14.254   8.500 -0.0093  0.0176  0.0987
   63loPI   C4A 1002  13.508  14.340   8.195  0.0963 -0.1344  0.0079
   63loPI   C5A 1003  13.508  14.499   7.837  0.1290  0.1068  0.0489
   63loPI   C6A 1004  13.441  14.592   7.368  0.0278 -0.2518 -0.1041
   63loPI   C1B 1005  13.639  14.793   9.442 -0.1433 -0.0427 -0.0062
   63loPI   C2B 1006  13.735  14.889   8.933  0.0403 -0.0486 -0.1232
   63loPI   C3B 1007  13.688  15.251   8.558  0.0691  0.1094  0.1669
   63loPI   C4B 1008  13.681  15.466   8.148  0.1436 -0.1121 -0.0243
   64loPI    C1 1009   1.721   2.230  10.661  0.0104  0.3040  0.0720
   64loPI    C2 1010   1.380   2.284  10.862 -0.1338  0.3600 -0.1840
   64loPI    C3 1011   1.726   2.260  11.060 -0.3222 -0.0646  0.1102
   64loPI   PO4 1012   1.678   2.364  10.469  0.1252 -0.1585  0.0692
   64loPI   GL1 1013   1.883   2.554   9.983  0.0711 -0.1317 -0.4788
   64loPI   GL2 1014   2.121   2.693  10.022  0.0578 -0.0136 -0.3355
   64loPI   C1A 1015   1.944   2.263   9.727  0.1328  0.1696 -0.2032
   64loPI   C2A 1016   1.789   2.189   9.232 -0.0062 -0.1299  0.1482
   64loPI   C3A 1017   1.338   2.077   9.084  0.0775 -0.0176 -0.0354
   64loPI   C4A 1018   1.130   2.255   8.647  0.0234 -0.0350 -0.2709
   64loPI   C5A 1019   0.812   2.310   8.290  0.1621  0.3509 -0.1226
   64loPI   C6A 1020   0.597   2.145   7.964  0.1244 -0.0507 -0.1615
   64loPI   C1B 1021   2.022   3.059   9.753 -0.2234  0.0188 -0.1228
   64loPI   C2B 1022   1.910   3.337   9.500 -0.1127  0.2990 -0.3733
   64loPI   C3B 1023   1.863   3.736   9.513 -0.1951 -0.1490 -0.0668
   64loPI   C4B 1024   1.724   4.132   9.434 -0.0086 -0.0345  0.0479
   65loPI    C1 1025   7.899   5.023  10.418  0.0741  0.1829 -0.0234
   65loPI    C2 1026   7.995   5.115  10.795 -0.0707  0.0982  0.0349
   65loPI    C3 1027   7.611   5.104  10.684 -0.0292  0.1064 -0.1112
   65loPI   PO4 1028   8.186   5.052  10.345 -0.1959 -0.0582 -0.0044
   65loPI   GL1 1029   8.399   5.183   9.995 -0.1411 -0.2023 -0.1933
   65loPI   GL2 1030   8.204   4.960   9.815  0.0427 -0.0495  0.4748
   65loPI   C1A 1031   8.641   5.524   9.777 -0.0283 -0.0206 -0.0709
   65loPI   C2A 1032   8.820   5.541   9.354  0.1233 -0.1730  0.0820
   65loPI   C3A 1033   8.796   5.652   8.895 -0.4134  0.1381 -0.0061
   65loPI   C4A 1034   8.695   5.460   8.521  0.1376 -0.1972 -0.0679
   65loPI   C5A 1035   8.505   5.272   8.148 -0.0460 -0.1687 -0.0710
   65loPI   C6A 1036   8.150   5.120   7.782  0.0638 -0.0111  0.0354
   65loPI   C1B 1037   8.367   5.140   9.394 -0.0079 -0.1211  0.3017
   65loPI   C2B 1038   8.647   5.143   9.041 -0.1069  0.0620 -0.0575
   65loPI   C3B 1039   8.945   5.004   8.729 -0.0452 -0.0825 -0.1280
   65loPI   C4B 1040   9.224   4.903   8.409  0.3153 -0.1564 -0.0520
   66loPI    C1 1041   8.260   8.714  10.679  0.0332 -0.1597 -0.1049
   66loPI    C2 1042   8.620   8.825  10.546 -0.0196  0.1100 -0.0286
   66loPI    C3 1043   8.590   8.573  10.855  0.1022 -0.0425 -0.1398
   66loPI   PO4 1044   8.179   8.580  10.465  0.0740  0.3106 -0.0512
   66loPI   GL1 1045   8.115   8.542  10.105  0.1262 -0.2311 -0.1208
   66loPI   GL2 1046   8.182   8.336   9.817  0.2385  0.1823  0.1859
   66loPI   C1A 1047   8.015   8.879   9.873  0.0456  0.0649 -0.1391
   66loPI   C2A 1048   8.008   8.763   9.467  0.1720 -0.0339 -0.0005
   66loPI   C3A 1049   7.822   8.705   8.995  0.1345  0.0329 -0.0722
   66loPI   C4A 1050   7.651   8.754   8.572 -0.0555 -0.0035 -0.1161
   66loPI   C5A 1051   7.296   8.681   8.305  0.0325 -0.1249 -0.3714
   66loPI   C6A 1052   6.859   8.768   8.353  0.0872 -0.0767 -0.1599
   66loPI   C1B 1053   8.236   8.282   9.355 -0.1029  0.0620 -0.2133
   66loPI   C2B 1054   8.212   7.921   9.068  0.0239  0.0570  0.1701
   66loPI   C3B 1055   8.121   7.731   8.731 -0.1667  0.1580 -0.3440
   66loPI   C4B 1056   8.173   7.568   8.369 -0.2256 -0.1239 -0.0094
   67loPI    C1 1057  16.203   6.069  10.782 -0.0954  0.0628 -0.1243
   67loPI    C2 1058  15.873   6.294  10.813 -0.1423 -0.0187 -0.0261
   67loPI    C3 1059  15.854   5.900  10.880 -0.0220 -0.0217 -0.0060
   67loPI   PO4 1060  16.387   6.143  10.526 -0.1238  0.0933  0.1653
   67loPI   GL1 1061  16.471   6.019  10.114 -0.1093  0.1137  0.0229
   67loPI   GL2 1062  16.697   6.204  10.050  0.0380 -0.1025 -0.0051
   67loPI   C1A 1063  16.138   6.118   9.828 -0.0100 -0.3268 -0.2570
   67loPI   C2A 1064  16.064   6.107   9.508  0.2275  0.1096  0.0314
   67loPI   C3A 1065  16.082   6.178   9.082 -0.1748 -0.1331  0.1278
   67loPI   C4A 1066  15.954   6.313   8.634  0.1678  0.1362  0.1298
   67loPI   C5A 1067  15.898   6.099   8.319  0.0218 -0.2868 -0.0414
   67loPI   C6A 1068  15.797   5.994   7.893  0.2264  0.0323  0.1093
   67loPI   C1B 1069  16.665   6.173   9.616 -0.2231 -0.1017 -0.1863
   67loPI   C2B 1070  16.578   6.215   9.209  0.0220  0.0625 -0.0465
   67loPI   C3B 1071  16.717   6.451   8.988 -0.2581  0.0479  0.0261
   67loPI   C4B 1072  16.773   6.493   8.517 -0.1807 -0.0760 -0.1446
   68loPI    C1 1073  11.256  16.729  10.169  0.1562 -0.0534 -0.2174
   68loPI    C2 1074  11.132  16.580  10.519  0.2232  0.2758 -0.0503
   68loPI    C3 1075  11.256  16.334  10.230 -0.1283 -0.0176  0.0412
   68loPI   PO4 1076  11.098  16.935  10.175 -0.1313  0.0126  0.3210
   68loPI   GL1 1077  10.897  17.034   9.838  0.0490 -0.0892  0.1762
   68loPI   GL2 1078  10.762  16.803   9.811 -0.2872 -0.0496  0.0124
   68loPI   C1A 1079  10.894  17.142   9.424 -0.0296 -0.2480  0.0351
   68loPI   C2A 1080  10.971  17.193   9.043 -0.3205 -0.1593 -0.1047
   68loPI   C3A 1081  10.888  17.409   8.620 -0.1422 -0.0618  0.0985
   68loPI   C4A 1082  10.647  17.309   8.261  0.2719 -0.1164 -0.0639
   68loPI   C5A 1083  10.379  17.419   8.058 -0.2904  0.0458  0.0065
   68loPI   C6A 1084  10.381  17.891   7.966  0.0651 -0.2237  0.3984
   68loPI   C1B 1085  10.915  16.638   9.426  0.2432  0.1827  0.2894
   68loPI   C2B 1086  10.790  16.570   8.988 -0.4376  0.1853 -0.1811
   68loPI   C3B 1087  10.878  16.505   8.608 -0.0580 -0.1708  0.2065
   68loPI   C4B 1088  10.969  16.295   8.237 -0.1643  0.1025  0.1223
   69loPI    C1 1089  16.511   6.656  10.473 -0.1194 -0.0686 -0.0059
   69loPI    C2 1090  16.504   7.021  10.635 -0.0887  0.0329 -0.2298
   69loPI    C3 1091  16.326   6.716  10.823 -0.1674  0.1743 -0.0716
   69loPI   PO4 1092  16.394   6.588  10.206 -0.1168  0.2126  0.0193
   69loPI   GL1 1093  16.495   6.706   9.843  0.1318 -0.1183  0.0213
   69loPI   GL2 1094  16.367   6.563   9.654  0.2203  0.2622  0.0010
   69loPI   C1A 1095  16.411   7.064   9.718 -0.2437  0.2817  0.0895
   69loPI   C2A 1096  16.454   7.250   9.329  0.1427 -0.0554 -0.2751
   69loPI   C3A 1097  16.263   7.198   8.926 -0.0921  0.2269 -0.0500
   69loPI   C4A 1098  16.371   7.075   8.515  0.2467 -0.0785  0.1764
   69loPI   C5A 1099  16.518   6.773   8.173 -0.2032 -0.0413  0.3474
   69loPI   C6A 1100  16.604   6.448   7.932 -0.3813 -0.1448 -0.0713
   69loPI   C1B 1101  16.253   6.711   9.191  0.0574 -0.0317  0.2114
   69loPI   C2B 1102  16.304   6.660   8.712  0.2135  0.1825  0.0945
   69loPI   C3B 1103  16.064   6.678   8.319  0.0199 -0.1698 -0.1868
   69loPI   C4B 1104  15.769   6.503   8.041 -0.0117 -0.1453 -0.0296
   70loPI    C1 1105  15.315  16.817  10.124 -0.0566 -0.0864  0.0861
   70loPI    C2 1106  15.123  16.538  10.336 -0.4253 -0.0561 -0.1972
   70loPI    C3 1107  15.025  16.924  10.377  0.0290  0.0322  0.1350
   70loPI   PO4 1108  15.327  16.700   9.884 -0.1833  0.5594 -0.2702
   70loPI   GL1 1109  15.156  16.853   9.462  0.1273 -0.1730 -0.0494
   70loPI   GL2 1110  14.800  16.838   9.422 -0.1030 -0.3906  0.0804
   70loPI   C1A 1111  15.364  16.754   9.123 -0.1313  0.0485 -0.2254
   70loPI   C2A 1112  15.378  16.703   8.678 -0.0787 -0.0296 -0.1300
   70loPI   C3A 1113  15.259  16.959   8.304 -0.0977 -0.0936  0.0529
   70loPI   C4A 1114  15.162  17.217   7.954 -0.1186 -0.3048 -0.0060
   70loPI   C5A 1115  15.273  17.374   7.495  0.1828  0.0336  0.0015
   70loPI   C6A 1116  15.346  17.456   7.052 -0.3103 -0.0298  0.0279
   70loPI   C1B 1117  14.910  16.780   8.940  0.1670 -0.0284 -0.2868
   70loPI   C2B 1118  14.860  16.795   8.507 -0.1325 -0.0352  0.2118
   70loPI   C3B 1119  14.714  16.920   8.071  0.0272 -0.0461 -0.1587
   70loPI   C4B 1120  14.506  17.163   7.719  0.2101  0.0558 -0.1238
   71loPI    C1 1121  15.261  14.004  10.507 -0.0816 -0.0539 -0.1554
   71loPI    C2 1122  15.316  13.649  10.684  0.0354 -0.0686 -0.2200
   71loPI    C3 1123  15.541  13.963  10.790 -0.3178  0.0836  0.1035
   71loPI   PO4 1124  15.202  13.935  10.265 -0.1006  0.1324  0.0542
   71loPI   GL1 1125  15.361  13.805   9.810  0.0751 -0.0920 -0.3562
   71loPI   GL2 1126  15.144  13.544   9.920 -0.0066 -0.0953  0.0261
   71loPI   C1A 1127  15.628  13.592   9.679 -0.1639 -0.1189  0.0020
   71loPI   C2A 1128  16.006  13.643   9.499 -0.2014  0.1462  0.0209
   71loPI   C3A 1129  16.118  13.791   9.086 -0.2515  0.0664 -0.0864
   71loPI   C4A 1130  16.090  13.569   8.708 -0.1567 -0.1123 -0.0408
   71loPI   C5A 1131  16.115  13.430   8.324 -0.1269  0.0141 -0.1573
   71loPI   C6A 1132  16.239  13.411   7.944  0.1702  0.2593  0.1870
   71loPI   C1B 1133  15.299  13.207   9.687  0.2244 -0.2739 -0.0160
   71loPI   C2B 1134  15.625  13.284   9.272 -0.0475 -0.1407 -0.0806
   71loPI   C3B 1135  15.760  13.341   8.931  0.0388 -0.1535 -0.1072
   71loPI   C4B 1136  15.719  13.239   8.538 -0.1922 -0.2081  0.0749
   72loPI    C1 1137   0.962   4.601  10.992 -0.0991  0.1157 -0.0868
   72loPI    C2 1138   1.350   4.571  11.084 -0.1067 -0.0019 -0.0916
   72loPI    C3 1139   1.128   4.860  11.247 -0.0060  0.0959 -0.1266
   72loPI   PO4 1140   0.966   4.697  10.684 -0.0332 -0.1113 -0.2101
   72loPI   GL1 1141   1.072   4.678  10.286 -0.2603 -0.2055 -0.0118
   72loPI   GL2 1142   1.318   4.457  10.142  0.2944  0.0876  0.1384
   72loPI   C1A 1143   1.124   4.855   9.832 -0.1002 -0.0513  0.1060
   72loPI   C2A 1144   1.326   5.073   9.478  0.2988  0.0071  0.1657
   72loPI   C3A 1145   1.394   5.151   9.098 -0.4375  0.2034  0.1153
   72loPI   C4A 1146   1.733   5.010   8.775  0.0895 -0.2820  0.0530
   72loPI   C5A 1147   1.767   4.975   8.367  0.1346 -0.2291 -0.2975
   72loPI   C6A 1148   1.981   4.979   7.958  0.0417 -0.2364 -0.2435
   72loPI   C1B 1149   1.506   4.430   9.729  0.4237 -0.0409  0.1755
   72loPI   C2B 1150   1.432   4.593   9.389 -0.1832  0.4361  0.1571
   72loPI   C3B 1151   1.369   4.618   8.998 -0.1502 -0.0975  0.3018
   72loPI   C4B 1152   1.523   4.574   8.603 -0.1797  0.1953 -0.1038
   73loPI    C1 1153   1.955   0.974  10.637 -0.0544 -0.0407 -0.0592
   73loPI    C2 1154   1.827   1.262  10.883  0.0680 -0.1134  0.0910
   73loPI    C3 1155   2.162   1.061  10.968  0.1862 -0.0467 -0.2058
   73loPI   PO4 1156   1.927   1.091  10.409  0.0797 -0.0726  0.1007
   73loPI   GL1 1157   1.709   1.341  10.066 -0.2537  0.2239  0.2192
   73loPI   GL2 1158   2.057   1.489  10.001 -0.0269  0.0976  0.1530
   73loPI   C1A 1159   1.749   1.295   9.661 -0.1604  0.0326  0.1645
   73loPI   C2A 1160   1.873   1.244   9.298 -0.0581 -0.1563  0.0861
   73loPI   C3A 1161   1.792   1.249   8.892  0.0796 -0.0751 -0.1202
   73loPI   C4A 1162   1.896   1.262   8.515  0.0867  0.1336 -0.0544
   73loPI   C5A 1163   1.689   1.287   8.059  0.0635 -0.1636  0.0510
   73loPI   C6A 1164   1.685   1.268   7.661  0.1732 -0.1015 -0.2022
   73loPI   C1B 1165   2.303   1.320   9.678 -0.0078  0.1108 -0.2862
   73loPI   C2B 1166   2.452   1.351   9.324  0.0499  0.0246 -0.0940
   73loPI   C3B 1167   2.409   1.259   8.918 -0.1241  0.0850  0.0973
   73loPI   C4B 1168   2.452   1.234   8.498  0.1100 -0.2215 -0.1861
   74loPI    C1 1169   6.692   3.234  10.607  0.0847  0.0366 -0.0656
   74loPI    C2 1170   7.049   3.206  10.429  0.0784  0.0506 -0.0804
   74loPI    C3 1171   7.014   3.131  10.820  0.1301  0.2255 -0.0414
   74loPI   PO4 1172   6.525   3.099  10.356  0.0699  0.0256  0.1059
   74loPI   GL1 1173   6.160   2.999  10.106  0.0173 -0.0317  0.0566
   74loPI   GL2 1174   6.376   2.981   9.897 -0.0544 -0.2222  0.0285
   74loPI   C1A 1175   5.863   3.214   9.949 -0.0366 -0.0235 -0.1590
   74loPI   C2A 1176   5.594   3.041   9.621 -0.0545  0.0570  0.2028
   74loPI   C3A 1177   5.551   3.094   9.150 -0.4900  0.0392 -0.0505
   74loPI   C4A 1178   5.746   3.005   8.821  0.0224 -0.0123 -0.3223
   74loPI   C5A 1179   5.867   3.135   8.476 -0.0640 -0.1795  0.1316
   74loPI   C6A 1180   6.283   3.098   8.513 -0.0519  0.1480  0.2243
   74loPI   C1B 1181   6.118   2.977   9.576 -0.0577 -0.1188  0.1049
   74loPI   C2B 1182   6.091   2.907   9.092  0.0438  0.1140 -0.0183
   74loPI   C3B 1183   6.048   2.615   8.763 -0.0675  0.2125  0.0477
   74loPI   C4B 1184   6.098   2.703   8.319  0.2505 -0.2601 -0.0991
   75loPI    C1 1185   5.157   9.267  10.547 -0.0657  0.0093 -0.1779
   75loPI    C2 1186   5.402   9.137  10.835 -0.2241 -0.0952 -0.0880
   75loPI    C3 1187   5.040   9.278  10.930 -0.2947 -0.1715 -0.2396
   75loPI   PO4 1188   5.286   9.278  10.255 -0.1088 -0.0019 -0.2727
   75loPI   GL1 1189   4.996   9.532  10.005 -0.1940 -0.0985 -0.0584
   75loPI   GL2 1190   4.714   9.354  10.064 -0.0188  0.1399 -0.0482
   75loPI   C1A 1191   4.896   9.508   9.556 -0.4062  0.1104 -0.1872
   75loPI   C2A 1192   4.884   9.578   9.187 -0.0403  0.1063  0.2018
   75loPI   C3A 1193   5.044   9.680   8.737 -0.0974 -0.4722 -0.1675
   75loPI   C4A 1194   4.966   9.783   8.366 -0.3018 -0.0257  0.0181
   75loPI   C5A 1195   5.012  10.091   8.046 -0.2247  0.0022 -0.0477
   75loPI   C6A 1196   4.977  10.109   7.636 -0.4173 -0.1673 -0.5898
   75loPI   C1B 1197   4.383   9.398   9.851  0.1101 -0.1030 -0.0835
   75loPI   C2B 1198   4.111   9.520   9.564 -0.0301 -0.1219 -0.0838
   75loPI   C3B 1199   3.943   9.534   9.208  0.3499  0.0684  0.0066
   75loPI   C4B 1200   3.855   9.932   8.993 -0.0760 -0.3304 -0.1459
   76loPI    C1 1201   7.532   3.485  10.413 -0.0446 -0.0431  0.2654
   76loPI    C2 1202   7.867   3.665  10.537  0.0701  0.0025 -0.0983
   76loPI    C3 1203   7.667   3.811  10.223 -0.1451 -0.1806 -0.0483
   76loPI   PO4 1204   7.611   3.233  10.414 -0.2232  0.1568  0.1120
   76loPI   GL1 1205   7.764   3.075  10.064 -0.0704  0.0453 -0.2703
   76loPI   GL2 1206   7.722   2.825   9.815  0.0380  0.1249  0.2243
   76loPI   C1A 1207   7.770   3.486   9.811  0.1670  0.1458  0.2132
   76loPI   C2A 1208   7.830   3.706   9.509  0.3408  0.0868 -0.0277
   76loPI   C3A 1209   7.894   3.864   9.079 -0.3681 -0.2042  0.2535
   76loPI   C4A 1210   8.162   3.956   8.783 -0.1842 -0.0198 -0.1671
   76loPI   C5A 1211   8.301   4.271   8.505 -0.0957  0.3197 -0.2471
   76loPI   C6A 1212   8.635   4.496   8.537  0.0159  0.0648 -0.1123
   76loPI   C1B 1213   7.523   2.842   9.445 -0.0016  0.1136 -0.1647
   76loPI   C2B 1214   7.466   2.898   8.920 -0.0720 -0.0881  0.1023
   76loPI   C3B 1215   7.569   3.159   8.672  0.1755 -0.1573  0.1535
   76loPI   C4B 1216   7.710   3.350   8.269 -0.3279  0.0252 -0.0056
   77loPI    C1 1217   4.848  10.499  10.554  0.1561  0.2153  0.0140
   77loPI    C2 1218   4.966  10.156  10.722 -0.1050  0.0741 -0.0847
   77loPI    C3 1219   4.825  10.452  10.951 -0.2145 -0.0194 -0.0302
   77loPI   PO4 1220   4.820  10.419  10.303  0.0734 -0.1933 -0.2895
   77loPI   GL1 1221   4.960  10.631   9.953  0.0336 -0.2453  0.0952
   77loPI   GL2 1222   4.980  10.948   9.918  0.0913  0.0990  0.0122
   77loPI   C1A 1223   5.092  10.624   9.412 -0.0910  0.1841 -0.0968
   77loPI   C2A 1224   5.224  10.525   8.960 -0.4086  0.2213 -0.2409
   77loPI   C3A 1225   5.241  10.298   8.503 -0.2620  0.3732  0.0816
   77loPI   C4A 1226   5.436   9.923   8.305 -0.2688  0.0180 -0.0534
   77loPI   C5A 1227   5.479   9.532   8.086  0.0582 -0.0401 -0.1269
   77loPI   C6A 1228   5.686   9.334   7.781 -0.2015 -0.1064  0.0575
   77loPI   C1B 1229   4.756  11.024   9.495 -0.3659  0.2418  0.0586
   77loPI   C2B 1230   4.588  11.016   9.159  0.1409  0.1318 -0.0143
   77loPI   C3B 1231   4.615  11.105   8.804  0.0476 -0.1308 -0.1013
   77loPI   C4B 1232   4.596  10.990   8.377  0.3000 -0.0813 -0.2149
   78loPI    C1 1233   8.117  10.044  10.671 -0.0409 -0.2305 -0.0453
   78loPI    C2 1234   8.054   9.670  10.799 -0.1941 -0.1826  0.0215
   78loPI    C3 1235   8.015   9.978  11.052 -0.0046 -0.1256 -0.0171
   78loPI   PO4 1236   7.973  10.075  10.445  0.1388  0.2141  0.0144
   78loPI   GL1 1237   8.065   9.994  10.104 -0.0862 -0.4208  0.5082
   78loPI   GL2 1238   8.330   9.964   9.911 -0.1360 -0.2648 -0.2166
   78loPI   C1A 1239   7.953   9.790   9.701  0.1763 -0.0779 -0.3932
   78loPI   C2A 1240   7.990   9.780   9.285 -0.3027  0.1613  0.0950
   78loPI   C3A 1241   8.231   9.941   8.876  0.4381 -0.3369  0.1234
   78loPI   C4A 1242   8.314  10.053   8.482 -0.2454  0.1646 -0.2484
   78loPI   C5A 1243   8.770  10.204   8.464  0.1176 -0.2118  0.0185
   78loPI   C6A 1244   9.076  10.504   8.206  0.0570  0.1580 -0.0815
   78loPI   C1B 1245   8.412   9.891   9.467  0.0426  0.1598  0.0756
   78loPI   C2B 1246   8.434   9.584   9.153  0.0924 -0.0292  0.2325
   78loPI   C3B 1247   8.255   9.489   8.689 -0.0450  0.1085 -0.1177
   78loPI   C4B 1248   7.963   9.306   8.468 -0.0651  0.2805  0.0872
   79loPI    C1 1249   3.619  14.689  10.166  0.0893  0.0416 -0.1131
   79loPI    C2 1250   3.773  14.402  10.398  0.0522  0.0431 -0.0864
   79loPI    C3 1251   3.660  14.750  10.559 -0.0624  0.0087 -0.0915
   79loPI   PO4 1252   3.406  14.550  10.009  0.1276 -0.2082  0.1623
   79loPI   GL1 1253   3.356  14.401   9.586  0.1724 -0.2337  0.0722
   79loPI   GL2 1254   3.174  14.727   9.490 -0.0195 -0.0309 -0.2661
   79loPI   C1A 1255   3.189  14.243   9.206  0.0737  0.0222 -0.0505
   79loPI   C2A 1256   3.187  14.158   8.789  0.1817 -0.2093 -0.0422
   79loPI   C3A 1257   3.147  14.030   8.381  0.0766  0.0325 -0.0803
   79loPI   C4A 1258   3.209  14.306   8.058 -0.1609  0.0154 -0.0910
   79loPI   C5A 1259   3.016  14.531   7.733 -0.1895  0.0380 -0.1358
   79loPI   C6A 1260   2.625  14.416   7.563 -0.0178 -0.2320 -0.1159
   79loPI   C1B 1261   3.280  14.672   8.993 -0.0702  0.0024  0.2073
   79loPI   C2B 1262   3.295  14.597   8.541 -0.0469  0.2149  0.0133
   79loPI   C3B 1263   3.113  14.789   8.170  0.0228  0.0499  0.1870
   79loPI   C4B 1264   2.938  15.065   7.890 -0.0141 -0.2784  0.0608
   80loPI    C1 1265   8.120   0.091  10.257 -0.1456  0.1404  0.0678
   80loPI    C2 1266   7.997  -0.206  10.494  0.1920  0.0750  0.1661
   80loPI    C3 1267   8.361  -0.049  10.543  0.0856  0.3827 -0.0042
   80loPI   PO4 1268   7.812   0.131  10.199 -0.1226 -0.0245  0.1151
   80loPI   GL1 1269   7.463   0.033   9.864 -0.1607  0.2672 -0.1160
   80loPI   GL2 1270   7.579   0.383   9.854 -0.0025 -0.1791  0.2414
   80loPI   C1A 1271   7.596  -0.235   9.529  0.1061  0.0472  0.0672
   80loPI   C2A 1272   7.572  -0.271   9.056 -0.0507  0.0434  0.2929
   80loPI   C3A 1273   7.553  -0.392   8.616  0.1407 -0.1335 -0.0372
   80loPI   C4A 1274   7.716  -0.530   8.195 -0.1957 -0.1754  0.0171
   80loPI   C5A 1275   8.122  -0.687   8.024 -0.0305 -0.1185 -0.0083
   80loPI   C6A 1276   8.246  -0.527   7.628  0.0267 -0.1383  0.0219
   80loPI   C1B 1277   7.469   0.294   9.406  0.1070  0.2257  0.2602
   80loPI   C2B 1278   7.358   0.187   9.034  0.1709  0.0511 -0.0794
   80loPI   C3B 1279   7.250   0.137   8.587 -0.0815  0.0446  0.2232
   80loPI   C4B 1280   7.261   0.000   8.178  0.3988 -0.0061 -0.0191
   81loPI    C1 1281   1.534  15.708  10.188  0.1131 -0.0510  0.2179
   81loPI    C2 1282   1.907  15.646  10.058  0.0874 -0.1081  0.1707
   81loPI    C3 1283   1.728  15.373  10.288  0.0997 -0.0491  0.2506
   81loPI   PO4 1284   1.479  15.868   9.929  0.2088 -0.1265  0.0753
   81loPI   GL1 1285   1.284  16.354   9.811 -0.4101 -0.3879  0.1329
   81loPI   GL2 1286   1.017  16.112   9.804  0.0414  0.0693 -0.0506
   81loPI   C1A 1287   1.314  16.340   9.332  0.1471 -0.0508  0.0479
   81loPI   C2A 1288   1.275  16.375   8.939 -0.0193 -0.1193 -0.0382
   81loPI   C3A 1289   1.215  16.597   8.531  0.0323 -0.0142 -0.6114
   81loPI   C4A 1290   1.382  16.762   8.132 -0.0661  0.2136  0.1319
   81loPI   C5A 1291   1.704  16.799   7.821 -0.1187  0.0093  0.0192
   81loPI   C6A 1292   2.116  16.491   7.787  0.1280  0.3388 -0.2861
   81loPI   C1B 1293   0.915  16.023   9.347  0.0927  0.0774  0.1030
   81loPI   C2B 1294   0.785  16.021   8.970 -0.0049 -0.3143  0.0430
   81loPI   C3B 1295   0.954  16.127   8.493  0.0055 -0.1357  0.0907
   81loPI   C4B 1296   0.957  15.944   8.093  0.1689  0.0170 -0.0448
   82loPI    C1 1297  16.455   9.535  10.781  0.1875  0.2996  0.1815
   82loPI    C2 1298  16.141   9.676  10.985  0.0383 -0.0749  0.2185
   82loPI    C3 1299  16.391   9.415  11.157  0.1244 -0.1079  0.0452
   82loPI   PO4 1300  16.372   9.476  10.536  0.0312 -0.3264  0.0167
   82loPI   GL1 1301  16.535   9.554  10.155  0.0594 -0.0468  0.1558
   82loPI   GL2 1302  16.342   9.813  10.014  0.0730  0.3478  0.1961
   82loPI   C1A 1303  16.631   9.253   9.825  0.2711  0.2436 -0.1062
   82loPI   C2A 1304  16.499   9.293   9.432 -0.0999 -0.3226 -0.1151
   82loPI   C3A 1305  16.468   9.337   8.976  0.2523 -0.0943  0.1709
   82loPI   C4A 1306  16.359   9.155   8.544  0.1763  0.1068  0.2214
   82loPI   C5A 1307  16.426   8.732   8.333 -0.0029 -0.1075  0.1895
   82loPI   C6A 1308  16.777   8.468   8.259 -0.1438 -0.0767  0.2067
   82loPI   C1B 1309  16.344   9.722   9.609  0.1325  0.0328  0.0669
   82loPI   C2B 1310  16.200   9.673   9.290  0.0485 -0.0192  0.1342
   82loPI   C3B 1311  16.051   9.745   8.894 -0.0248  0.0869  0.0495
   82loPI   C4B 1312  15.996  10.097   8.623  0.3512  0.3599 -0.2141
   83loPI    C1 1313  17.473   7.391  10.936 -0.1195  0.1112  0.0967
   83loPI    C2 1314  17.125   7.465  11.119 -0.0547 -0.0498  0.2885
   83loPI    C3 1315  17.470   7.523  11.313  0.0242  0.0373  0.1246
   83loPI   PO4 1316  17.524   7.491  10.816 -0.1196 -0.1055  0.1143
   83loPI   GL1 1317  17.733   7.802  10.628  0.0584 -0.0215  0.3262
   83loPI   GL2 1318  17.804   8.047  10.798 -0.1838 -0.1040  0.2219
   83loPI   C1A 1319  17.690   7.773  10.220 -0.2749 -0.3651  0.0121
   83loPI   C2A 1320  17.798   7.807   9.754  0.0117 -0.1774 -0.1655
   83loPI   C3A 1321  17.963   7.907   9.308 -0.3643  0.1529  0.1854
   83loPI   C4A 1322  17.872   7.655   8.974  0.1021  0.1027  0.2153
   83loPI   C5A 1323  17.732   7.575   8.482  0.2657 -0.1044  0.1286
   83loPI   C6A 1324  17.468   7.838   8.213 -0.1751 -0.1389 -0.1915
   83loPI   C1B 1325  17.623   8.246  10.383 -0.1031 -0.0139 -0.2074
   83loPI   C2B 1326  17.462   8.609  10.210  0.0228 -0.0922 -0.0543
   83loPI   C3B 1327  17.265   8.588   9.823 -0.1592 -0.1088  0.2682
   83loPI   C4B 1328  17.471   8.484   9.382 -0.2005 -0.2090  0.1917
   84loPI    C1 1329   8.777   7.840  10.491  0.0279 -0.0419 -0.0033
   84loPI    C2 1330   8.903   7.461  10.508  0.1933  0.0136  0.0226
   84loPI    C3 1331   8.791   7.649  10.843  0.4003  0.0837  0.0535
   84loPI   PO4 1332   8.959   7.910  10.371  0.0611  0.0918  0.3790
   84loPI   GL1 1333   9.254   8.049  10.122  0.0562  0.1396 -0.1927
   84loPI   GL2 1334   8.957   8.377  10.017 -0.0578  0.0703  0.0633
   84loPI   C1A 1335   9.489   8.165   9.760  0.2570  0.0788  0.0244
   84loPI   C2A 1336   9.655   8.101   9.390 -0.2018  0.1678  0.0544
   84loPI   C3A 1337   9.662   8.073   9.061  0.0130  0.0123 -0.0319
   84loPI   C4A 1338   9.542   8.314   8.702 -0.0140  0.0806  0.0261
   84loPI   C5A 1339   9.642   8.586   8.284  0.0077  0.0961  0.0026
   84loPI   C6A 1340   9.501   8.944   8.074 -0.0865  0.3969  0.0531
   84loPI   C1B 1341   9.016   8.356   9.578 -0.2367  0.0021 -0.0039
   84loPI   C2B 1342   9.167   8.280   9.281 -0.0457  0.0237 -0.1276
   84loPI   C3B 1343   8.984   8.296   8.839 -0.2487 -0.0751  0.3086
   84loPI   C4B 1344   8.749   8.235   8.451  0.0958  0.2604 -0.2470
   85loPI    C1 1345  13.267   1.397  10.197 -0.1229  0.0323 -0.1207
   85loPI    C2 1346  13.620   1.579  10.243 -0.0010 -0.2616  0.1472
   85loPI    C3 1347  13.285   1.755  10.373  0.0447  0.0116 -0.0939
   85loPI   PO4 1348  13.374   1.166  10.113 -0.0632 -0.0130  0.1954
   85loPI   GL1 1349  13.693   1.188   9.773 -0.0188 -0.3380 -0.0047
   85loPI   GL2 1350  13.527   1.469   9.770  0.3733 -0.1472  0.3219
   85loPI   C1A 1351  13.827   1.084   9.366  0.2293  0.2573  0.0637
   85loPI   C2A 1352  13.987   0.988   8.984  0.1651  0.0434 -0.3878
   85loPI   C3A 1353  14.133   1.044   8.536 -0.1627 -0.1545  0.4063
   85loPI   C4A 1354  14.139   1.104   8.001  0.1445 -0.1968 -0.3167
   85loPI   C5A 1355  14.357   1.308   7.716  0.2739 -0.1565 -0.4650
   85loPI   C6A 1356  14.511   1.482   7.222  0.1408  0.2934 -0.2598
   85loPI   C1B 1357  13.362   1.706   9.496  0.0024 -0.0010 -0.2693
   85loPI   C2B 1358  13.414   1.717   9.095  0.1649 -0.1163  0.0745
   85loPI   C3B 1359  13.222   2.001   8.748 -0.0531  0.1794 -0.2517
   85loPI   C4B 1360  13.143   1.791   8.250 -0.0200  0.0837 -0.2618
   86loPI    C1 1361   1.950  17.787  10.107  0.0290  0.0198 -0.1613
   86loPI    C2 1362   1.614  17.980  10.009  0.0757  0.0286 -0.3069
   86loPI    C3 1363   1.778  18.035  10.370 -0.1215 -0.0365 -0.2055
   86loPI   PO4 1364   1.925  17.632   9.860  0.2192  0.0004  0.1578
   86loPI   GL1 1365   1.965  17.670   9.377 -0.2837  0.1319 -0.0609
   86loPI   GL2 1366   2.304  17.546   9.569 -0.3476 -0.0336 -0.2813
   86loPI   C1A 1367   1.620  17.525   9.041  0.0070 -0.0190 -0.4164
   86loPI   C2A 1368   1.624  17.542   8.568 -0.2593  0.3792 -0.0848
   86loPI   C3A 1369   1.836  17.621   8.200 -0.0792  0.0402 -0.1900
   86loPI   C4A 1370   2.070  17.841   7.921  0.0951  0.2888  0.1019
   86loPI   C5A 1371   2.551  17.757   7.952 -0.2034 -0.0687 -0.2754
   86loPI   C6A 1372   2.630  17.272   7.981  0.1932  0.1066  0.5327
   86loPI   C1B 1373   2.264  17.458   9.045 -0.1439  0.0479 -0.2906
   86loPI   C2B 1374   2.120  17.544   8.722 -0.2097  0.2106  0.1802
   86loPI   C3B 1375   2.249  17.382   8.308 -0.3836  0.3574 -0.0802
   86loPI   C4B 1376   2.089  17.290   7.841  0.0596 -0.1927  0.0426
   87loPI    C1 1377   6.174  16.896  10.208 -0.0339 -0.0411 -0.1296
   87loPI    C2 1378   6.197  17.240  10.412 -0.2644 -0.1778  0.1344
   87loPI    C3 1379   5.985  17.222  10.074 -0.1059 -0.0182  0.0247
   87loPI   PO4 1380   6.428  16.796  10.186 -0.2662  0.0282 -0.2727
   87loPI   GL1 1381   6.751  16.779   9.972  0.2164 -0.2626  0.2635
   87loPI   GL2 1382   6.810  16.610   9.766  0.0118 -0.1294 -0.1193
   87loPI   C1A 1383   6.652  17.039   9.522 -0.1816 -0.2517 -0.0845
   87loPI   C2A 1384   6.317  17.284   9.324  0.1913  0.1383 -0.2435
   87loPI   C3A 1385   6.403  17.265   8.939 -0.0535  0.0327 -0.2832
   87loPI   C4A 1386   6.467  17.475   8.562 -0.0138 -0.0037  0.0893
   87loPI   C5A 1387   6.518  17.801   8.325 -0.1984 -0.1653 -0.3333
   87loPI   C6A 1388   6.700  18.280   8.336  0.0681 -0.0299 -0.0233
   87loPI   C1B 1389   6.932  16.621   9.315  0.2219 -0.0319 -0.2459
   87loPI   C2B 1390   6.837  16.992   9.015  0.0911 -0.3015  0.2935
   87loPI   C3B 1391   6.827  17.171   8.647  0.0831  0.0467 -0.1807
   87loPI   C4B 1392   6.781  17.300   8.240  0.0707 -0.0489  0.2044
   88loPI    C1 1393  15.669  17.597  10.221 -0.0417  0.3956 -0.2068
   88loPI    C2 1394  15.815  17.904  10.432  0.0807  0.1628  0.0538
   88loPI    C3 1395  15.574  17.638  10.607  0.2594 -0.0864 -0.0735
   88loPI   PO4 1396  15.738  17.708   9.973 -0.0178 -0.0467  0.1143
   88loPI   GL1 1397  15.635  17.595   9.609 -0.0706  0.0977 -0.0120
   88loPI   GL2 1398  15.307  17.368   9.455  0.0671 -0.2035 -0.1177
   88loPI   C1A 1399  15.863  17.664   9.253  0.1035 -0.0434 -0.3677
   88loPI   C2A 1400  16.145  17.634   8.840 -0.0391  0.1127  0.2039
   88loPI   C3A 1401  16.276  17.787   8.464 -0.0021 -0.2177  0.0951
   88loPI   C4A 1402  16.475  17.926   8.080  0.0322  0.0260 -0.0683
   88loPI   C5A 1403  16.634  18.235   7.717 -0.2911  0.3811 -0.0770
   88loPI   C6A 1404  16.944  18.501   7.738  0.2310  0.0548  0.1804
   88loPI   C1B 1405  15.657  17.212   9.150  0.0948  0.0018 -0.0058
   88loPI   C2B 1406  15.827  17.257   8.774 -0.1933  0.1878  0.0523
   88loPI   C3B 1407  15.954  17.337   8.369  0.3776 -0.0912 -0.2211
   88loPI   C4B 1408  15.722  17.326   8.064  0.1503  0.0290 -0.1108
   89loPI    C1 1409  11.366   9.840  10.683 -0.0853  0.0089 -0.0620
   89loPI    C2 1410  10.972   9.877  10.741 -0.0832 -0.0068 -0.0381
   89loPI    C3 1411  11.228  10.013  11.017 -0.0695  0.1249 -0.1149
   89loPI   PO4 1412  11.494   9.931  10.362 -0.0409  0.1555 -0.2394
   89loPI   GL1 1413  11.474  10.320  10.067 -0.1029 -0.2694 -0.0986
   89loPI   GL2 1414  11.586  10.064   9.879  0.3657  0.2114 -0.0174
   89loPI   C1A 1415  11.180  10.380   9.756 -0.0404  0.0930 -0.1291
   89loPI   C2A 1416  11.291  10.426   9.329 -0.1565  0.0316 -0.2503
   89loPI   C3A 1417  11.407  10.366   8.953  0.1475 -0.1792  0.1077
   89loPI   C4A 1418  11.593  10.699   8.568  0.1922 -0.0683 -0.0311
   89loPI   C5A 1419  11.887  10.923   8.330 -0.1890  0.2131 -0.0290
   89loPI   C6A 1420  12.275  10.941   8.353  0.1675 -0.0181  0.2682
   89loPI   C1B 1421  11.536  10.024   9.473  0.3400  0.3988 -0.2770
   89loPI   C2B 1422  11.680   9.972   9.000 -0.1442  0.2191  0.1902
   89loPI   C3B 1423  11.868  10.275   8.764  0.0706 -0.0960  0.1645
   89loPI   C4B 1424  12.113  10.387   8.450  0.0301 -0.1488  0.2642
   90loPI    C1 1425   5.003   1.260  10.356  0.2103  0.0370  0.1653
   90loPI    C2 1426   4.753   1.163  10.653  0.0257 -0.0660 -0.0209
   90loPI    C3 1427   5.146   1.107  10.697 -0.0010 -0.0925  0.1981
   90loPI   PO4 1428   4.859   1.456  10.200 -0.1015 -0.2347 -0.4024
   90loPI   GL1 1429   5.005   1.575   9.817 -0.1586  0.1543  0.1119
   90loPI   GL2 1430   5.192   1.813   9.878 -0.0274  0.1485  0.0420
   90loPI   C1A 1431   4.828   1.692   9.349 -0.1774  0.1625 -0.1223
   90loPI   C2A 1432   4.980   1.788   8.888  0.1566  0.0921  0.2206
   90loPI   C3A 1433   5.083   1.742   8.420 -0.1192 -0.2145  0.3344
   90loPI   C4A 1434   4.867   1.685   7.995 -0.1790 -0.0814 -0.2509
   90loPI   C5A 1435   4.566   1.362   7.706  0.1561  0.1385  0.3908
   90loPI   C6A 1436   4.329   1.041   7.608  0.1109 -0.1814  0.0555
   90loPI   C1B 1437   5.308   1.914   9.513  0.0069  0.1873  0.1130
   90loPI   C2B 1438   5.481   1.882   9.141  0.2873 -0.2616 -0.1302
   90loPI   C3B 1439   5.538   1.886   8.738 -0.0510 -0.0347  0.1261
   90loPI   C4B 1440   5.531   1.587   8.376  0.1474 -0.2031 -0.1170
   91loPI    C1 1441   5.632   5.560  10.604  0.0160 -0.1809  0.2251
   91loPI    C2 1442   5.343   5.290  10.666 -0.1398 -0.0700 -0.0034
   91loPI    C3 1443   5.285   5.671  10.771 -0.0866 -0.0421 -0.0746
   91loPI   PO4 1444   5.783   5.415  10.414  0.4056  0.3495 -0.0816
   91loPI   GL1 1445   6.047   5.435  10.116 -0.2607  0.0644  0.0077
   91loPI   GL2 1446   6.183   5.079  10.270 -0.2112 -0.2945 -0.0028
   91loPI   C1A 1447   6.087   5.567   9.749  0.2569 -0.0320  0.0508
   91loPI   C2A 1448   6.334   5.768   9.454  0.3202 -0.0730  0.0895
   91loPI   C3A 1449   6.319   5.761   8.882  0.2800 -0.0630 -0.1538
   91loPI   C4A 1450   6.133   5.634   8.496  0.1615  0.1846  0.0151
   91loPI   C5A 1451   5.866   5.841   8.282 -0.0887  0.1048  0.0951
   91loPI   C6A 1452   5.854   6.232   8.121 -0.0172  0.0359  0.2164
   91loPI   C1B 1453   6.188   4.950   9.890 -0.2432 -0.1577  0.2575
   91loPI   C2B 1454   6.404   4.913   9.486 -0.2707 -0.0621  0.1020
   91loPI   C3B 1455   6.311   4.851   9.062  0.0609  0.2736 -0.0947
   91loPI   C4B 1456   6.485   4.856   8.634  0.1100  0.0939  0.0627
   92loPI    C1 1457  12.486  11.459  10.274  0.0071 -0.3264 -0.1442
   92loPI    C2 1458  12.622  11.460  10.650  0.1735  0.1289 -0.1990
   92loPI    C3 1459  12.785  11.215  10.379  0.1646 -0.0818 -0.0168
   92loPI   PO4 1460  12.246  11.640  10.289 -0.0041 -0.1078  0.0761
   92loPI   GL1 1461  12.051  11.836   9.995 -0.5785 -0.0490  0.0957
   92loPI   GL2 1462  12.422  11.926   9.933  0.0817 -0.1540 -0.1817
   92loPI   C1A 1463  11.881  11.903   9.564  0.0901  0.0513 -0.4216
   92loPI   C2A 1464  11.849  12.033   9.100  0.0553  0.1889 -0.2537
   92loPI   C3A 1465  11.991  11.997   8.698 -0.3239 -0.0618 -0.3821
   92loPI   C4A 1466  12.123  12.160   8.317  0.0678 -0.2727  0.1266
   92loPI   C5A 1467  12.136  12.602   8.116  0.5790  0.2177 -0.2948
   92loPI   C6A 1468  11.990  12.950   8.105  0.0036 -0.0894 -0.0749
   92loPI   C1B 1469  12.414  11.861   9.529  0.1031 -0.2433 -0.0328
   92loPI   C2B 1470  12.375  11.941   9.089 -0.0728 -0.0068 -0.0233
   92loPI   C3B 1471  12.308  11.577   8.805 -0.0971 -0.1398 -0.1596
   92loPI   C4B 1472  12.538  11.503   8.452  0.3203 -0.3401  0.1470
   93loPI    C1 1473   5.659  10.809  10.523  0.2104 -0.0194 -0.1510
   93loPI    C2 1474   5.480  11.000  10.826 -0.2529 -0.0228 -0.4127
   93loPI    C3 1475   5.400  10.614  10.758  0.2935 -0.1843 -0.1950
   93loPI   PO4 1476   5.657  10.910  10.231 -0.1788  0.0236 -0.0719
   93loPI   GL1 1477   5.443  11.127   9.921 -0.1464 -0.1153 -0.0713
   93loPI   GL2 1478   5.471  11.442   9.947  0.0821 -0.1039 -0.0960
   93loPI   C1A 1479   5.298  11.046   9.521 -0.2637 -0.1761 -0.3067
   93loPI   C2A 1480   5.146  11.008   9.096  0.1220 -0.1012  0.0733
   93loPI   C3A 1481   5.008  10.824   8.642  0.3463  0.1187 -0.1467
   93loPI   C4A 1482   5.197  10.716   8.268  0.1400  0.1276 -0.1988
   93loPI   C5A 1483   5.360  10.403   8.049 -0.1857  0.0115  0.0913
   93loPI   C6A 1484   5.753  10.301   8.025 -0.3108  0.0345 -0.3270
   93loPI   C1B 1485   5.523  11.473   9.490 -0.0003 -0.0069 -0.0350
   93loPI   C2B 1486   5.502  11.391   8.996 -0.1044 -0.0674 -0.0850
   93loPI   C3B 1487   5.404  11.401   8.680  0.1013 -0.1531  0.1794
   93loPI   C4B 1488   5.209  11.350   8.272 -0.1276 -0.0495  0.2773
   94loPI    C1 1489  14.836   0.100  10.133 -0.0617 -0.1143  0.1973
   94loPI    C2 1490  14.861  -0.189   9.858  0.0633 -0.1566  0.2524
   94loPI    C3 1491  14.899  -0.278  10.246 -0.0622 -0.0896  0.2807
   94loPI   PO4 1492  14.909   0.312  10.007 -0.0121  0.3437 -0.2362
   94loPI   GL1 1493  14.929   0.516   9.569 -0.0445  0.1296 -0.3620
   94loPI   GL2 1494  14.745   0.858   9.603  0.2625 -0.1530 -0.0117
   94loPI   C1A 1495  14.834   0.518   9.152  0.0622 -0.0620 -0.0387
   94loPI   C2A 1496  14.858   0.746   8.838 -0.0894  0.0982  0.4287
   94loPI   C3A 1497  14.616   0.999   8.476 -0.4113  0.1039  0.1151
   94loPI   C4A 1498  14.631   1.168   8.138 -0.1389 -0.0416  0.1066
   94loPI   C5A 1499  14.834   1.650   8.049 -0.1060 -0.1606  0.0699
   94loPI   C6A 1500  15.255   1.595   7.921 -0.0906 -0.1712 -0.0888
   94loPI   C1B 1501  14.527   1.039   9.188  0.2534 -0.0732 -0.0586
   94loPI   C2B 1502  14.328   1.333   8.857 -0.1178 -0.1374  0.3171
   94loPI   C3B 1503  14.379   1.476   8.471 -0.2030  0.3434  0.0342
   94loPI   C4B 1504  14.309   1.613   8.079 -0.3186  0.1678  0.0620
   95loPI    C1 1505  17.449  15.165  10.734  0.0393 -0.4285  0.1420
   95loPI    C2 1506  17.158  15.177  11.008 -0.0527 -0.1067  0.0352
   95loPI    C3 1507  17.537  15.248  11.115 -0.0323 -0.3683  0.1454
   95loPI   PO4 1508  17.465  15.309  10.548 -0.0296 -0.2711 -0.1129
   95loPI   GL1 1509  17.590  15.345  10.113 -0.0350  0.2309  0.0525
   95loPI   GL2 1510  17.322  15.379  10.010 -0.6799  0.1031 -0.0328
   95loPI   C1A 1511  17.732  15.687   9.773  0.0877  0.2572  0.0044
   95loPI   C2A 1512  17.755  15.584   9.349 -0.2593  0.0009 -0.1013
   95loPI   C3A 1513  17.932  15.483   8.868 -0.1630  0.0941  0.1657
   95loPI   C4A 1514  18.062  15.176   8.517 -0.0586 -0.2783  0.1419
   95loPI   C5A 1515  18.335  14.899   8.309  0.3219 -0.0537  0.1753
   95loPI   C6A 1516  18.407  14.996   7.942 -0.1979 -0.2313 -0.2051
   95loPI   C1B 1517  17.348  15.347   9.566  0.0338 -0.2028 -0.2897
   95loPI   C2B 1518  17.327  15.391   9.173  0.2228 -0.2701 -0.2582
   95loPI   C3B 1519  17.161  15.379   8.702  0.2231 -0.0503 -0.3114
   95loPI   C4B 1520  17.163  15.624   8.336 -0.2058 -0.1323  0.2259
   96loPI    C1 1521  11.447   0.296  10.253  0.1301  0.1785 -0.1324
   96loPI    C2 1522  11.135   0.351  10.009 -0.0866 -0.1929  0.0516
   96loPI    C3 1523  11.107   0.452  10.395  0.0545 -0.1426  0.0492
   96loPI   PO4 1524  11.661   0.407  10.094 -0.0782 -0.0885  0.0649
   96loPI   GL1 1525  12.044   0.173   9.889  0.0825  0.0817  0.1338
   96loPI   GL2 1526  11.996   0.008   9.563 -0.3936 -0.0175  0.2431
   96loPI   C1A 1527  12.236   0.431   9.421 -0.4052 -0.0439  0.1713
   96loPI   C2A 1528  12.293   0.420   8.975 -0.3008 -0.0784 -0.0771
   96loPI   C3A 1529  12.419   0.346   8.581 -0.0539  0.3486  0.0713
   96loPI   C4A 1530  12.539  -0.040   8.367 -0.0450  0.1535 -0.1864
   96loPI   C5A 1531  12.799  -0.348   8.364  0.2422  0.1196 -0.0399
   96loPI   C6A 1532  13.010  -0.483   8.707  0.2492  0.0474  0.0866
   96loPI   C1B 1533  12.003   0.084   9.172  0.2049 -0.2397 -0.3757
   96loPI   C2B 1534  11.956   0.199   8.741  0.1488 -0.2110  0.1100
   96loPI   C3B 1535  11.911   0.163   8.396 -0.0649 -0.1560  0.1257
   96loPI   C4B 1536  11.915   0.414   8.077 -0.0986  0.0183 -0.2281
   97loPI    C1 1537   9.381   2.830  10.644  0.1716  0.0493  0.1704
   97loPI    C2 1538   9.121   2.591  10.833 -0.0638  0.0386 -0.1585
   97loPI    C3 1539   9.176   2.966  10.960 -0.0996 -0.0177  0.0266
   97loPI   PO4 1540   9.432   2.660  10.374  0.2270 -0.0545 -0.1997
   97loPI   GL1 1541   9.587   2.723   9.958  0.0712 -0.1878 -0.1360
   97loPI   GL2 1542   9.322   2.599   9.901  0.2433 -0.1547 -0.1230
   97loPI   C1A 1543   9.800   2.767   9.666  0.1668 -0.0362  0.1144
   97loPI   C2A 1544  10.154   2.967   9.381  0.1066  0.1634 -0.1021
   97loPI   C3A 1545  10.301   3.028   9.027 -0.2907  0.0948  0.0429
   97loPI   C4A 1546  10.299   2.967   8.583 -0.1682 -0.0739  0.0724
   97loPI   C5A 1547  10.134   3.141   8.155 -0.1223 -0.1330 -0.0145
   97loPI   C6A 1548  10.312   3.330   7.785  0.0659  0.1903  0.3912
   97loPI   C1B 1549   9.411   2.525   9.511  0.0120 -0.1882  0.0296
   97loPI   C2B 1550   9.505   2.561   9.023 -0.0121  0.1703 -0.2169
   97loPI   C3B 1551   9.551   2.514   8.479 -0.2304 -0.0123  0.3018
   97loPI   C4B 1552   9.288   2.340   8.139  0.0923  0.1856  0.2250
   98loPI    C1 1553   7.604   7.132  10.600  0.1989 -0.0214 -0.0519
   98loPI    C2 1554   7.849   7.350  10.830 -0.0399  0.1190  0.0738
   98loPI    C3 1555   7.513   7.200  10.984 -0.0348 -0.0720 -0.0975
   98loPI   PO4 1556   7.519   7.272  10.373 -0.0502  0.1131  0.0186
   98loPI   GL1 1557   7.508   7.511  10.045 -0.1368  0.2790 -0.0085
   98loPI   GL2 1558   7.393   7.187   9.900 -0.0767  0.4389  0.1107
   98loPI   C1A 1559   7.744   7.467   9.701 -0.2092  0.2093  0.3006
   98loPI   C2A 1560   7.908   7.160   9.484 -0.0373 -0.0167 -0.1874
   98loPI   C3A 1561   8.074   7.093   9.134 -0.1806 -0.0969  0.4741
   98loPI   C4A 1562   7.893   7.124   8.687 -0.0599 -0.1231 -0.0276
   98loPI   C5A 1563   7.748   7.019   8.341 -0.1771 -0.0391 -0.0983
   98loPI   C6A 1564   7.440   7.166   8.036  0.2174 -0.0434 -0.0716
   98loPI   C1B 1565   7.496   6.891   9.569 -0.1890  0.3063 -0.2359
   98loPI   C2B 1566   7.552   6.996   9.123 -0.3670 -0.1321 -0.1582
   98loPI   C3B 1567   7.359   7.049   8.694  0.1069  0.0619  0.0972
   98loPI   C4B 1568   7.126   7.354   8.383 -0.3888 -0.3220  0.2197
   99loPI    C1 1569   6.059   0.973  10.415  0.2649 -0.0822  0.1564
   99loPI    C2 1570   6.250   1.056  10.074 -0.1528  0.1076 -0.0396
   99loPI    C3 1571   6.388   1.200  10.421  0.1985  0.0271 -0.1420
   99loPI   PO4 1572   5.786   1.016  10.234 -0.2086  0.0535 -0.1920
   99loPI   GL1 1573   5.610   0.900   9.863  0.1529  0.2933 -0.3642
   99loPI   GL2 1574   5.402   1.151   9.966  0.4684  0.0026 -0.1443
   99loPI   C1A 1575   5.789   0.922   9.455  0.1308 -0.0627  0.0104
   99loPI   C2A 1576   5.871   0.966   9.081  0.1140 -0.0956  0.0850
   99loPI   C3A 1577   6.111   0.885   8.729 -0.2950 -0.2780  0.2909
   99loPI   C4A 1578   6.253   0.726   8.353  0.3064 -0.0822 -0.2446
   99loPI   C5A 1579   6.261   0.402   8.202  0.0064 -0.2141  0.0010
   99loPI   C6A 1580   6.318  -0.003   7.991 -0.2848 -0.0630  0.0965
   99loPI   C1B 1581   5.375   1.378   9.548 -0.2765  0.1709 -0.0259
   99loPI   C2B 1582   5.325   1.437   9.207  0.1949 -0.2135  0.1977
   99loPI   C3B 1583   5.333   1.381   8.772 -0.2270 -0.1263 -0.0646
   99loPI   C4B 1584   5.728   1.175   8.581 -0.0159  0.3011  0.0648
  100loPI    C1 1585  16.314  15.221  10.457 -0.0223  0.1840 -0.0566
  100loPI    C2 1586  15.997  15.073  10.261 -0.1640  0.1907  0.1648
  100loPI    C3 1587  16.011  15.056  10.661  0.2249 -0.0272  0.1467
  100loPI   PO4 1588  16.464  15.283  10.183 -0.1651 -0.0858  0.4326
  100loPI   GL1 1589  16.441  15.291   9.772  0.1648  0.0802 -0.2411
  100loPI   GL2 1590  16.158  15.612   9.666  0.1193 -0.0900 -0.0825
  100loPI   C1A 1591  16.257  15.107   9.448 -0.2156  0.0666 -0.0412
  100loPI   C2A 1592  16.319  14.807   9.128  0.1163  0.0631 -0.0229
  100loPI   C3A 1593  16.415  14.611   8.808  0.1185 -0.1429  0.0091
  100loPI   C4A 1594  16.233  14.499   8.508 -0.2478  0.0948  0.2931
  100loPI   C5A 1595  16.280  14.339   8.119  0.1592  0.0961 -0.4769
  100loPI   C6A 1596  16.503  14.609   7.878 -0.3443  0.2020 -0.2009
  100loPI   C1B 1597  16.189  15.578   9.219 -0.2528 -0.1297 -0.1299
  100loPI   C2B 1598  15.933  15.645   8.887  0.0211  0.1088  0.0168
  100loPI   C3B 1599  15.788  15.245   8.600  0.1480 -0.1943 -0.1545
  100loPI   C4B 1600  15.444  15.058   8.380  0.0578  0.0738  0.0315
  101loPI    C1 1601   7.288   8.360  10.636  0.1990  0.1240  0.0802
  101loPI    C2 1602   7.595   8.118  10.724 -0.0118 -0.2170 -0.1006
  101loPI    C3 1603   7.355   8.252  11.015  0.2359 -0.0434  0.0270
  101loPI   PO4 1604   7.222   8.193  10.448  0.0562 -0.3648  0.0674
  101loPI   GL1 1605   7.383   7.978  10.069  0.0004 -0.2912  0.0747
  101loPI   GL2 1606   7.157   8.175   9.933  0.1526 -0.1376 -0.1111
  101loPI   C1A 1607   7.499   7.927   9.611  0.0333  0.1162  0.0039
  101loPI   C2A 1608   7.415   7.623   9.289  0.1922  0.1527  0.1545
  101loPI   C3A 1609   7.181   7.379   9.073 -0.0633 -0.1021 -0.0425
  101loPI   C4A 1610   6.870   7.193   8.823 -0.0775 -0.1854  0.0965
  101loPI   C5A 1611   6.774   7.037   8.520 -0.1944 -0.1496 -0.0673
  101loPI   C6A 1612   6.469   6.987   8.193 -0.0168  0.1365 -0.0005
  101loPI   C1B 1613   7.041   8.153   9.527  0.0668  0.3324 -0.1844
  101loPI   C2B 1614   7.157   8.069   9.114 -0.2520  0.1086 -0.0299
  101loPI   C3B 1615   7.260   7.836   8.695  0.0184  0.2101 -0.2419
  101loPI   C4B 1616   7.214   7.811   8.223  0.0197 -0.1839 -0.1003
  102loPI    C1 1617   8.533  13.120  10.346  0.0591 -0.1166  0.1724
  102loPI    C2 1618   8.267  13.097  10.048  0.3175  0.2012 -0.0897
  102loPI    C3 1619   8.142  13.160  10.423 -0.0077 -0.1635 -0.1307
  102loPI   PO4 1620   8.656  13.341  10.287  0.0169 -0.3426  0.0606
  102loPI   GL1 1621   8.868  13.594   9.943  0.2284  0.0379  0.1067
  102loPI   GL2 1622   9.163  13.655   9.934 -0.2600  0.0766  0.0294
  102loPI   C1A 1623   8.652  13.426   9.582  0.1119 -0.0864 -0.0140
  102loPI   C2A 1624   8.432  13.315   9.227 -0.0941  0.2640  0.1791
  102loPI   C3A 1625   8.552  13.351   8.876  0.0048 -0.0998 -0.0842
  102loPI   C4A 1626   8.403  13.277   8.488 -0.3065 -0.2280 -0.0137
  102loPI   C5A 1627   8.115  13.168   8.068 -0.1402 -0.1335 -0.1578
  102loPI   C6A 1628   7.996  13.285   7.676  0.0093 -0.2282  0.0878
  102loPI   C1B 1629   9.118  13.868   9.545  0.0107  0.1593  0.0198
  102loPI   C2B 1630   9.206  13.898   9.172  0.0224  0.0980  0.2358
  102loPI   C3B 1631   9.374  13.636   8.868  0.2011  0.2470  0.0712
  102loPI   C4B 1632   9.778  13.563   8.867 -0.0012 -0.2657 -0.1800
  103loPI    C1 1633   4.167   7.366  10.895  0.0709  0.1722 -0.0546
  103loPI    C2 1634   4.144   6.968  10.862 -0.1110  0.1826 -0.0627
  103loPI    C3 1635   4.474   7.137  11.012  0.0505  0.0412 -0.2526
  103loPI   PO4 1636   4.201   7.517  10.644  0.0785  0.0916 -0.0846
  103loPI   GL1 1637   4.035   7.672  10.341  0.0038 -0.0357  0.1353
  103loPI   GL2 1638   4.070   7.383  10.139 -0.0107 -0.0504  0.0527
  103loPI   C1A 1639   4.162   7.783   9.883 -0.0234 -0.1446  0.0061
  103loPI   C2A 1640   4.255   7.645   9.450  0.1817  0.0995  0.1554
  103loPI   C3A 1641   4.287   7.630   9.034  0.0979  0.0630 -0.1224
  103loPI   C4A 1642   4.142   7.549   8.660 -0.0609 -0.1590  0.1093
  103loPI   C5A 1643   3.772   7.475   8.469 -0.2155 -0.2789  0.2621
  103loPI   C6A 1644   3.691   7.189   8.147  0.2105  0.0474 -0.0567
  103loPI   C1B 1645   3.947   7.382   9.721 -0.1747 -0.1987 -0.1364
  103loPI   C2B 1646   4.004   7.165   9.387  0.1669  0.3183  0.1350
  103loPI   C3B 1647   4.004   7.146   8.967  0.1430  0.0171 -0.2242
  103loPI   C4B 1648   3.911   7.049   8.575 -0.0754  0.0778  0.0383
  104loPI    C1 1649  11.753   1.788  10.152 -0.0587 -0.0712  0.1616
  104loPI    C2 1650  11.366   1.880  10.110 -0.0291 -0.0017  0.0355
  104loPI    C3 1651  11.630   2.163  10.212 -0.0166 -0.0569  0.1592
  104loPI   PO4 1652  11.792   1.638   9.943 -0.2467 -0.1160 -0.1522
  104loPI   GL1 1653  11.978   1.662   9.592 -0.0395 -0.2862 -0.1307
  104loPI   GL2 1654  12.271   1.748   9.573 -0.0743  0.0694 -0.1091
  104loPI   C1A 1655  11.771   1.678   9.227 -0.1324  0.0296 -0.3601
  104loPI   C2A 1656  11.595   1.665   8.807 -0.1891  0.0148  0.0025
  104loPI   C3A 1657  11.699   1.669   8.303 -0.0608  0.0125  0.1044
  104loPI   C4A 1658  11.963   1.484   8.050 -0.1561  0.1338  0.3787
  104loPI   C5A 1659  12.316   1.201   8.008 -0.1367 -0.0289  0.1978
  104loPI   C6A 1660  12.515   0.882   7.873  0.2513 -0.0981  0.0054
  104loPI   C1B 1661  12.245   1.753   9.127  0.1743 -0.1012 -0.4857
  104loPI   C2B 1662  12.098   1.811   8.737 -0.2489 -0.1181  0.0492
  104loPI   C3B 1663  12.086   1.956   8.300  0.2172  0.2416 -0.0489
  104loPI   C4B 1664  11.732   1.966   7.888 -0.1805  0.0196 -0.0877
  105loPI    C1 1665   5.306   3.275  10.646  0.1560  0.1998 -0.2421
  105loPI    C2 1666   5.288   3.545  10.941 -0.1150 -0.1583  0.0814
  105loPI    C3 1667   5.562   3.253  10.953  0.0169 -0.0468 -0.1401
  105loPI   PO4 1668   5.248   3.362  10.394  0.0629 -0.0553  0.0089
  105loPI   GL1 1669   5.324   3.304   9.941  0.2468 -0.0295 -0.1378
  105loPI   GL2 1670   5.032   3.078   9.816 -0.0019 -0.0266 -0.0896
  105loPI   C1A 1671   5.150   3.509   9.541  0.1398 -0.3017  0.3514
  105loPI   C2A 1672   5.111   3.339   9.175 -0.1063  0.0662  0.1956
  105loPI   C3A 1673   5.096   3.257   8.730  0.3975 -0.1009  0.1404
  105loPI   C4A 1674   5.337   3.021   8.431 -0.1118 -0.0240 -0.1490
  105loPI   C5A 1675   5.590   3.223   8.075 -0.0042 -0.0957  0.0084
  105loPI   C6A 1676   6.049   3.187   8.017  0.0958 -0.0158  0.1227
  105loPI   C1B 1677   4.736   3.125   9.460 -0.0087  0.0030  0.1688
  105loPI   C2B 1678   4.687   3.138   9.060 -0.1256 -0.0148  0.2669
  105loPI   C3B 1679   4.617   2.986   8.669 -0.1308 -0.1889  0.3725
  105loPI   C4B 1680   4.791   3.029   8.302  0.0109 -0.0248 -0.0334
  106loPI    C1 1681  11.253  13.013  10.243  0.0260 -0.0237  0.1071
  106loPI    C2 1682  11.474  13.049  10.574  0.3313  0.0335 -0.0980
  106loPI    C3 1683  11.646  12.939  10.231  0.0414  0.0958 -0.2668
  106loPI   PO4 1684  10.975  12.893  10.230 -0.1355  0.0433 -0.0927
  106loPI   GL1 1685  10.804  12.846   9.852  0.1826  0.1725 -0.0114
  106loPI   GL2 1686  10.548  13.115   9.862 -0.4734  0.0183  0.0368
  106loPI   C1A 1687  10.533  12.856   9.394  0.1780 -0.1307  0.0925
  106loPI   C2A 1688  10.620  12.802   9.001  0.4020 -0.1406  0.0676
  106loPI   C3A 1689  10.711  12.649   8.635  0.0588 -0.0551 -0.1089
  106loPI   C4A 1690  10.735  12.646   8.160 -0.1748  0.3816  0.0399
  106loPI   C5A 1691  10.726  13.022   7.918  0.0273 -0.0521  0.1811
  106loPI   C6A 1692  10.844  13.370   7.671  0.1676  0.0492 -0.1508
  106loPI   C1B 1693  10.520  13.317   9.555 -0.0501  0.0116  0.2910
  106loPI   C2B 1694  10.543  13.318   9.100  0.1938  0.1638 -0.1735
  106loPI   C3B 1695  10.524  13.199   8.651 -0.1529  0.1100  0.0585
  106loPI   C4B 1696  10.385  13.020   8.261  0.0900  0.0490  0.0368
  107loPI    C1 1697  15.573  11.719  10.356 -0.0619 -0.1020 -0.0220
  107loPI    C2 1698  15.266  11.963  10.430 -0.0659 -0.0748 -0.1270
  107loPI    C3 1699  15.479  11.813  10.733 -0.0118  0.1246 -0.0648
  107loPI   PO4 1700  15.706  11.675  10.103  0.0969  0.2231  0.1388
  107loPI   GL1 1701  15.459  11.361   9.959  0.2433  0.2964  0.2251
  107loPI   GL2 1702  15.555  11.448   9.633 -0.1666 -0.0760 -0.2619
  107loPI   C1A 1703  15.142  11.210   9.794 -0.0021  0.0064 -0.1340
  107loPI   C2A 1704  14.947  11.324   9.420 -0.2651  0.1008 -0.0118
  107loPI   C3A 1705  15.068  11.363   8.982 -0.0657 -0.0074 -0.2180
  107loPI   C4A 1706  14.900  11.589   8.683  0.1904 -0.2778  0.2529
  107loPI   C5A 1707  14.949  11.676   8.310  0.2133  0.0494 -0.3204
  107loPI   C6A 1708  15.193  11.420   8.106  0.0942  0.4213 -0.2065
  107loPI   C1B 1709  15.460  11.459   9.265 -0.4454  0.0778 -0.1017
  107loPI   C2B 1710  15.544  11.471   8.893  0.0802  0.1731  0.0168
  107loPI   C3B 1711  15.849  11.252   8.539 -0.0468 -0.2296  0.0714
  107loPI   C4B 1712  16.065  11.277   8.208 -0.0128  0.1306 -0.0646
  108loPI    C1 1713   5.605  14.085  10.398  0.0579 -0.1739  0.0070
  108loPI    C2 1714   5.416  14.202  10.730 -0.1457 -0.1355 -0.1205
  108loPI    C3 1715   5.383  13.824  10.604  0.2032 -0.2390  0.0828
  108loPI   PO4 1716   5.520  14.219  10.204 -0.2600 -0.3348 -0.1558
  108loPI   GL1 1717   5.312  14.128   9.836  0.0941  0.1082 -0.1428
  108loPI   GL2 1718   5.092  14.440   9.901  0.1364 -0.1765  0.1309
  108loPI   C1A 1719   5.351  14.296   9.445  0.2543 -0.3372 -0.0725
  108loPI   C2A 1720   5.338  14.321   8.985 -0.1199  0.2684 -0.0648
  108loPI   C3A 1721   5.336  14.090   8.525 -0.0154 -0.0446 -0.0139
  108loPI   C4A 1722   5.527  14.370   8.171 -0.1685 -0.2422 -0.0727
  108loPI   C5A 1723   5.692  14.733   7.930  0.1621 -0.0625 -0.1841
  108loPI   C6A 1724   5.828  15.159   7.838  0.2334  0.3253 -0.0349
  108loPI   C1B 1725   5.048  14.649   9.526  0.0860  0.1585  0.1224
  108loPI   C2B 1726   4.983  14.679   9.060  0.0943  0.2082  0.0318
  108loPI   C3B 1727   5.094  14.532   8.551  0.1696  0.2072  0.1015
  108loPI   C4B 1728   5.200  14.798   8.181 -0.1105  0.1688 -0.2152
  109loPI    C1 1729  17.269   4.371  10.692 -0.1520 -0.0797 -0.2473
  109loPI    C2 1730  17.594   4.138  10.699  0.0629  0.2182 -0.0194
  109loPI    C3 1731  17.266   4.029  10.900  0.0513 -0.0386 -0.1738
  109loPI   PO4 1732  17.293   4.373  10.367  0.2360 -0.2246  0.2386
  109loPI   GL1 1733  17.221   4.554   9.943  0.0272 -0.1274 -0.1762
  109loPI   GL2 1734  16.831   4.573   9.804  0.1304  0.1166  0.1309
  109loPI   C1A 1735  17.287   4.730   9.572 -0.1730 -0.1901 -0.0829
  109loPI   C2A 1736  17.491   4.804   9.277 -0.2652 -0.1468  0.0173
  109loPI   C3A 1737  17.577   4.752   8.869  0.0915 -0.1689 -0.0788
  109loPI   C4A 1738  17.581   4.641   8.446 -0.1182 -0.2498 -0.0183
  109loPI   C5A 1739  17.297   4.990   8.221 -0.1050 -0.0259 -0.1496
  109loPI   C6A 1740  16.990   5.369   8.103  0.0286 -0.2516  0.3101
  109loPI   C1B 1741  16.813   4.811   9.351  0.3812  0.2009  0.0515
  109loPI   C2B 1742  16.683   4.873   8.878  0.0768 -0.0464 -0.1510
  109loPI   C3B 1743  16.640   4.617   8.541 -0.0014 -0.2040  0.1527
  109loPI   C4B 1744  16.353   4.649   8.188  0.0060  0.1652 -0.0851
  110loPI    C1 1745   1.081   1.174  10.234 -0.0285 -0.1527  0.0793
  110loPI    C2 1746   0.982   1.033  10.595 -0.0800  0.0511  0.1466
  110loPI    C3 1747   1.065   1.421  10.549  0.2436 -0.0316  0.0018
  110loPI   PO4 1748   1.282   1.041  10.175  0.1194  0.1825 -0.2767
  110loPI   GL1 1749   1.298   0.740   9.932 -0.0030 -0.0283  0.0589
  110loPI   GL2 1750   1.584   0.819   9.824 -0.1503  0.3226 -0.0979
  110loPI   C1A 1751   1.256   0.750   9.439 -0.1903  0.0904  0.2383
  110loPI   C2A 1752   1.314   0.764   8.997  0.2732  0.0359  0.0502
  110loPI   C3A 1753   1.568   0.852   8.647  0.3611 -0.2645  0.0085
  110loPI   C4A 1754   1.465   0.811   8.228 -0.0801  0.0889  0.1525
  110loPI   C5A 1755   1.808   0.818   7.847 -0.0551  0.2671 -0.1386
  110loPI   C6A 1756   2.114   1.093   7.842  0.1226  0.1433  0.1195
  110loPI   C1B 1757   1.733   0.821   9.435  0.0874 -0.1011 -0.1995
  110loPI   C2B 1758   1.698   0.510   9.213 -0.0373  0.0907  0.4156
  110loPI   C3B 1759   1.769   0.457   8.838 -0.2162  0.0014  0.0664
  110loPI   C4B 1760   1.795   0.519   8.366 -0.2859  0.1064 -0.0535
  111loPI    C1 1761   4.006  16.276  10.059 -0.0596  0.1691  0.2161
  111loPI    C2 1762   3.955  16.471  10.404 -0.0655  0.2030  0.1963
  111loPI    C3 1763   4.079  16.090  10.406 -0.0255  0.2159  0.2342
  111loPI   PO4 1764   4.130  16.515   9.943  0.3449  0.0158  0.0523
  111loPI   GL1 1765   4.551  16.633   9.741 -0.1306 -0.0436  0.1392
  111loPI   GL2 1766   4.703  16.725  10.019  0.0165  0.1522  0.0661
  111loPI   C1A 1767   4.373  16.858   9.340 -0.1423 -0.2269  0.2043
  111loPI   C2A 1768   4.540  17.090   9.020  0.1789  0.1736  0.1846
  111loPI   C3A 1769   4.575  17.238   8.603  0.0210  0.0244 -0.0155
  111loPI   C4A 1770   4.498  17.430   8.205 -0.1299  0.0799  0.0330
  111loPI   C5A 1771   4.444  17.607   7.874  0.3435  0.0443 -0.0967
  111loPI   C6A 1772   4.513  17.991   7.615 -0.3019 -0.3033 -0.0653
  111loPI   C1B 1773   5.034  16.712   9.667 -0.1837  0.0408  0.2729
  111loPI   C2B 1774   4.875  16.865   9.291  0.1941  0.0769 -0.0984
  111loPI   C3B 1775   4.966  16.822   8.871  0.2224  0.2940 -0.1686
  111loPI   C4B 1776   4.948  16.827   8.537 -0.1496 -0.3289  0.0519
  112loPI    C1 1777  17.935   6.643  10.855  0.1014  0.0709  0.1565
  112loPI    C2 1778  18.029   6.291  10.689 -0.1248  0.0901 -0.0179
  112loPI    C3 1779  17.683   6.333  10.886 -0.0668  0.1966  0.0622
  112loPI   PO4 1780  18.048   6.819  10.619  0.4943 -0.0828 -0.0026
  112loPI   GL1 1781  17.883   6.955  10.161 -0.1147 -0.1706  0.1173
  112loPI   GL2 1782  18.238   7.089  10.224  0.1230 -0.1382 -0.0086
  112loPI   C1A 1783  17.651   6.937   9.817 -0.0200 -0.0112  0.1112
  112loPI   C2A 1784  17.329   6.956   9.478 -0.0394 -0.2979 -0.0684
  112loPI   C3A 1785  17.256   7.121   9.060 -0.1918  0.2693 -0.0313
  112loPI   C4A 1786  17.320   7.468   8.877 -0.2001 -0.0868  0.0134
  112loPI   C5A 1787  17.115   7.520   8.444 -0.1679 -0.1492 -0.3823
  112loPI   C6A 1788  16.807   7.617   8.211 -0.0350  0.1312  0.0482
  112loPI   C1B 1789  18.608   6.888  10.036  0.0216  0.1217 -0.0219
  112loPI   C2B 1790  18.730   6.615   9.701 -0.2979  0.3086  0.3035
  112loPI   C3B 1791  18.878   6.623   9.312 -0.3840  0.0837 -0.0484
  112loPI   C4B 1792  18.935   6.486   8.930  0.2291  0.1689 -0.2453
  113loPI    C1 1793  12.903   4.386  10.494  0.1325 -0.1408  0.0364
  113loPI    C2 1794  12.753   4.704  10.686  0.1593 -0.0441 -0.1008
  113loPI    C3 1795  13.073   4.513  10.833  0.0734 -0.0790  0.0432
  113loPI   PO4 1796  12.782   4.197  10.436 -0.0765  0.0960 -0.4828
  113loPI   GL1 1797  12.549   4.074  10.022  0.0060  0.2400  0.1480
  113loPI   GL2 1798  12.759   4.348   9.940 -0.1540  0.1527 -0.1959
  113loPI   C1A 1799  12.513   4.101   9.541 -0.0729  0.1381  0.1195
  113loPI   C2A 1800  12.304   4.095   9.223 -0.1205 -0.3484 -0.5632
  113loPI   C3A 1801  12.200   4.282   8.757  0.1064  0.0681  0.1770
  113loPI   C4A 1802  12.418   4.385   8.383  0.2637  0.1825  0.1150
  113loPI   C5A 1803  12.456   4.195   7.990 -0.0214  0.2313 -0.0789
  113loPI   C6A 1804  12.477   4.214   7.616  0.1377  0.1447 -0.1572
  113loPI   C1B 1805  12.577   4.606   9.700 -0.0645  0.3177  0.3491
  113loPI   C2B 1806  12.430   4.685   9.344 -0.2487  0.2831 -0.1636
  113loPI   C3B 1807  12.289   4.761   8.912  0.0029  0.1288 -0.2363
  113loPI   C4B 1808  12.248   4.893   8.444 -0.1687 -0.2738 -0.4353
  114loPI    C1 1809  17.804   3.496  10.397  0.0213  0.1569  0.0044
  114loPI    C2 1810  18.050   3.210  10.531 -0.0350  0.1780  0.1542
  114loPI    C3 1811  18.174   3.465  10.249  0.0145  0.0046  0.0179
  114loPI   PO4 1812  17.620   3.398  10.275  0.0366  0.0228  0.3247
  114loPI   GL1 1813  17.441   3.574   9.871  0.2157  0.2122  0.1283
  114loPI   GL2 1814  17.685   3.733   9.869  0.2064  0.3684  0.0455
  114loPI   C1A 1815  17.457   3.783   9.380 -0.0540  0.0991  0.4020
  114loPI   C2A 1816  17.259   3.927   9.010 -0.1162 -0.0045 -0.0967
  114loPI   C3A 1817  17.433   4.117   8.646 -0.0685  0.1146  0.2518
  114loPI   C4A 1818  17.362   4.265   8.263  0.1786 -0.0442  0.1780
  114loPI   C5A 1819  17.270   4.532   8.037 -0.1578  0.2885  0.1384
  114loPI   C6A 1820  16.883   4.671   8.139 -0.0146 -0.1861  0.2962
  114loPI   C1B 1821  17.891   3.723   9.512 -0.0306  0.1109  0.1699
  114loPI   C2B 1822  17.869   3.683   9.105  0.1165 -0.0025  0.1735
  114loPI   C3B 1823  17.914   3.822   8.638 -0.0701  0.1377  0.2611
  114loPI   C4B 1824  18.225   3.838   8.248 -0.1613 -0.0841 -0.0396
  115loPI    C1 1825   6.604   5.140  10.672  0.0157 -0.0440 -0.0195
  115loPI    C2 1826   6.519   4.784  10.511 -0.2998  0.0236 -0.0090
  115loPI    C3 1827   6.387   4.874  10.878 -0.0437  0.0747  0.0727
  115loPI   PO4 1828   6.626   5.340  10.407  0.2224  0.2729 -0.1169
  115loPI   GL1 1829   6.526   5.563  10.066  0.2239  0.3813  0.2184
  115loPI   GL2 1830   6.397   5.851  10.002  0.1112 -0.1692 -0.1060
  115loPI   C1A 1831   6.502   5.367   9.627 -0.1426 -0.0604  0.1096
  115loPI   C2A 1832   6.268   5.398   9.167 -0.1878 -0.1017  0.3467
  115loPI   C3A 1833   6.215   5.241   8.765 -0.0479  0.0893 -0.1575
  115loPI   C4A 1834   6.274   5.190   8.270  0.1310 -0.0846 -0.0142
  115loPI   C5A 1835   6.592   5.503   8.054 -0.2524  0.0399  0.1390
  115loPI   C6A 1836   6.939   5.818   7.887  0.3509 -0.0839  0.0575
  115loPI   C1B 1837   6.357   6.187   9.633 -0.0752  0.2191 -0.0393
  115loPI   C2B 1838   6.283   6.250   9.205 -0.0505  0.2506  0.0958
  115loPI   C3B 1839   6.191   6.392   8.815  0.1189  0.0249  0.0230
  115loPI   C4B 1840   6.289   6.150   8.482 -0.1161  0.1894 -0.2625
  116loPI    C1 1841  13.956   5.166  10.529  0.1574  0.0416  0.0439
  116loPI    C2 1842  14.323   5.225  10.382  0.1016  0.2059 -0.0321
  116loPI    C3 1843  14.272   5.164  10.774  0.2183  0.0918 -0.0340
  116loPI   PO4 1844  13.813   5.027  10.322 -0.2731  0.0853  0.1204
  116loPI   GL1 1845  13.871   4.964   9.915  0.1037 -0.1777  0.1661
  116loPI   GL2 1846  13.548   4.813   9.856  0.3013  0.1500  0.2833
  116loPI   C1A 1847  14.288   5.087   9.634  0.0260  0.2352 -0.2231
  116loPI   C2A 1848  14.350   5.195   9.229 -0.2052  0.0361  0.0286
  116loPI   C3A 1849  14.188   4.978   8.971 -0.2826 -0.1719  0.0446
  116loPI   C4A 1850  14.210   4.871   8.607 -0.0363  0.0138  0.0308
  116loPI   C5A 1851  14.040   5.097   8.202  0.0626 -0.1137  0.0934
  116loPI   C6A 1852  13.624   5.262   8.185  0.0574 -0.1073  0.1158
  116loPI   C1B 1853  13.820   4.786   9.458 -0.1686 -0.1812  0.0644
  116loPI   C2B 1854  13.709   4.941   9.098 -0.3257  0.1845 -0.0591
  116loPI   C3B 1855  13.660   5.075   8.634  0.0403 -0.0631  0.1791
  116loPI   C4B 1856  13.800   4.716   8.441 -0.0705 -0.0605 -0.4420
  117loPI    C1 1857   8.264   2.538  10.405 -0.2089 -0.1971  0.2470
  117loPI    C2 1858   8.551   2.759  10.235 -0.1103 -0.5443 -0.0514
  117loPI    C3 1859   8.183   2.909  10.280 -0.0222 -0.2888 -0.1640
  117loPI   PO4 1860   8.369   2.256  10.287 -0.0538  0.0227  0.1320
  117loPI   GL1 1861   8.626   2.298   9.907 -0.0230  0.0309 -0.1091
  117loPI   GL2 1862   8.795   2.656   9.781  0.0864  0.2508  0.1859
  117loPI   C1A 1863   8.584   2.398   9.401 -0.2231 -0.1812 -0.3521
  117loPI   C2A 1864   8.617   2.531   8.997  0.1226 -0.1167  0.3048
  117loPI   C3A 1865   8.480   2.646   8.658 -0.1393 -0.0746 -0.1066
  117loPI   C4A 1866   8.475   2.789   8.322 -0.0793  0.1276  0.0695
  117loPI   C5A 1867   8.328   2.975   7.974 -0.1502  0.0927 -0.2229
  117loPI   C6A 1868   8.170   3.322   7.975 -0.2498  0.1924 -0.0439
  117loPI   C1B 1869   8.523   2.939   9.490 -0.3166 -0.0415 -0.0437
  117loPI   C2B 1870   8.564   3.013   9.059 -0.1099 -0.0476  0.0434
  117loPI   C3B 1871   8.654   3.088   8.614 -0.0457  0.2984  0.0249
  117loPI   C4B 1872   8.689   3.356   8.343 -0.0533  0.2035  0.1224
  118loPI    C1 1873   9.854   2.113  10.815  0.2082 -0.2737  0.1135
  118loPI    C2 1874   9.562   2.339  10.969  0.1116 -0.0658 -0.3573
  118loPI    C3 1875   9.536   1.940  10.983  0.0464 -0.0507  0.0418
  118loPI   PO4 1876   9.922   2.283  10.545  0.0436 -0.1441  0.1763
  118loPI   GL1 1877   9.650   2.253  10.161 -0.1597 -0.0645 -0.0893
  118loPI   GL2 1878   9.951   2.369  10.054 -0.4274  0.1088  0.3205
  118loPI   C1A 1879   9.523   2.063   9.711  0.1779  0.0689  0.4510
  118loPI   C2A 1880   9.615   2.078   9.306 -0.1234 -0.1536 -0.1137
  118loPI   C3A 1881   9.645   2.093   8.844  0.0737 -0.3290  0.0457
  118loPI   C4A 1882   9.644   1.969   8.475  0.0720 -0.1337  0.1957
  118loPI   C5A 1883   9.594   1.597   8.230  0.1402 -0.0264  0.1908
  118loPI   C6A 1884   9.305   1.186   8.281  0.0724  0.0620 -0.2294
  118loPI   C1B 1885   9.992   2.303   9.600 -0.1514  0.0409  0.2492
  118loPI   C2B 1886   9.960   2.472   9.204 -0.0326  0.1817 -0.0818
  118loPI   C3B 1887   9.938   2.522   8.733 -0.1806  0.2470 -0.1929
  118loPI   C4B 1888  10.151   2.606   8.257  0.2330  0.0143  0.3087
  119loPI    C1 1889  10.897  15.533  10.411 -0.1146 -0.0087 -0.0382
  119loPI    C2 1890  10.864  15.183  10.602  0.0361 -0.1836 -0.3244
  119loPI    C3 1891  11.223  15.354  10.559 -0.0460  0.0465 -0.1217
  119loPI   PO4 1892  10.701  15.473  10.206  0.1826 -0.1212 -0.0071
  119loPI   GL1 1893  10.840  15.579   9.741 -0.0009  0.1826  0.0869
  119loPI   GL2 1894  10.718  15.730   9.528 -0.1042 -0.0176  0.0866
  119loPI   C1A 1895  10.438  15.308   9.509 -0.1249 -0.2023  0.0344
  119loPI   C2A 1896  10.431  15.197   9.111  0.1669 -0.1514 -0.0687
  119loPI   C3A 1897  10.363  15.079   8.681 -0.0804  0.0233 -0.1659
  119loPI   C4A 1898  10.118  14.946   8.299 -0.4170 -0.1117 -0.0440
  119loPI   C5A 1899   9.739  15.055   8.183  0.0410 -0.2469 -0.4154
  119loPI   C6A 1900   9.432  15.388   8.235  0.1978 -0.0347  0.1248
  119loPI   C1B 1901  10.420  15.721   9.166 -0.0296 -0.0590 -0.0534
  119loPI   C2B 1902  10.374  15.624   8.683  0.0610 -0.3573 -0.0540
  119loPI   C3B 1903  10.443  15.534   8.220  0.0697  0.1086  0.0754
  119loPI   C4B 1904  10.317  15.198   7.911 -0.0108 -0.1621  0.0317
  120loPI    C1 1905   3.264  12.814  10.170 -0.0427 -0.1248  0.0340
  120loPI    C2 1906   3.374  12.467  10.335  0.1013 -0.0876  0.0170
  120loPI    C3 1907   3.610  12.788  10.368  0.0105 -0.0142 -0.0437
  120loPI   PO4 1908   3.262  12.762   9.880  0.0411  0.4558  0.1998
  120loPI   GL1 1909   3.515  12.615   9.447  0.0322 -0.2469 -0.2368
  120loPI   GL2 1910   3.486  12.952   9.437 -0.1670 -0.2934 -0.0258
  120loPI   C1A 1911   3.750  12.387   9.165 -0.1474  0.3398  0.0420
  120loPI   C2A 1912   3.636  12.221   8.691  0.2169 -0.0355  0.2229
  120loPI   C3A 1913   3.559  11.943   8.381 -0.0311  0.1177 -0.0250
  120loPI   C4A 1914   3.660  11.864   7.985  0.2355  0.4084  0.0943
  120loPI   C5A 1915   3.759  11.490   7.705 -0.3509 -0.2172  0.2165
  120loPI   C6A 1916   4.009  11.498   7.454  0.1477 -0.2653 -0.1410
  120loPI   C1B 1917   3.528  12.771   8.998  0.1548  0.1323  0.0315
  120loPI   C2B 1918   3.699  12.736   8.701 -0.2915  0.1158 -0.3109
  120loPI   C3B 1919   3.795  12.554   8.329 -0.0803  0.2130 -0.0595
  120loPI   C4B 1920   3.924  12.393   7.889 -0.2118 -0.1071 -0.1966
  121loPI    C1 1921   0.438  15.047  10.685  0.1066 -0.0314 -0.1452
  121loPI    C2 1922   0.835  15.004  10.658  0.1304  0.1151 -0.0423
  121loPI    C3 1923   0.664  15.063  11.014  0.0047 -0.0480 -0.0742
  121loPI   PO4 1924   0.241  14.919  10.515  0.1325  0.0251  0.0143
  121loPI   GL1 1925   0.209  14.833  10.084 -0.0592  0.1742  0.1704
  121loPI   GL2 1926  -0.002  15.114  10.082  0.0467 -0.1832 -0.0813
  121loPI   C1A 1927   0.364  15.050   9.686 -0.1125 -0.0266 -0.1526
  121loPI   C2A 1928   0.455  15.179   9.173 -0.2472 -0.1335 -0.0302
  121loPI   C3A 1929   0.363  15.160   8.780  0.2159 -0.2135  0.0127
  121loPI   C4A 1930   0.384  15.427   8.341  0.0461 -0.1928 -0.2649
  121loPI   C5A 1931   0.393  15.715   8.045 -0.1837 -0.0822  0.1732
  121loPI   C6A 1932   0.544  16.175   7.997  0.1852  0.2748  0.0804
  121loPI   C1B 1933  -0.034  15.360   9.652  0.1615  0.3149  0.2118
  121loPI   C2B 1934   0.026  15.305   9.310 -0.1445  0.0164  0.0699
  121loPI   C3B 1935  -0.011  14.957   9.059 -0.2312 -0.0958  0.2291
  121loPI   C4B 1936  -0.220  14.700   8.786  0.0927  0.2531 -0.0119
  122loPI    C1 1937   4.429  14.873  10.276 -0.1198 -0.1274 -0.1823
  122loPI    C2 1938   4.078  14.992  10.427  0.0834 -0.0060  0.2092
  122loPI    C3 1939   4.232  14.639  10.534  0.0138 -0.1266 -0.0786
  122loPI   PO4 1940   4.437  14.948  10.034  0.3039  0.1823  0.1346
  122loPI   GL1 1941   4.628  15.134   9.624  0.1607 -0.0368 -0.0424
  122loPI   GL2 1942   4.720  15.482   9.651  0.0493  0.1360 -0.2390
  122loPI   C1A 1943   4.308  15.162   9.406 -0.1919 -0.1299  0.2151
  122loPI   C2A 1944   4.178  15.215   9.062 -0.2817 -0.1972 -0.4251
  122loPI   C3A 1945   4.104  15.100   8.639 -0.2834  0.3118 -0.2498
  122loPI   C4A 1946   4.235  15.150   8.349  0.2470 -0.1408 -0.0598
  122loPI   C5A 1947   4.342  15.144   7.907 -0.1796 -0.0964 -0.2111
  122loPI   C6A 1948   4.500  15.293   7.537  0.1553 -0.4003  0.0560
  122loPI   C1B 1949   4.650  15.475   9.193 -0.1067 -0.1530 -0.0041
  122loPI   C2B 1950   4.701  15.366   8.711 -0.1535  0.0047 -0.0261
  122loPI   C3B 1951   4.973  15.607   8.432 -0.2977 -0.0864 -0.1950
  122loPI   C4B 1952   4.952  15.931   8.102  0.2352  0.2122 -0.3161
  123loPI    C1 1953   4.517   4.706  10.737 -0.0962  0.1912 -0.0343
  123loPI    C2 1954   4.471   4.890  11.090 -0.1835  0.1328 -0.0151
  123loPI    C3 1955   4.159   4.713  10.913 -0.0753 -0.1016  0.0240
  123loPI   PO4 1956   4.571   4.895  10.593 -0.1487 -0.4306 -0.1445
  123loPI   GL1 1957   4.898   4.952  10.330 -0.3547 -0.3170  0.1912
  123loPI   GL2 1958   5.138   5.074  10.241 -0.2911  0.1779 -0.2667
  123loPI   C1A 1959   4.801   4.962   9.841  0.0235 -0.2948 -0.2032
  123loPI   C2A 1960   4.836   5.032   9.363  0.0423 -0.0903  0.0123
  123loPI   C3A 1961   4.851   4.902   9.007  0.3568  0.2280 -0.0478
  123loPI   C4A 1962   4.896   4.862   8.598  0.2117 -0.0603  0.0116
  123loPI   C5A 1963   4.935   4.640   8.274  0.1494 -0.4749  0.2891
  123loPI   C6A 1964   4.758   4.548   7.921 -0.1189  0.3203  0.0233
  123loPI   C1B 1965   5.213   5.350   9.849  0.1476  0.0106 -0.0143
  123loPI   C2B 1966   5.266   5.416   9.382 -0.1417 -0.0226 -0.2600
  123loPI   C3B 1967   5.274   5.264   8.938 -0.3858  0.2852 -0.0728
  123loPI   C4B 1968   5.366   5.108   8.592  0.2254  0.2874 -0.0354
  124loPI    C1 1969   8.745  10.156  10.359 -0.0353  0.1022 -0.0534
  124loPI    C2 1970   8.415  10.367  10.280 -0.1437 -0.0111  0.0887
  124loPI    C3 1971   8.528  10.308  10.659 -0.0291 -0.0788  0.0446
  124loPI   PO4 1972   8.693   9.971  10.223  0.2755  0.0212 -0.1229
  124loPI   GL1 1973   8.859   9.695   9.885  0.0262  0.3055 -0.3852
  124loPI   GL2 1974   9.129   9.828   9.982  0.0726  0.0645  0.2606
  124loPI   C1A 1975   8.687   9.459   9.641 -0.0489  0.1777  0.1074
  124loPI   C2A 1976   8.559   9.105   9.406  0.0936  0.1151  0.2581
  124loPI   C3A 1977   8.482   9.058   8.993 -0.0804  0.3594 -0.1330
  124loPI   C4A 1978   8.182   8.898   8.703 -0.2548  0.1165  0.0166
  124loPI   C5A 1979   8.324   8.586   8.411 -0.1706 -0.2171  0.1147
  124loPI   C6A 1980   8.307   8.082   8.331 -0.2549 -0.2126  0.3896
  124loPI   C1B 1981   9.197   9.601   9.552 -0.0228 -0.2141  0.1234
  124loPI   C2B 1982   9.006   9.367   9.222 -0.0789  0.1179  0.2080
  124loPI   C3B 1983   8.880   9.274   8.760  0.3868  0.1033 -0.0821
  124loPI   C4B 1984   8.520   9.147   8.397 -0.0675 -0.2352 -0.2236
  125loPI    C1 1985   9.320   8.127  10.676  0.0482 -0.1598 -0.3313
  125loPI    C2 1986   9.106   8.439  10.546  0.1894 -0.0252 -0.2449
  125loPI    C3 1987   8.956   8.196  10.826  0.1457  0.0633 -0.1912
  125loPI   PO4 1988   9.582   8.230  10.655 -0.1058 -0.1732  0.0364
  125loPI   GL1 1989   9.718   8.192  10.350  0.4905  0.1784 -0.2326
  125loPI   GL2 1990  10.025   7.978  10.282 -0.1515  0.0769  0.0933
  125loPI   C1A 1991   9.890   8.387   9.965 -0.2698  0.0555  0.2371
  125loPI   C2A 1992   9.979   8.414   9.580  0.0981 -0.0285  0.1027
  125loPI   C3A 1993   9.988   8.479   9.227  0.4070 -0.0981  0.1400
  125loPI   C4A 1994  10.052   8.373   8.850 -0.0246 -0.2896  0.2274
  125loPI   C5A 1995  10.093   8.431   8.453 -0.1070  0.1709 -0.0762
  125loPI   C6A 1996  10.303   8.225   8.137 -0.0316 -0.1705  0.1318
  125loPI   C1B 1997  10.165   7.915   9.785 -0.0223  0.0304 -0.0374
  125loPI   C2B 1998  10.117   7.971   9.337  0.3337 -0.2290  0.2190
  125loPI   C3B 1999  10.140   7.902   8.927 -0.3006 -0.1576  0.0027
  125loPI   C4B 2000  10.104   7.891   8.444 -0.1216  0.0677 -0.0939
  126loPI    C1 2001  15.130   3.811  10.535  0.1939  0.0077 -0.1333
  126loPI    C2 2002  15.103   3.413  10.501 -0.0995 -0.0054  0.1926
  126loPI    C3 2003  15.344   3.575  10.777  0.0540  0.0461  0.0302
  126loPI   PO4 2004  15.259   3.869  10.274  0.2362  0.0830 -0.2399
  126loPI   GL1 2005  15.294   4.092   9.936  0.0306 -0.1330  0.1625
  126loPI   GL2 2006  15.059   4.300   9.965  0.0169  0.3922 -0.2169
  126loPI   C1A 2007  15.631   4.043   9.571  0.0802 -0.0882 -0.1415
  126loPI   C2A 2008  15.632   4.040   9.191  0.1926  0.5601 -0.1016
  126loPI   C3A 2009  15.828   4.260   8.833 -0.0540 -0.1935 -0.3828
  126loPI   C4A 2010  15.711   4.047   8.394  0.1672  0.2284  0.2173
  126loPI   C5A 2011  15.720   3.781   8.135  0.0794  0.3092  0.0967
  126loPI   C6A 2012  15.472   3.568   7.912  0.4455  0.0021 -0.0801
  126loPI   C1B 2013  15.101   4.339   9.496 -0.2326 -0.1366 -0.0489
  126loPI   C2B 2014  15.030   4.493   9.078 -0.1272  0.2542 -0.0909
  126loPI   C3B 2015  15.151   4.580   8.662  0.0392  0.1561  0.1603
  126loPI   C4B 2016  15.301   4.426   8.366  0.0386 -0.1259  0.0170
  127loPI    C1 2017  10.597  14.885  10.349  0.2626 -0.2050  0.1105
  127loPI    C2 2018  10.345  14.809  10.650 -0.0120 -0.3151 -0.1422
  127loPI    C3 2019  10.392  15.184  10.519 -0.1297 -0.3082 -0.1662
  127loPI   PO4 2020  10.554  14.767  10.176 -0.1456  0.0424 -0.0796
  127loPI   GL1 2021  10.324  14.694   9.792 -0.0014  0.0083  0.2029
  127loPI   GL2 2022  10.131  14.497   9.930 -0.2567  0.2313 -0.2680
  127loPI   C1A 2023  10.257  14.776   9.384 -0.2094 -0.2022  0.0850
  127loPI   C2A 2024  10.314  14.677   8.992  0.1899  0.1802  0.0424
  127loPI   C3A 2025  10.675  14.673   8.751  0.0049  0.2226  0.3461
  127loPI   C4A 2026  10.876  14.415   8.508  0.1531 -0.1863  0.1351
  127loPI   C5A 2027  10.936  13.999   8.312 -0.0605  0.0514  0.0177
  127loPI   C6A 2028  10.938  13.918   7.904  0.0468  0.1133  0.2991
  127loPI   C1B 2029  10.025  14.354   9.609  0.1291 -0.0946  0.1005
  127loPI   C2B 2030  10.020  14.292   9.198  0.0499 -0.0106  0.1667
  127loPI   C3B 2031  10.086  14.104   8.816 -0.2660  0.1438  0.0308
  127loPI   C4B 2032  10.024  13.939   8.382  0.2861  0.2494 -0.0220
  128loPI    C1 2033   9.387   0.313  10.528  0.1471 -0.1763 -0.0737
  128loPI    C2 2034   9.392   0.645  10.751 -0.2931 -0.1223 -0.1347
  128loPI    C3 2035   9.510   0.296  10.908 -0.2429 -0.0166  0.0655
  128loPI   PO4 2036   9.387   0.324  10.288  0.1480  0.3374  0.1027
  128loPI   GL1 2037   9.436   0.279   9.841 -0.1571  0.1795 -0.0399
  128loPI   GL2 2038   9.291   0.526   9.611  0.0466  0.3780  0.1228
  128loPI   C1A 2039   9.383  -0.031   9.663  0.1341  0.0250 -0.1797
  128loPI   C2A 2040   9.482  -0.365   9.398 -0.1299 -0.1261 -0.1570
  128loPI   C3A 2041   9.576  -0.277   8.975 -0.0731 -0.0039 -0.0341
  128loPI   C4A 2042   9.657  -0.142   8.578  0.0377  0.1418 -0.0083
  128loPI   C5A 2043   9.388  -0.293   8.251 -0.1423  0.5074  0.0083
  128loPI   C6A 2044   9.105  -0.574   8.053 -0.0855  0.1450 -0.0354
  128loPI   C1B 2045   9.041   0.469   9.470  0.0063 -0.1465  0.0056
  128loPI   C2B 2046   9.046   0.099   9.205 -0.0921 -0.2356  0.1821
  128loPI   C3B 2047   9.200   0.004   8.842  0.1010  0.1342 -0.0916
  128loPI   C4B 2048   9.233   0.090   8.441  0.1311  0.1919 -0.2440
  129loPI    C1 2049  13.786   1.987  10.517  0.0342 -0.0146 -0.3494
  129loPI    C2 2050  13.947   2.250  10.772 -0.0826 -0.1388 -0.1444
  129loPI    C3 2051  14.128   1.900  10.705 -0.2405 -0.2609  0.0539
  129loPI   PO4 2052  13.690   2.083  10.305  0.1666 -0.0569 -0.1157
  129loPI   GL1 2053  13.944   2.223   9.939 -0.0554  0.1675  0.0471
  129loPI   GL2 2054  13.751   2.515   9.995  0.0002  0.2172  0.0146
  129loPI   C1A 2055  14.050   2.307   9.550  0.2351 -0.6235  0.1103
  129loPI   C2A 2056  14.187   2.057   9.184  0.3060  0.1413  0.0704
  129loPI   C3A 2057  14.324   1.793   8.924 -0.1347 -0.4553 -0.1287
  129loPI   C4A 2058  14.748   1.756   8.601 -0.1764 -0.1457  0.0190
  129loPI   C5A 2059  15.179   1.679   8.429 -0.4593  0.1141  0.0136
  129loPI   C6A 2060  15.575   1.928   8.416  0.0430 -0.2747 -0.1924
  129loPI   C1B 2061  13.711   2.656   9.651  0.0380 -0.1233  0.0628
  129loPI   C2B 2062  13.782   2.915   9.278  0.2555 -0.2069 -0.0589
  129loPI   C3B 2063  13.745   2.758   8.765 -0.3718 -0.2651  0.0209
  129loPI   C4B 2064  14.036   2.477   8.382 -0.0622 -0.0383  0.3799
  130loPI    C1 2065   1.371   4.944  10.761 -0.0862  0.0092 -0.0478
  130loPI    C2 2066   1.659   4.965  11.038  0.1287 -0.0124 -0.2659
  130loPI    C3 2067   1.390   5.260  11.005 -0.0143 -0.0991  0.0880
  130loPI   PO4 2068   1.511   4.900  10.539  0.1302 -0.1277 -0.0858
  130loPI   GL1 2069   1.725   4.777  10.242 -0.2295  0.1294 -0.0927
  130loPI   GL2 2070   1.911   4.552  10.432 -0.0191 -0.3210 -0.0601
  130loPI   C1A 2071   1.693   4.950   9.807  0.0428 -0.0766 -0.0199
  130loPI   C2A 2072   1.783   4.989   9.339 -0.3302  0.1850  0.1050
  130loPI   C3A 2073   2.115   4.873   9.078 -0.2197 -0.0574 -0.1634
  130loPI   C4A 2074   2.168   4.783   8.677 -0.0866  0.0476  0.0388
  130loPI   C5A 2075   2.288   5.016   8.347  0.1124 -0.0628 -0.0886
  130loPI   C6A 2076   2.518   5.220   7.981  0.1601  0.2511 -0.0233
  130loPI   C1B 2077   2.040   4.589   9.889 -0.1366  0.0149 -0.0060
  130loPI   C2B 2078   1.974   4.563   9.419 -0.2616  0.2357  0.1074
  130loPI   C3B 2079   1.890   4.496   8.940  0.0601  0.4287 -0.0807
  130loPI   C4B 2080   1.982   4.324   8.549  0.3248 -0.2213  0.2029
  131loPI    C1 2081   4.228   0.037  10.447  0.1323 -0.0217 -0.1933
  131loPI    C2 2082   4.324  -0.351  10.463  0.0076 -0.0429  0.1303
  131loPI    C3 2083   4.595  -0.074  10.563  0.0696 -0.0486 -0.0178
  131loPI   PO4 2084   4.180   0.070  10.234  0.0792 -0.1810  0.0749
  131loPI   GL1 2085   4.397   0.105   9.890 -0.2209 -0.0716 -0.0371
  131loPI   GL2 2086   4.233   0.342   9.725 -0.1725  0.0520  0.3032
  131loPI   C1A 2087   4.656   0.117   9.467 -0.1114  0.2125  0.2270
  131loPI   C2A 2088   4.645   0.026   9.060  0.0837  0.1377  0.2000
  131loPI   C3A 2089   4.605   0.302   8.798  0.1831 -0.0879 -0.0919
  131loPI   C4A 2090   4.550   0.489   8.377  0.1157  0.1198 -0.3966
  131loPI   C5A 2091   4.442   0.774   8.030 -0.2916 -0.2196  0.0511
  131loPI   C6A 2092   3.972   0.740   7.842 -0.2640 -0.0195  0.0189
  131loPI   C1B 2093   4.264   0.389   9.280 -0.0647 -0.0079 -0.2327
  131loPI   C2B 2094   4.228   0.632   8.847 -0.2052  0.2101 -0.1547
  131loPI   C3B 2095   4.155   0.791   8.413  0.1452  0.0509 -0.1672
  131loPI   C4B 2096   4.063   1.177   8.163  0.2682 -0.1579  0.1006
  132loPI    C1 2097   3.839   6.629  10.637 -0.0720 -0.0274  0.0679
  132loPI    C2 2098   3.443   6.640  10.689 -0.0352 -0.2074  0.4133
  132loPI    C3 2099   3.686   6.760  10.983  0.1689 -0.2276  0.2543
  132loPI   PO4 2100   3.851   6.500  10.342  0.1982  0.2289  0.0424
  132loPI   GL1 2101   3.416   6.639  10.216  0.0202 -0.0689 -0.2010
  132loPI   GL2 2102   3.425   6.229  10.108 -0.1120  0.2562  0.0673
  132loPI   C1A 2103   3.246   6.490   9.757 -0.1153  0.2438  0.0737
  132loPI   C2A 2104   3.175   6.481   9.309  0.4535 -0.1326 -0.0182
  132loPI   C3A 2105   3.064   6.589   8.900  0.0098 -0.1247 -0.0959
  132loPI   C4A 2106   3.183   6.696   8.510  0.0649  0.0766  0.0593
  132loPI   C5A 2107   3.334   6.650   8.211 -0.0773  0.1997 -0.0057
  132loPI   C6A 2108   3.513   6.368   7.884 -0.1405 -0.1364 -0.1084
  132loPI   C1B 2109   3.669   6.049   9.749  0.3776 -0.0262  0.1402
  132loPI   C2B 2110   3.901   5.730   9.554  0.0701 -0.0519  0.2397
  132loPI   C3B 2111   3.961   5.716   9.172 -0.1062  0.3816 -0.0498
  132loPI   C4B 2112   3.967   5.538   8.809 -0.3001  0.1434  0.1546
  133loPI    C1 2113   4.968  17.579   9.922  0.0182  0.1212 -0.1032
  133loPI    C2 2114   4.739  17.871  10.071 -0.0131  0.0975 -0.1045
  133loPI    C3 2115   4.651  17.709   9.716 -0.1653 -0.1132  0.0266
  133loPI   PO4 2116   5.189  17.656   9.959  0.1184 -0.0732  0.0591
  133loPI   GL1 2117   5.424  17.491   9.703 -0.1005 -0.1437 -0.0359
  133loPI   GL2 2118   5.562  17.339   9.907 -0.0814  0.3425 -0.1596
  133loPI   C1A 2119   5.447  17.549   9.252  0.1731 -0.3578 -0.0436
  133loPI   C2A 2120   5.506  17.637   8.762 -0.1390 -0.1322 -0.0430
  133loPI   C3A 2121   5.452  17.719   8.284 -0.0725 -0.0216 -0.2001
  133loPI   C4A 2122   5.623  17.745   7.873  0.2138  0.0902  0.0988
  133loPI   C5A 2123   5.992  17.548   7.735 -0.2890 -0.1243  0.0435
  133loPI   C6A 2124   6.382  17.497   8.004  0.1066 -0.1642  0.2948
  133loPI   C1B 2125   5.345  17.088   9.536 -0.0614  0.0569  0.2928
  133loPI   C2B 2126   5.389  16.951   9.069  0.1370 -0.0165 -0.0386
  133loPI   C3B 2127   5.432  16.971   8.591  0.1975  0.1028  0.1327
  133loPI   C4B 2128   5.309  16.863   8.134 -0.1232  0.0572  0.2314
  134loPI    C1 2129  10.202  12.864  10.492 -0.0328  0.0486  0.0571
  134loPI    C2 2130  10.571  13.015  10.527  0.0978 -0.2225 -0.1187
  134loPI    C3 2131  10.405  12.819  10.834  0.0791 -0.0586 -0.0228
  134loPI   PO4 2132  10.089  12.971  10.357  0.2285 -0.0301 -0.3207
  134loPI   GL1 2133  10.084  12.915   9.915  0.1712  0.0826 -0.0676
  134loPI   GL2 2134   9.797  13.035   9.981  0.0343  0.0373  0.2995
  134loPI   C1A 2135  10.014  12.725   9.560  0.0370 -0.1294 -0.0900
  134loPI   C2A 2136  10.172  12.587   9.138 -0.2108  0.0838 -0.2283
  134loPI   C3A 2137  10.380  12.361   8.848  0.3040  0.2749  0.0533
  134loPI   C4A 2138  10.528  12.244   8.404  0.0475 -0.0371  0.2331
  134loPI   C5A 2139  10.886  12.196   8.116  0.3290  0.1031 -0.1207
  134loPI   C6A 2140  11.275  12.143   8.211  0.0892 -0.0524 -0.1257
  134loPI   C1B 2141   9.588  13.036   9.628 -0.1314 -0.1652 -0.0190
  134loPI   C2B 2142   9.574  12.799   9.293  0.1082 -0.0679  0.0941
  134loPI   C3B 2143   9.699  12.698   8.878  0.0398  0.0304  0.0743
  134loPI   C4B 2144   9.601  12.467   8.598 -0.2744 -0.0329  0.0666
  135loPI    C1 2145   9.461  16.025  10.768  0.1130 -0.0335 -0.0535
  135loPI    C2 2146   9.319  16.365  10.924  0.0397 -0.0642 -0.0533
  135loPI    C3 2147   9.483  16.089  11.163  0.1219 -0.0183 -0.0565
  135loPI   PO4 2148   9.258  15.957  10.648  0.4117 -0.0873 -0.0255
  135loPI   GL1 2149   9.186  15.784  10.243  0.2658  0.0414 -0.0827
  135loPI   GL2 2150   9.125  15.871   9.929 -0.0776 -0.0633 -0.1888
  135loPI   C1A 2151   9.606  15.727   9.940 -0.1250 -0.3578 -0.0427
  135loPI   C2A 2152   9.873  15.756   9.625 -0.1577 -0.2653  0.0551
  135loPI   C3A 2153   9.900  15.749   9.202  0.1440  0.1891  0.1867
  135loPI   C4A 2154   9.813  15.835   8.772 -0.0121  0.1633 -0.0342
  135loPI   C5A 2155   9.703  15.823   8.328 -0.1044 -0.1132  0.2549
  135loPI   C6A 2156   9.660  16.092   7.961  0.0444 -0.1737  0.1697
  135loPI   C1B 2157   9.310  15.965   9.553  0.1494 -0.1564  0.1295
  135loPI   C2B 2158   9.339  15.783   9.135  0.2284 -0.2145 -0.0408
  135loPI   C3B 2159   9.251  15.926   8.756 -0.0856 -0.0281 -0.0448
  135loPI   C4B 2160   9.092  15.815   8.339  0.1988 -0.4158 -0.1118
  136loPI    C1 2161  10.757   8.456  10.818 -0.1549 -0.1159 -0.3841
  136loPI    C2 2162  10.888   8.335  10.460  0.0107  0.1387 -0.4121
  136loPI    C3 2163  11.121   8.562  10.692  0.0857 -0.3907  0.0536
  136loPI   PO4 2164  10.484   8.367  10.751 -0.1342 -0.1629 -0.2440
  136loPI   GL1 2165  10.437   8.296  10.304  0.5148  0.0649  0.0939
  136loPI   GL2 2166  10.370   8.379   9.986  0.2011 -0.0676 -0.2058
  136loPI   C1A 2167  10.538   7.840  10.149  0.1617 -0.1962 -0.2715
  136loPI   C2A 2168  10.747   7.598   9.938 -0.4418 -0.1166  0.0257
  136loPI   C3A 2169  10.824   7.461   9.546 -0.1112 -0.2143  0.0294
  136loPI   C4A 2170  10.807   7.262   9.189  0.0228 -0.3120 -0.0059
  136loPI   C5A 2171  10.780   7.387   8.845 -0.0076 -0.1875  0.3846
  136loPI   C6A 2172  10.657   7.586   8.357 -0.0854 -0.2344 -0.2483
  136loPI   C1B 2173  10.441   8.433   9.571 -0.3107  0.0237 -0.0228
  136loPI   C2B 2174  10.465   8.345   9.163 -0.1485 -0.0672 -0.2421
  136loPI   C3B 2175  10.590   8.322   8.701 -0.0587  0.1490 -0.1012
  136loPI   C4B 2176  10.836   8.086   8.368  0.0579 -0.0156  0.2095
  137loPI    C1 2177  15.714   5.311  10.430  0.0267  0.0778  0.0916
  137loPI    C2 2178  15.548   5.600  10.652 -0.0644  0.1522 -0.0719
  137loPI    C3 2179  15.487   5.591  10.256  0.1739  0.0748 -0.1082
  137loPI   PO4 2180  15.988   5.263  10.408 -0.1025 -0.0577 -0.1387
  137loPI   GL1 2181  16.202   5.356  10.064  0.0738  0.0751 -0.2088
  137loPI   GL2 2182  15.856   5.463   9.937 -0.0417 -0.1301 -0.1319
  137loPI   C1A 2183  16.352   5.686   9.775  0.0143 -0.1520  0.0509
  137loPI   C2A 2184  16.540   5.720   9.411  0.0131 -0.2558  0.1424
  137loPI   C3A 2185  16.506   5.756   8.988  0.2117  0.0736  0.0751
  137loPI   C4A 2186  16.480   6.079   8.712 -0.1390 -0.1080 -0.1049
  137loPI   C5A 2187  16.463   6.043   8.248 -0.0734  0.0425  0.1747
  137loPI   C6A 2188  16.356   5.872   7.834 -0.2753 -0.3684 -0.0661
  137loPI   C1B 2189  15.858   5.631   9.579 -0.1183  0.0575 -0.0733
  137loPI   C2B 2190  15.925   5.705   9.144  0.2755 -0.0514  0.2155
  137loPI   C3B 2191  15.900   5.773   8.756  0.4086  0.3927  0.1685
  137loPI   C4B 2192  15.992   5.613   8.263 -0.1297  0.1527  0.1819
  138loPI    C1 2193   7.363  17.037  10.363 -0.0482  0.0379  0.0142
  138loPI    C2 2194   7.659  16.770  10.401 -0.1846 -0.1269 -0.0670
  138loPI    C3 2195   7.555  17.000  10.712  0.1167  0.0269 -0.0768
  138loPI   PO4 2196   7.192  16.999  10.198 -0.0002  0.2250  0.1385
  138loPI   GL1 2197   7.291  16.637   9.833 -0.0630  0.3112 -0.0449
  138loPI   GL2 2198   7.540  16.871   9.868 -0.0969 -0.0603  0.2906
  138loPI   C1A 2199   7.433  16.543   9.456  0.2240 -0.0456 -0.0578
  138loPI   C2A 2200   7.319  16.502   9.040  0.3214 -0.1563  0.0558
  138loPI   C3A 2201   7.223  16.338   8.523  0.2566  0.1624  0.2196
  138loPI   C4A 2202   6.906  16.311   8.173 -0.0314  0.1549 -0.0113
  138loPI   C5A 2203   6.517  16.192   8.084 -0.2124  0.0816  0.0779
  138loPI   C6A 2204   6.168  16.103   8.055 -0.1219  0.1695  0.0676
  138loPI   C1B 2205   7.296  16.990   9.472  0.2088  0.1905  0.2789
  138loPI   C2B 2206   7.329  16.978   9.100 -0.0202 -0.0002 -0.1338
  138loPI   C3B 2207   7.357  16.834   8.632 -0.0390 -0.1044 -0.3418
  138loPI   C4B 2208   7.487  16.587   8.205 -0.0727  0.1016  0.2471
  139loPI    C1 2209   7.341  14.411  10.348  0.2894 -0.0899 -0.3588
  139loPI    C2 2210   7.062  14.243  10.116  0.0357 -0.0674 -0.0755
  139loPI    C3 2211   7.131  14.098  10.482  0.1148  0.1781  0.0088
  139loPI   PO4 2212   7.567  14.420  10.215 -0.0216 -0.2523 -0.2849
  139loPI   GL1 2213   7.709  14.356   9.887  0.3546 -0.1250  0.0293
  139loPI   GL2 2214   7.456  14.124   9.828  0.1771 -0.1227 -0.2175
  139loPI   C1A 2215   7.798  14.360   9.430  0.0156  0.0544 -0.0554
  139loPI   C2A 2216   7.860  14.270   8.939  0.1863  0.0391  0.0351
  139loPI   C3A 2217   8.062  14.407   8.553 -0.2428 -0.0592 -0.1511
  139loPI   C4A 2218   8.597  14.494   8.432 -0.0661 -0.1800  0.3272
  139loPI   C5A 2219   8.874  14.822   8.341 -0.2889 -0.0628  0.0158
  139loPI   C6A 2220   9.223  14.903   8.105 -0.1417 -0.1210 -0.1233
  139loPI   C1B 2221   7.474  13.978   9.397  0.0008 -0.3097  0.0116
  139loPI   C2B 2222   7.427  13.822   9.021 -0.0226  0.1625  0.2912
  139loPI   C3B 2223   7.569  13.738   8.565 -0.3460  0.2062 -0.0140
  139loPI   C4B 2224   7.497  13.702   8.117 -0.3554  0.2929 -0.1285
  140loPI    C1 2225  17.769   2.684   9.912 -0.1121 -0.0093  0.0982
  140loPI    C2 2226  17.727   2.905  10.243  0.3001  0.0524  0.1150
  140loPI    C3 2227  18.090   2.850  10.084  0.1769 -0.4314 -0.0164
  140loPI   PO4 2228  17.663   2.777   9.748  0.1276 -0.2641  0.1650
  140loPI   GL1 2229  17.497   2.973   9.447 -0.1626 -0.0026 -0.0532
  140loPI   GL2 2230  17.571   3.268   9.478 -0.1459 -0.1790 -0.2932
  140loPI   C1A 2231  17.609   2.784   9.017 -0.1625 -0.1150 -0.2662
  140loPI   C2A 2232  17.714   2.679   8.642  0.1781  0.3820 -0.1990
  140loPI   C3A 2233  17.641   2.850   8.310  0.0222  0.1452  0.4882
  140loPI   C4A 2234  17.474   3.136   8.023 -0.1047 -0.0317 -0.0354
  140loPI   C5A 2235  17.039   3.262   7.864 -0.0279 -0.3214 -0.0424
  140loPI   C6A 2236  16.904   3.426   7.571 -0.0612  0.0958 -0.1009
  140loPI   C1B 2237  17.521   3.377   9.069  0.0125 -0.0162 -0.0150
  140loPI   C2B 2238  17.502   3.600   8.652 -0.2536 -0.0535 -0.3180
  140loPI   C3B 2239  17.425   3.766   8.124 -0.1521 -0.0527 -0.1273
  140loPI   C4B 2240  17.087   3.993   7.978 -0.0415  0.0167 -0.2127
  141loPI    C1 2241  11.772  17.559  10.101  0.0301  0.0943 -0.1968
  141loPI    C2 2242  11.987  17.549  10.439  0.0493 -0.0803 -0.2133
  141loPI    C3 2243  11.587  17.527  10.455  0.0514 -0.1117 -0.2026
  141loPI   PO4 2244  11.910  17.392   9.926  0.0917  0.1560  0.4672
  141loPI   GL1 2245  11.666  17.065   9.664  0.0978 -0.0334 -0.1893
  141loPI   GL2 2246  11.368  16.921   9.696 -0.1374  0.0199  0.1310
  141loPI   C1A 2247  11.621  17.274   9.368  0.5247 -0.3919 -0.1673
  141loPI   C2A 2248  11.509  17.286   8.909 -0.4130  0.0715  0.1324
  141loPI   C3A 2249  11.374  17.471   8.487 -0.3784  0.1334  0.1160
  141loPI   C4A 2250  11.075  17.625   8.200  0.1737 -0.2603 -0.1819
  141loPI   C5A 2251  10.835  17.949   8.213 -0.4080  0.0506  0.3061
  141loPI   C6A 2252  10.632  18.264   8.342 -0.1386 -0.1268 -0.2263
  141loPI   C1B 2253  11.312  16.838   9.310 -0.2173 -0.1669 -0.0949
  141loPI   C2B 2254  11.237  16.812   8.851  0.0047  0.2481  0.1741
  141loPI   C3B 2255  11.098  16.967   8.525 -0.0669  0.6050  0.1609
  141loPI   C4B 2256  10.848  16.817   8.237 -0.1111  0.2300  0.3593
  142loPI    C1 2257   2.172   7.905  10.818 -0.0279  0.2776  0.1125
  142loPI    C2 2258   2.411   7.906  11.139 -0.1069 -0.0395  0.1753
  142loPI    C3 2259   2.014   7.917  11.185 -0.1131  0.1969  0.0786
  142loPI   PO4 2260   2.164   7.676  10.628  0.2142  0.1070  0.0134
  142loPI   GL1 2261   2.363   7.525  10.257 -0.1527  0.1494 -0.0610
  142loPI   GL2 2262   2.094   7.408  10.179 -0.0417  0.1447  0.1148
  142loPI   C1A 2263   2.419   7.647   9.766  0.3752  0.1919  0.0874
  142loPI   C2A 2264   2.388   7.555   9.403 -0.1708  0.2330  0.2087
  142loPI   C3A 2265   2.231   7.656   9.007  0.1159  0.2119  0.1848
  142loPI   C4A 2266   2.206   7.592   8.519  0.1676 -0.3006 -0.1834
  142loPI   C5A 2267   2.559   7.524   8.282 -0.1482 -0.1127  0.0524
  142loPI   C6A 2268   2.901   7.861   8.267 -0.4440  0.0574 -0.0231
  142loPI   C1B 2269   2.014   7.327   9.795 -0.3684  0.1598 -0.2533
  142loPI   C2B 2270   1.953   7.238   9.317  0.1660  0.0687  0.2518
  142loPI   C3B 2271   1.996   7.140   8.782  0.2155 -0.0112 -0.0501
  142loPI   C4B 2272   2.254   6.917   8.640  0.2437  0.3621  0.3428
  143loPI    C1 2273   6.384   9.666  10.488 -0.1541  0.2059  0.0622
  143loPI    C2 2274   6.321   9.335  10.704 -0.1357 -0.0858 -0.3676
  143loPI    C3 2275   6.435   9.673  10.885 -0.1058 -0.3242  0.0727
  143loPI   PO4 2276   6.069   9.609  10.350  0.0631  0.1773  0.0856
  143loPI   GL1 2277   5.938   9.496   9.945  0.0564  0.0249 -0.1174
  143loPI   GL2 2278   5.740   9.238   9.963 -0.1395  0.1494  0.2951
  143loPI   C1A 2279   6.127   9.133   9.700  0.2570  0.2458  0.0730
  143loPI   C2A 2280   6.275   8.973   9.348 -0.0930  0.2826  0.0426
  143loPI   C3A 2281   6.223   8.857   8.938  0.0696 -0.1032 -0.1209
  143loPI   C4A 2282   6.008   8.619   8.749  0.1753  0.0345  0.1911
  143loPI   C5A 2283   5.599   8.476   8.620 -0.2777 -0.1752  0.0598
  143loPI   C6A 2284   5.134   8.508   8.405 -0.0494  0.0142  0.0298
  143loPI   C1B 2285   5.675   9.229   9.508 -0.0194 -0.0661 -0.3619
  143loPI   C2B 2286   5.655   9.095   9.095 -0.1923  0.0933  0.4390
  143loPI   C3B 2287   5.634   8.974   8.705 -0.0467 -0.4844  0.0253
  143loPI   C4B 2288   5.687   9.114   8.262  0.1451 -0.1544  0.0890
  144loPI    C1 2289   7.608  12.239  10.337  0.1388  0.0123 -0.0807
  144loPI    C2 2290   7.354  12.549  10.326 -0.1159 -0.1935 -0.0964
  144loPI    C3 2291   7.348  12.296  10.636  0.2774 -0.0329  0.0497
  144loPI   PO4 2292   7.867  12.371  10.272  0.1043 -0.0875 -0.0532
  144loPI   GL1 2293   8.059  12.261   9.871  0.2275  0.0935 -0.2356
  144loPI   GL2 2294   8.106  12.558   9.869  0.1303  0.2510  0.0175
  144loPI   C1A 2295   7.862  12.330   9.422 -0.1459 -0.2772 -0.1685
  144loPI   C2A 2296   7.615  12.301   9.023 -0.1323  0.1394 -0.3070
  144loPI   C3A 2297   7.678  12.248   8.581 -0.0647 -0.0084 -0.0811
  144loPI   C4A 2298   7.687  11.996   8.168 -0.2639  0.0434  0.5071
  144loPI   C5A 2299   7.694  11.788   7.808  0.0138  0.0377 -0.0165
  144loPI   C6A 2300   7.722  11.856   7.398 -0.0401 -0.2256  0.0725
  144loPI   C1B 2301   7.941  12.862   9.572  0.3601 -0.1912 -0.1013
  144loPI   C2B 2302   8.022  13.003   9.234  0.2563  0.1513 -0.1527
  144loPI   C3B 2303   8.047  13.201   8.854 -0.5028 -0.0667 -0.0951
  144loPI   C4B 2304   7.768  13.234   8.484 -0.2306 -0.2595  0.0618
  145loPI    C1 2305   4.830  15.815  10.109 -0.0325  0.1324 -0.0549
  145loPI    C2 2306   4.921  16.126  10.343  0.1968 -0.1948  0.3046
  145loPI    C3 2307   5.190  15.987  10.082  0.0007  0.0647 -0.0460
  145loPI   PO4 2308   4.583  15.834  10.022  0.0805 -0.0387  0.2848
  145loPI   GL1 2309   4.403  16.105   9.713  0.3557 -0.1368 -0.1468
  145loPI   GL2 2310   4.643  15.880   9.451 -0.0094 -0.2438  0.2967
  145loPI   C1A 2311   4.409  16.363   9.304 -0.0196 -0.1651 -0.2015
  145loPI   C2A 2312   4.487  16.463   8.925 -0.0644  0.2346 -0.2619
  145loPI   C3A 2313   4.428  16.772   8.632 -0.3998  0.0564  0.1376
  145loPI   C4A 2314   4.256  17.002   8.213 -0.0185  0.2756 -0.0217
  145loPI   C5A 2315   3.867  16.795   7.911  0.0754  0.2088 -0.0182
  145loPI   C6A 2316   3.463  16.830   7.693  0.0029  0.1692 -0.0257
  145loPI   C1B 2317   4.701  15.938   9.110  0.1866  0.0280 -0.1986
  145loPI   C2B 2318   4.768  16.084   8.696 -0.0664  0.0230 -0.3560
  145loPI   C3B 2319   4.839  16.368   8.348  0.3221 -0.0812  0.1243
  145loPI   C4B 2320   4.738  16.762   8.044 -0.2261 -0.5871 -0.1204
  146loPI    C1 2321   5.003   2.529  10.448  0.0613  0.0102 -0.1476
  146loPI    C2 2322   4.820   2.784  10.200  0.1453  0.1947 -0.0221
  146loPI    C3 2323   4.965   2.913  10.550  0.2245 -0.0178  0.0256
  146loPI   PO4 2324   5.171   2.438  10.254  0.1249  0.0338  0.1441
  146loPI   GL1 2325   5.409   2.319   9.804 -0.0287 -0.1796 -0.2244
  146loPI   GL2 2326   5.321   2.651   9.775 -0.0377 -0.0120  0.3503
  146loPI   C1A 2327   5.202   2.342   9.373  0.2156  0.0037  0.0420
  146loPI   C2A 2328   5.092   2.317   8.993  0.0139 -0.1859  0.3648
  146loPI   C3A 2329   5.191   2.204   8.596 -0.1205  0.2081  0.0427
  146loPI   C4A 2330   5.374   2.092   8.293 -0.1052  0.0791  0.2843
  146loPI   C5A 2331   5.693   2.173   8.082 -0.0639 -0.0921  0.1001
  146loPI   C6A 2332   6.059   2.417   7.927 -0.1691  0.2199  0.2414
  146loPI   C1B 2333   5.200   2.843   9.412  0.1112 -0.2782  0.0417
  146loPI   C2B 2334   5.157   2.779   8.937  0.1446 -0.1395 -0.3643
  146loPI   C3B 2335   5.041   2.667   8.552 -0.0132  0.0860  0.1631
  146loPI   C4B 2336   5.053   2.604   8.114 -0.0620 -0.0501 -0.0014
  147loPI    C1 2337  12.228   1.052  10.248 -0.2366 -0.1448 -0.1383
  147loPI    C2 2338  12.367   1.359  10.463 -0.0476 -0.2319 -0.1335
  147loPI    C3 2339  11.976   1.332  10.381 -0.0511  0.0661 -0.2254
  147loPI   PO4 2340  12.310   1.046  10.105 -0.3391  0.1847  0.0753
  147loPI   GL1 2341  12.366   1.143   9.721 -0.0664  0.2027  0.1424
  147loPI   GL2 2342  12.343   0.875   9.659  0.0293  0.0699  0.0690
  147loPI   C1A 2343  12.466   1.342   9.328  0.2497  0.1326  0.2246
  147loPI   C2A 2344  12.488   1.389   8.823  0.1342 -0.1940 -0.0298
  147loPI   C3A 2345  12.469   1.604   8.454  0.1312  0.1276  0.2915
  147loPI   C4A 2346  12.425   1.757   7.999  0.0408 -0.1032  0.1208
  147loPI   C5A 2347  12.250   2.100   7.791 -0.0536 -0.1263 -0.0435
  147loPI   C6A 2348  12.000   2.530   7.846  0.0320  0.0348  0.1824
  147loPI   C1B 2349  12.322   0.849   9.186 -0.0183 -0.0383 -0.0401
  147loPI   C2B 2350  12.391   0.888   8.780 -0.0115 -0.1916  0.3355
  147loPI   C3B 2351  12.617   1.111   8.434  0.1390  0.0490  0.3025
  147loPI   C4B 2352  12.764   1.403   8.166 -0.0767  0.3268  0.0808
  148loPI    C1 2353  15.631  14.718  10.430 -0.0055 -0.0293  0.4301
  148loPI    C2 2354  15.372  14.449  10.574 -0.1249 -0.0638  0.1560
  148loPI    C3 2355  15.757  14.351  10.526 -0.1437 -0.1471  0.1729
  148loPI   PO4 2356  15.593  14.789  10.101  0.0424 -0.2563  0.0800
  148loPI   GL1 2357  15.495  14.769   9.707 -0.0792  0.0760 -0.2469
  148loPI   GL2 2358  15.136  14.709   9.725 -0.1316 -0.1789  0.1313
  148loPI   C1A 2359  15.541  14.987   9.336 -0.1847  0.0471  0.2901
  148loPI   C2A 2360  15.463  14.916   8.886  0.1222  0.0154 -0.2883
  148loPI   C3A 2361  15.493  14.494   8.745  0.1764 -0.0917 -0.1651
  148loPI   C4A 2362  15.398  14.248   8.373 -0.2419  0.2049 -0.1837
  148loPI   C5A 2363  15.358  13.904   8.164  0.0117  0.0211 -0.1729
  148loPI   C6A 2364  15.286  13.426   8.228  0.2880 -0.0016  0.0949
  148loPI   C1B 2365  15.260  14.503   9.273  0.0997 -0.3691 -0.1904
  148loPI   C2B 2366  15.019  14.564   9.037 -0.1171  0.0286 -0.1053
  148loPI   C3B 2367  14.647  14.323   9.007 -0.1864 -0.1342 -0.2113
  148loPI   C4B 2368  14.476  14.412   8.549 -0.0076  0.1522 -0.3022
  149loPI    C1 2369  17.127   0.473   9.905  0.2381  0.0196  0.0161
  149loPI    C2 2370  17.356   0.554  10.223  0.2386 -0.1870  0.0699
  149loPI    C3 2371  17.100   0.247  10.234 -0.0942  0.0835  0.0357
  149loPI   PO4 2372  16.945   0.714   9.825 -0.2962  0.0757 -0.1730
  149loPI   GL1 2373  16.611   0.592   9.630  0.2017 -0.1722 -0.1805
  149loPI   GL2 2374  16.834   0.540   9.364 -0.0340  0.0580  0.0568
  149loPI   C1A 2375  16.427   0.837   9.415 -0.1949  0.3672  0.0159
  149loPI   C2A 2376  16.264   1.162   9.099 -0.0572  0.0232 -0.0979
  149loPI   C3A 2377  16.490   1.385   8.746 -0.0770 -0.2157  0.0572
  149loPI   C4A 2378  16.739   1.503   8.359 -0.2013  0.0691  0.4526
  149loPI   C5A 2379  16.894   1.640   7.947  0.2509 -0.0243 -0.0784
  149loPI   C6A 2380  17.312   1.695   7.801  0.0894 -0.0538  0.1824
  149loPI   C1B 2381  17.128   0.574   8.998  0.1756 -0.0301 -0.2074
  149loPI   C2B 2382  17.451   0.664   8.709 -0.2463 -0.0025 -0.1458
  149loPI   C3B 2383  17.361   0.726   8.353  0.0408  0.2426 -0.0124
  149loPI   C4B 2384  17.297   0.689   7.991 -0.1455 -0.1868 -0.1069
  150loPI    C1 2385  17.468   4.920  10.658  0.1859  0.0264 -0.1907
  150loPI    C2 2386  17.598   5.297  10.622 -0.0506  0.1452  0.1519
  150loPI    C3 2387  17.694   5.082  10.946 -0.2031  0.0291  0.1212
  150loPI   PO4 2388  17.340   4.935  10.251 -0.1731 -0.1071  0.1719
  150loPI   GL1 2389  17.627   5.160  10.021  0.1029  0.1395  0.0143
  150loPI   GL2 2390  17.664   4.769   9.939  0.1475  0.0132 -0.1147
  150loPI   C1A 2391  17.778   5.147   9.626 -0.3311 -0.1320 -0.3381
  150loPI   C2A 2392  17.890   5.044   9.155 -0.0110  0.2889 -0.0195
  150loPI   C3A 2393  17.753   5.321   8.761  0.1095 -0.0548  0.0638
  150loPI   C4A 2394  17.688   5.258   8.309  0.0225  0.1215  0.3452
  150loPI   C5A 2395  17.813   5.003   8.091  0.0077 -0.2759  0.2047
  150loPI   C6A 2396  17.949   4.584   8.031 -0.1214  0.0337  0.2464
  150loPI   C1B 2397  17.827   4.639   9.605 -0.0232 -0.0660 -0.1008
  150loPI   C2B 2398  18.072   4.537   9.299  0.0400 -0.2485  0.0081
  150loPI   C3B 2399  18.183   4.642   8.896  0.1153  0.1750  0.1058
  150loPI   C4B 2400  18.003   4.927   8.598  0.1251 -0.0737  0.0350
  151loPI    C1 2401  15.090  11.313  10.739 -0.0437  0.1996  0.0734
  151loPI    C2 2402  15.090  11.625  10.990  0.2331  0.1794  0.1018
  151loPI    C3 2403  15.290  11.292  11.085  0.0802  0.0550 -0.0058
  151loPI   PO4 2404  15.129  11.416  10.511  0.0296 -0.0676 -0.1167
  151loPI   GL1 2405  14.986  11.526  10.122 -0.1971  0.0088 -0.2889
  151loPI   GL2 2406  14.560  11.525   9.956  0.0982 -0.2900 -0.3197
  151loPI   C1A 2407  15.174  11.787   9.802 -0.2265  0.1431 -0.1854
  151loPI   C2A 2408  15.098  11.839   9.387 -0.1372 -0.1238 -0.1943
  151loPI   C3A 2409  15.014  11.953   9.016  0.0891 -0.0611  0.0923
  151loPI   C4A 2410  15.048  12.099   8.524 -0.3877 -0.0458 -0.2092
  151loPI   C5A 2411  15.111  12.483   8.282  0.1531 -0.0563  0.0820
  151loPI   C6A 2412  14.953  12.913   8.128 -0.0082  0.0750  0.1741
  151loPI   C1B 2413  14.632  11.813   9.569 -0.1628 -0.1486 -0.0086
  151loPI   C2B 2414  14.665  11.638   9.115  0.1681  0.2114  0.3137
  151loPI   C3B 2415  14.389  11.494   8.720 -0.2143 -0.1844 -0.1426
  151loPI   C4B 2416  14.183  11.260   8.529  0.0333  0.4348  0.0216
  152loPI    C1 2417  10.091  11.870  10.415 -0.1383  0.2000  0.0136
  152loPI    C2 2418  10.220  12.242  10.482 -0.1555  0.2234 -0.0805
  152loPI    C3 2419  10.057  12.030  10.779 -0.1746  0.3022 -0.0344
  152loPI   PO4 2420  10.259  11.745  10.297 -0.1941  0.0310 -0.0946
  152loPI   GL1 2421  10.581  11.802  10.029 -0.1308 -0.2463 -0.2784
  152loPI   GL2 2422  10.473  12.118  10.046  0.0802 -0.1928 -0.0354
  152loPI   C1A 2423  10.604  11.810   9.545 -0.1511  0.1092 -0.3964
  152loPI   C2A 2424  10.495  11.593   9.209 -0.2971  0.0816  0.1608
  152loPI   C3A 2425  10.554  11.401   8.782  0.2342 -0.0064 -0.1902
  152loPI   C4A 2426  10.476  11.104   8.520  0.0510 -0.0422 -0.1621
  152loPI   C5A 2427  10.242  10.814   8.392  0.2323 -0.0641 -0.1811
  152loPI   C6A 2428  10.173  10.396   8.349  0.0080 -0.0021 -0.2220
  152loPI   C1B 2429  10.260  12.268   9.603 -0.1337 -0.0390 -0.2895
  152loPI   C2B 2430  10.326  12.033   9.187 -0.0122 -0.2363 -0.2853
  152loPI   C3B 2431  10.389  11.855   8.745 -0.1119 -0.0553  0.0584
  152loPI   C4B 2432  10.635  11.724   8.402 -0.2534  0.3738  0.2344
  153loPI    C1 2433  13.969   3.337  10.601 -0.1917 -0.0103  0.0282
  153loPI    C2 2434  14.263   3.281  10.866 -0.0241 -0.1055 -0.1750
  153loPI    C3 2435  13.893   3.365  10.992  0.0906  0.0229  0.0826
  153loPI   PO4 2436  14.066   3.198  10.390 -0.1635  0.3319  0.0768
  153loPI   GL1 2437  14.093   3.060   9.986 -0.0125 -0.0544  0.1474
  153loPI   GL2 2438  14.328   2.895  10.084 -0.1132  0.2354 -0.1896
  153loPI   C1A 2439  14.103   3.242   9.633 -0.2845 -0.0022  0.0503
  153loPI   C2A 2440  14.189   3.241   9.172  0.1397 -0.4420 -0.0369
  153loPI   C3A 2441  14.203   2.974   8.770 -0.3560 -0.0779  0.0240
  153loPI   C4A 2442  14.259   2.973   8.231  0.0221  0.0241 -0.0836
  153loPI   C5A 2443  14.691   3.071   8.081 -0.0387  0.2763  0.0173
  153loPI   C6A 2444  15.159   3.210   8.136 -0.3013 -0.0000  0.0246
  153loPI   C1B 2445  14.242   2.790   9.491 -0.1250  0.2074 -0.1568
  153loPI   C2B 2446  14.114   2.604   9.159 -0.2312 -0.2377  0.1825
  153loPI   C3B 2447  14.251   2.316   8.800 -0.0606 -0.0434 -0.0891
  153loPI   C4B 2448  14.362   2.041   8.461  0.0551 -0.2252  0.0034
  154loPI    C1 2449   7.789   6.683  10.483 -0.0121 -0.1593 -0.1638
  154loPI    C2 2450   8.038   6.405  10.628  0.1611 -0.0039 -0.1593
  154loPI    C3 2451   7.978   6.745  10.830 -0.0286 -0.0249 -0.1785
  154loPI   PO4 2452   7.899   6.718  10.193  0.2160 -0.1757 -0.1578
  154loPI   GL1 2453   7.984   6.459   9.812  0.1438 -0.0611 -0.1253
  154loPI   GL2 2454   7.847   6.152   9.716 -0.0904 -0.0688 -0.0460
  154loPI   C1A 2455   7.932   6.585   9.411 -0.0942 -0.0549  0.2385
  154loPI   C2A 2456   7.873   6.664   8.954  0.1646  0.3379 -0.0987
  154loPI   C3A 2457   7.776   6.567   8.573  0.1818 -0.1634 -0.1598
  154loPI   C4A 2458   7.629   6.217   8.386  0.1085 -0.1302  0.0150
  154loPI   C5A 2459   7.846   5.840   8.420  0.1080  0.1772  0.0241
  154loPI   C6A 2460   8.237   5.765   8.456 -0.3409 -0.1513  0.0611
  154loPI   C1B 2461   7.867   5.976   9.337  0.1837  0.0461 -0.1132
  154loPI   C2B 2462   7.841   5.715   9.162  0.0840  0.2573  0.2149
  154loPI   C3B 2463   7.795   5.465   8.735  0.1845 -0.1041 -0.0160
  154loPI   C4B 2464   7.894   5.301   8.300  0.0739 -0.2735 -0.2533
  155loPI    C1 2465  17.415  17.520  10.351 -0.0276 -0.0300  0.1480
  155loPI    C2 2466  17.200  17.856  10.387  0.1757  0.1170  0.0156
  155loPI    C3 2467  17.027  17.500  10.448 -0.1007  0.2331 -0.0764
  155loPI   PO4 2468  17.525  17.519  10.164 -0.2277  0.2068  0.2249
  155loPI   GL1 2469  17.613  17.768   9.840  0.5486 -0.0116 -0.2055
  155loPI   GL2 2470  17.952  17.754   9.934 -0.0660  0.0096 -0.1438
  155loPI   C1A 2471  17.579  17.601   9.482 -0.1705  0.1280  0.0153
  155loPI   C2A 2472  17.566  17.440   9.161  0.1834  0.1576  0.4143
  155loPI   C3A 2473  17.647  17.570   8.793 -0.0915 -0.2179  0.3683
  155loPI   C4A 2474  17.786  17.901   8.648 -0.2251 -0.3183 -0.0410
  155loPI   C5A 2475  17.772  18.340   8.398 -0.1196  0.2142  0.0226
  155loPI   C6A 2476  17.765  18.541   7.948 -0.0604  0.1572  0.1551
  155loPI   C1B 2477  18.102  17.607   9.539  0.1166 -0.1390 -0.2117
  155loPI   C2B 2478  18.008  17.662   9.121 -0.1494 -0.0644  0.0340
  155loPI   C3B 2479  18.117  17.483   8.713 -0.1285  0.1984  0.0529
  155loPI   C4B 2480  18.255  17.129   8.484  0.0805 -0.1368  0.1553
  156loPI    C1 2481  12.557  12.911  10.823  0.2635 -0.2188  0.0706
  156loPI    C2 2482  12.812  13.021  10.534  0.1325 -0.2588 -0.0616
  156loPI    C3 2483  12.651  13.297  10.775  0.0453 -0.1954 -0.1916
  156loPI   PO4 2484  12.403  12.631  10.569  0.2449  0.1808  0.1773
  156loPI   GL1 2485  12.690  12.694  10.216 -0.1736  0.1682  0.1093
  156loPI   GL2 2486  12.456  12.941  10.182 -0.1131 -0.2298  0.0779
  156loPI   C1A 2487  12.911  12.745   9.817  0.1620  0.3095 -0.2035
  156loPI   C2A 2488  12.987  12.648   9.421  0.0110  0.0962 -0.0693
  156loPI   C3A 2489  12.938  12.566   9.025 -0.0191  0.2817 -0.0055
  156loPI   C4A 2490  12.664  12.306   8.890  0.1987 -0.0144  0.1290
  156loPI   C5A 2491  12.532  12.094   8.579  0.1307 -0.1519  0.2319
  156loPI   C6A 2492  12.545  12.066   8.130 -0.0476  0.1009 -0.2666
  156loPI   C1B 2493  12.456  12.926   9.783  0.1246 -0.1334 -0.2876
  156loPI   C2B 2494  12.541  12.822   9.335 -0.0371 -0.1459 -0.3156
  156loPI   C3B 2495  12.567  12.845   8.928  0.1842 -0.0769 -0.1789
  156loPI   C4B 2496  12.363  12.983   8.506 -0.1692 -0.1640 -0.0683
  157loPI    C1 2497   3.244   0.421  10.167  0.2425 -0.2721  0.3316
  157loPI    C2 2498   2.943   0.433   9.903  0.2722  0.3405  0.3102
  157loPI    C3 2499   3.094   0.081  10.019 -0.0690  0.0450 -0.1098
  157loPI   PO4 2500   3.427   0.606   9.997 -0.0970  0.5140  0.0325
  157loPI   GL1 2501   3.422   0.640   9.589  0.0081 -0.1712  0.0331
  157loPI   GL2 2502   3.722   0.491   9.583  0.0660 -0.3469  0.0159
  157loPI   C1A 2503   3.509   1.012   9.219  0.0680 -0.0038  0.1338
  157loPI   C2A 2504   3.346   1.187   8.837  0.1691 -0.0614 -0.0985
  157loPI   C3A 2505   3.426   1.471   8.528 -0.2435 -0.1766  0.2111
  157loPI   C4A 2506   3.567   1.670   8.183 -0.2318  0.1810  0.1030
  157loPI   C5A 2507   3.595   1.873   7.843  0.0567 -0.2803  0.3481
  157loPI   C6A 2508   3.901   1.999   7.711  0.0691 -0.1933  0.1681
  157loPI   C1B 2509   3.788   0.530   9.134  0.3835 -0.0717  0.0048
  157loPI   C2B 2510   3.733   0.534   8.765 -0.0722  0.7150  0.0520
  157loPI   C3B 2511   3.658   0.457   8.395 -0.0804 -0.3024 -0.1364
  157loPI   C4B 2512   3.510   0.564   8.012 -0.0411 -0.0239  0.1092
  158loPI    C1 2513   4.259   5.782  10.530  0.2130 -0.0577  0.1744
  158loPI    C2 2514   4.110   6.132  10.654  0.2051 -0.0654  0.1868
  158loPI    C3 2515   3.963   5.790  10.799 -0.0900 -0.0879 -0.1512
  158loPI   PO4 2516   4.434   5.989  10.301 -0.1778  0.0300  0.1135
  158loPI   GL1 2517   4.409   6.313   9.851 -0.0822  0.0720  0.3237
  158loPI   GL2 2518   4.158   6.235   9.956  0.2279 -0.0283  0.1792
  158loPI   C1A 2519   4.630   6.514   9.505 -0.0126 -0.0256 -0.1619
  158loPI   C2A 2520   4.499   6.449   9.147  0.3330  0.1334 -0.0870
  158loPI   C3A 2521   4.431   6.304   8.812 -0.3149 -0.0217 -0.0227
  158loPI   C4A 2522   4.218   6.310   8.381  0.1625 -0.3019 -0.0784
  158loPI   C5A 2523   4.004   6.216   8.040  0.0297 -0.1654 -0.0447
  158loPI   C6A 2524   3.722   5.898   7.938  0.1208  0.0364  0.2337
  158loPI   C1B 2525   4.119   6.258   9.462  0.1083  0.1627 -0.2848
  158loPI   C2B 2526   3.892   6.227   9.098  0.2078  0.0623  0.2012
  158loPI   C3B 2527   3.947   6.088   8.682  0.0080  0.2031 -0.2031
  158loPI   C4B 2528   3.928   5.708   8.337 -0.0667  0.0466  0.3034
  159loPI    C1 2529   4.568  17.411  10.147  0.0830 -0.1812 -0.0625
  159loPI    C2 2530   4.726  17.094  10.333  0.2137 -0.0249  0.0968
  159loPI    C3 2531   4.840  17.463  10.436 -0.2860  0.0958  0.2443
  159loPI   PO4 2532   4.529  17.282   9.919  0.0015  0.4264 -0.0518
  159loPI   GL1 2533   4.645  17.274   9.463 -0.0173 -0.0015  0.2949
  159loPI   GL2 2534   4.957  17.333   9.499 -0.0320 -0.0896  0.0897
  159loPI   C1A 2535   4.660  17.630   9.152  0.0063 -0.3025 -0.0930
  159loPI   C2A 2536   4.495  17.707   8.820 -0.1414  0.1380 -0.2915
  159loPI   C3A 2537   4.388  17.828   8.399 -0.1739  0.2999 -0.1294
  159loPI   C4A 2538   4.539  18.138   8.184  0.0463 -0.1792 -0.0189
  159loPI   C5A 2539   4.781  18.390   7.923 -0.0769 -0.0254 -0.0237
  159loPI   C6A 2540   5.085  18.831   8.020 -0.2472  0.1840  0.2983
  159loPI   C1B 2541   5.062  17.319   9.049  0.1108  0.1023  0.0823
  159loPI   C2B 2542   5.043  17.342   8.688 -0.2077 -0.0597 -0.0202
  159loPI   C3B 2543   4.957  17.225   8.232  0.4923  0.1360 -0.0977
  159loPI   C4B 2544   5.209  17.447   7.957 -0.2313 -0.1085  0.1305
  160loPI    C1 2545   9.463  10.178  10.570 -0.0094  0.0660  0.0631
  160loPI    C2 2546   9.671  10.517  10.616  0.1194 -0.0328  0.2227
  160loPI    C3 2547   9.776  10.190  10.819 -0.0304 -0.1578  0.1015
  160loPI   PO4 2548   9.344  10.148  10.311 -0.0334 -0.2158 -0.0877
  160loPI   GL1 2549   9.412  10.259   9.907  0.2628 -0.1565  0.0984
  160loPI   GL2 2550   9.540  10.043   9.878 -0.2082 -0.4721  0.0837
  160loPI   C1A 2551   9.196  10.458   9.586 -0.1139  0.0317 -0.0185
  160loPI   C2A 2552   9.027  10.464   9.169  0.1677  0.1756 -0.0792
  160loPI   C3A 2553   9.071  10.211   8.835  0.1005 -0.1242  0.0768
  160loPI   C4A 2554   9.294  10.046   8.574  0.1530 -0.0332  0.0138
  160loPI   C5A 2555   9.626   9.690   8.508  0.3788  0.1167 -0.0984
  160loPI   C6A 2556   9.570   9.255   8.460 -0.0817  0.2698 -0.1299
  160loPI   C1B 2557   9.473   9.992   9.439 -0.0701 -0.0208 -0.1198
  160loPI   C2B 2558   9.472   9.873   9.047  0.2138  0.0720 -0.1596
  160loPI   C3B 2559   9.218   9.577   8.779  0.2572 -0.0440  0.4094
  160loPI   C4B 2560   9.079   9.655   8.339 -0.0207 -0.1380 -0.0810
  161loPI    C1 2561  12.291  13.450  10.486 -0.0421  0.0380 -0.2423
  161loPI    C2 2562  12.177  13.081  10.592 -0.0669  0.0978 -0.0577
  161loPI    C3 2563  11.907  13.375  10.570 -0.0094  0.1573  0.0239
  161loPI   PO4 2564  12.462  13.387  10.306 -0.2791 -0.0276  0.1165
  161loPI   GL1 2565  12.618  13.360   9.930  0.1085 -0.0382 -0.2374
  161loPI   GL2 2566  12.876  13.204   9.990 -0.2465  0.1607  0.3886
  161loPI   C1A 2567  12.417  13.408   9.514 -0.0751 -0.3009  0.0618
  161loPI   C2A 2568  12.309  13.377   9.178 -0.0412 -0.1063 -0.0939
  161loPI   C3A 2569  12.280  13.417   8.713 -0.1479  0.0662  0.0211
  161loPI   C4A 2570  12.240  13.411   8.206 -0.0440  0.0766  0.1109
  161loPI   C5A 2571  12.457  13.214   7.882 -0.3088 -0.2114 -0.1340
  161loPI   C6A 2572  12.712  13.243   7.576 -0.0953  0.1049 -0.1075
  161loPI   C1B 2573  12.868  13.226   9.590  0.1477  0.1418  0.1352
  161loPI   C2B 2574  12.851  13.194   9.197 -0.0218 -0.3418  0.2414
  161loPI   C3B 2575  12.758  13.277   8.873 -0.0883 -0.2490  0.0305
  161loPI   C4B 2576  12.744  13.412   8.367  0.1608 -0.3205 -0.4499
  162loPI    C1 2577   9.395   7.659  11.023 -0.1162  0.0373 -0.0441
  162loPI    C2 2578   9.139   7.916  11.192  0.0059  0.1054  0.0383
  162loPI    C3 2579   9.188   7.551  11.348  0.0871  0.1532  0.1261
  162loPI   PO4 2580   9.256   7.613  10.824  0.0492 -0.0912  0.1838
  162loPI   GL1 2581   9.372   7.612  10.370 -0.4693 -0.1046 -0.0348
  162loPI   GL2 2582   9.549   7.348  10.277 -0.1543 -0.0524 -0.0288
  162loPI   C1A 2583   9.668   7.736   9.999  0.1346  0.0373 -0.0417
  162loPI   C2A 2584   9.756   7.628   9.580  0.0423 -0.0202  0.0059
  162loPI   C3A 2585   9.786   7.597   9.184 -0.0320  0.0702  0.0929
  162loPI   C4A 2586   9.643   7.633   8.820  0.0644  0.1379  0.1519
  162loPI   C5A 2587   9.527   7.773   8.399 -0.1033 -0.0787 -0.2538
  162loPI   C6A 2588   9.239   8.162   8.206 -0.2908  0.0472 -0.4710
  162loPI   C1B 2589   9.856   7.130   9.884  0.0014  0.0040  0.0104
  162loPI   C2B 2590   9.982   7.164   9.472  0.1893  0.0393  0.0356
  162loPI   C3B 2591   9.835   7.115   9.084 -0.0858 -0.1046 -0.0074
  162loPI   C4B 2592   9.980   7.100   8.687 -0.0974 -0.0679 -0.0340
  163loPI    C1 2593   2.959   6.771  10.716  0.0230 -0.1349 -0.1799
  163loPI    C2 2594   3.074   6.457  10.935 -0.1373 -0.1288 -0.0860
  163loPI    C3 2595   3.186   6.826  11.040  0.0179 -0.1502 -0.1738
  163loPI   PO4 2596   2.991   6.727  10.448 -0.0570  0.1943 -0.0494
  163loPI   GL1 2597   2.910   6.811  10.155 -0.2450  0.2595  0.0640
  163loPI   GL2 2598   3.131   7.054  10.066 -0.2462 -0.0253  0.1241
  163loPI   C1A 2599   2.641   6.682   9.785  0.0581  0.2183 -0.2710
  163loPI   C2A 2600   2.617   6.662   9.298  0.0184 -0.0176 -0.0333
  163loPI   C3A 2601   2.627   6.642   8.873  0.0326 -0.2429  0.0425
  163loPI   C4A 2602   2.624   6.570   8.475  0.0328 -0.1150  0.0219
  163loPI   C5A 2603   2.696   6.219   8.212  0.1165 -0.2439 -0.3028
  163loPI   C6A 2604   2.444   5.801   8.207 -0.0662 -0.0538  0.0010
  163loPI   C1B 2605   3.087   6.912   9.589  0.0772  0.0696 -0.0792
  163loPI   C2B 2606   3.065   6.964   9.194  0.1639 -0.2052  0.0197
  163loPI   C3B 2607   2.893   7.056   8.752  0.0536 -0.1689  0.0070
  163loPI   C4B 2608   2.971   7.262   8.360 -0.0785  0.3106  0.0881
  164loPI    C1 2609   8.752  11.289  10.571  0.0921 -0.0421 -0.1693
  164loPI    C2 2610   8.628  11.132  10.917 -0.0122 -0.1190 -0.2412
  164loPI    C3 2611   8.546  11.514  10.830 -0.0250 -0.1125 -0.2008
  164loPI   PO4 2612   8.658  11.177  10.416 -0.4321 -0.1349  0.0437
  164loPI   GL1 2613   8.663  11.362  10.054 -0.0439 -0.1472  0.3570
  164loPI   GL2 2614   8.538  11.024   9.924 -0.0948  0.0795 -0.1014
  164loPI   C1A 2615   8.674  11.478   9.623 -0.0433  0.1213  0.3276
  164loPI   C2A 2616   8.680  11.427   9.280  0.3223  0.0134 -0.1667
  164loPI   C3A 2617   8.764  11.537   8.939  0.2079 -0.2020  0.3124
  164loPI   C4A 2618   8.836  11.221   8.698 -0.0250  0.0298 -0.0471
  164loPI   C5A 2619   9.172  11.031   8.373 -0.0772 -0.0748 -0.0036
  164loPI   C6A 2620   9.444  11.027   7.977  0.1505  0.0154 -0.0119
  164loPI   C1B 2621   8.498  11.012   9.475 -0.0585  0.3194 -0.0277
  164loPI   C2B 2622   8.558  11.014   9.057  0.3358  0.2429  0.2626
  164loPI   C3B 2623   8.398  11.003   8.714  0.0456  0.2162  0.0228
  164loPI   C4B 2624   8.236  11.099   8.330  0.1249 -0.0012 -0.1534
  165loPI    C1 2625  16.225  14.627  10.450  0.2268 -0.0309 -0.1250
  165loPI    C2 2626  16.574  14.788  10.337  0.3434 -0.0477  0.1998
  165loPI    C3 2627  16.472  14.783  10.724  0.0861 -0.2513  0.1323
  165loPI   PO4 2628  16.136  14.606  10.210 -0.1400  0.0274 -0.0560
  165loPI   GL1 2629  16.435  14.799   9.856 -0.3160  0.1812  0.2490
  165loPI   GL2 2630  16.056  14.850   9.844  0.3619 -0.1602  0.1412
  165loPI   C1A 2631  16.585  14.580   9.517 -0.1680 -0.1974 -0.0072
  165loPI   C2A 2632  16.786  14.637   9.197  0.4023  0.3159 -0.1133
  165loPI   C3A 2633  16.874  14.512   8.864  0.1861 -0.3202  0.0474
  165loPI   C4A 2634  16.703  14.281   8.462 -0.0168  0.3016  0.0287
  165loPI   C5A 2635  16.823  13.896   8.407 -0.1095  0.3561 -0.0081
  165loPI   C6A 2636  17.079  13.483   8.554 -0.2349 -0.0844 -0.1919
  165loPI   C1B 2637  16.051  14.633   9.534 -0.1820 -0.0035  0.1160
  165loPI   C2B 2638  15.794  14.581   9.197  0.0272 -0.1043  0.0032
  165loPI   C3B 2639  15.960  14.252   8.943 -0.1419 -0.0100 -0.1634
  165loPI   C4B 2640  15.890  14.144   8.546  0.1863  0.1738  0.1154
  166loPI    C1 2641   7.717   2.741  10.510  0.1265 -0.0086  0.0348
  166loPI    C2 2642   7.419   2.477  10.550  0.1935 -0.0806  0.0609
  166loPI    C3 2643   7.379   2.848  10.694  0.0156 -0.0099 -0.1646
  166loPI   PO4 2644   7.816   2.575  10.264 -0.1648 -0.1422  0.2446
  166loPI   GL1 2645   7.478   2.349   9.991 -0.1886 -0.0695  0.1210
  166loPI   GL2 2646   7.189   2.116   9.796  0.0127  0.2719  0.0052
  166loPI   C1A 2647   7.629   2.311   9.625  0.2458 -0.1233  0.1104
  166loPI   C2A 2648   7.609   2.366   9.232  0.1452 -0.1179 -0.2263
  166loPI   C3A 2649   7.675   2.435   8.797 -0.2433 -0.1456 -0.0947
  166loPI   C4A 2650   7.605   2.646   8.377 -0.1605 -0.0208  0.1138
  166loPI   C5A 2651   7.615   2.938   8.022 -0.1445 -0.0819 -0.2428
  166loPI   C6A 2652   7.708   3.150   7.767 -0.2574  0.3028 -0.2379
  166loPI   C1B 2653   7.337   2.040   9.363 -0.0138  0.1844  0.3101
  166loPI   C2B 2654   7.491   1.924   9.004 -0.0787 -0.0257  0.0201
  166loPI   C3B 2655   7.752   1.971   8.579 -0.2601 -0.1799  0.0847
  166loPI   C4B 2656   7.910   1.849   8.114 -0.1233  0.0249  0.2303
  167loPI    C1 2657   3.764   0.212  10.447 -0.0888 -0.0453 -0.1073
  167loPI    C2 2658   3.797  -0.083  10.714  0.0308 -0.0130 -0.0857
  167loPI    C3 2659   3.826   0.298  10.832 -0.1502  0.0089 -0.1094
  167loPI   PO4 2660   3.620   0.105  10.288 -0.1644  0.0884 -0.4391
  167loPI   GL1 2661   3.570   0.149   9.873 -0.2447  0.1712  0.1096
  167loPI   GL2 2662   3.822  -0.047   9.851  0.0680  0.1116  0.1806
  167loPI   C1A 2663   3.299   0.118   9.530 -0.2849 -0.1190  0.2175
  167loPI   C2A 2664   3.204   0.354   9.203 -0.0031 -0.1547 -0.0251
  167loPI   C3A 2665   3.223   0.670   8.896 -0.1852  0.0108 -0.2218
  167loPI   C4A 2666   3.344   0.818   8.497  0.1788 -0.2507  0.2671
  167loPI   C5A 2667   3.059   1.099   8.285 -0.0541  0.3546  0.2073
  167loPI   C6A 2668   2.623   1.189   8.045 -0.2678 -0.0670 -0.2959
  167loPI   C1B 2669   3.805   0.018   9.391 -0.0029 -0.1930  0.0350
  167loPI   C2B 2670   3.576   0.059   9.050 -0.1455  0.0824 -0.0727
  167loPI   C3B 2671   3.251   0.222   8.708 -0.0271  0.0217 -0.2750
  167loPI   C4B 2672   3.097   0.338   8.340 -0.0035 -0.1294  0.1536
  168loPI    C1 2673  15.281   1.414  10.625 -0.1168  0.1135  0.1208
  168loPI    C2 2674  14.948   1.204  10.697 -0.1546  0.1962  0.1881
  168loPI    C3 2675  15.270   1.156  10.930 -0.0553 -0.0230  0.0089
  168loPI   PO4 2676  15.335   1.369  10.378 -0.2191  0.1327 -0.2101
  168loPI   GL1 2677  15.396   1.276   9.985 -0.0405  0.2437  0.0911
  168loPI   GL2 2678  15.168   1.252   9.864  0.0058  0.1836 -0.1264
  168loPI   C1A 2679  15.489   1.355   9.493  0.2842  0.2087  0.1630
  168loPI   C2A 2680  15.460   1.391   9.035  0.2250 -0.0148 -0.1565
  168loPI   C3A 2681  15.561   1.414   8.656 -0.0318  0.0091  0.1048
  168loPI   C4A 2682  15.637   1.472   8.228 -0.1753  0.0206  0.1045
  168loPI   C5A 2683  15.799   1.295   7.876 -0.0741  0.1813 -0.1917
  168loPI   C6A 2684  16.147   1.066   7.748 -0.0880 -0.2422  0.0231
  168loPI   C1B 2685  14.932   1.320   9.499 -0.0091  0.0122  0.3893
  168loPI   C2B 2686  15.024   1.140   9.165 -0.3474 -0.1557  0.0432
  168loPI   C3B 2687  15.069   1.221   8.727  0.1083  0.0802 -0.3677
  168loPI   C4B 2688  15.167   1.217   8.273  0.0099 -0.0327  0.0673
  169loPI    C1 2689  12.166   7.349  10.745  0.1703  0.0200  0.1402
  169loPI    C2 2690  12.084   7.690  10.937  0.0157  0.0769 -0.0239
  169loPI    C3 2691  12.124   7.349  11.143 -0.0792  0.1490  0.1156
  169loPI   PO4 2692  12.085   7.316  10.536  0.0236  0.0800  0.0412
  169loPI   GL1 2693  12.157   7.117  10.130 -0.0383  0.1322  0.1826
  169loPI   GL2 2694  12.307   7.453  10.113 -0.3216  0.0413  0.0308
  169loPI   C1A 2695  12.095   6.826   9.778  0.0344 -0.0060 -0.0670
  169loPI   C2A 2696  12.277   6.919   9.457 -0.2491 -0.0475 -0.0772
  169loPI   C3A 2697  12.423   7.205   9.197 -0.0022  0.2163  0.0147
  169loPI   C4A 2698  12.553   7.174   8.668 -0.1413 -0.2098  0.0152
  169loPI   C5A 2699  12.468   6.781   8.434 -0.0669 -0.1581  0.0714
  169loPI   C6A 2700  12.350   6.725   8.090  0.3610 -0.2034  0.3550
  169loPI   C1B 2701  12.556   7.567   9.786 -0.0057  0.0222  0.1253
  169loPI   C2B 2702  12.844   7.449   9.461  0.2799  0.0787  0.1412
  169loPI   C3B 2703  12.931   7.356   9.038 -0.1684 -0.0476 -0.1655
  169loPI   C4B 2704  13.072   7.194   8.676 -0.3193  0.0445  0.0594
  170loPI    C1 2705   1.898   6.691  10.809 -0.1336 -0.0859 -0.1954
  170loPI    C2 2706   1.995   6.378  11.038 -0.3765 -0.0563 -0.0491
  170loPI    C3 2707   1.718   6.638  11.162 -0.1588  0.2326 -0.1578
  170loPI   PO4 2708   2.089   6.769  10.654 -0.0825 -0.4019 -0.0972
  170loPI   GL1 2709   2.312   6.560  10.395 -0.1291  0.2653  0.1382
  170loPI   GL2 2710   2.630   6.332  10.335 -0.2865 -0.0625 -0.0440
  170loPI   C1A 2711   2.168   6.576   9.989 -0.1888 -0.0853 -0.0741
  170loPI   C2A 2712   2.126   6.816   9.535  0.4155 -0.1948  0.1575
  170loPI   C3A 2713   2.173   6.691   9.087  0.1364  0.0106 -0.6736
  170loPI   C4A 2714   2.173   6.413   8.663 -0.0119 -0.0616  0.2342
  170loPI   C5A 2715   2.201   6.213   8.300 -0.1218  0.3250 -0.0910
  170loPI   C6A 2716   2.212   6.121   7.908 -0.0169  0.1509  0.1696
  170loPI   C1B 2717   2.897   6.258   9.987 -0.0652 -0.0226  0.3503
  170loPI   C2B 2718   2.758   6.245   9.504 -0.0100  0.0260  0.0007
  170loPI   C3B 2719   2.909   6.034   9.122  0.1299 -0.0775 -0.0980
  170loPI   C4B 2720   3.010   5.752   8.829 -0.0318 -0.1834 -0.0550
  171loPI    C1 2721   9.372  15.022  10.444 -0.0151  0.1527 -0.1145
  171loPI    C2 2722   9.536  15.276  10.706  0.0366  0.0895 -0.0854
  171loPI    C3 2723   9.204  15.379  10.509 -0.1895  0.0091  0.2468
  171loPI   PO4 2724   9.570  15.041  10.267  0.0131 -0.0472 -0.0037
  171loPI   GL1 2725   9.748  14.970   9.837  0.4693 -0.2021 -0.1160
  171loPI   GL2 2726   9.850  15.282   9.841 -0.4487  0.0862 -0.1082
  171loPI   C1A 2727   9.634  14.671   9.431 -0.0909 -0.1884  0.0398
  171loPI   C2A 2728   9.662  14.566   8.989  0.3871  0.2110  0.0186
  171loPI   C3A 2729   9.889  14.484   8.658 -0.0582  0.0670  0.1240
  171loPI   C4A 2730  10.293  14.492   8.526  0.0681 -0.1855  0.1007
  171loPI   C5A 2731  10.587  14.770   8.270  0.1101  0.2924 -0.1038
  171loPI   C6A 2732  10.752  15.168   8.395 -0.1226  0.2268  0.2016
  171loPI   C1B 2733   9.987  15.215   9.336  0.0193  0.2723 -0.2644
  171loPI   C2B 2734   9.966  15.394   8.895  0.0127 -0.0725  0.2934
  171loPI   C3B 2735   9.945  15.424   8.417 -0.0019 -0.0179  0.0356
  171loPI   C4B 2736   9.862  15.514   7.984  0.2165  0.0207  0.3863
  172loPI    C1 2737  10.734  14.468  10.627 -0.2195  0.1761  0.1767
  172loPI    C2 2738  10.587  14.146  10.813  0.2809 -0.0320  0.2282
  172loPI    C3 2739  10.576  14.503  10.993 -0.1845 -0.0332  0.2134
  172loPI   PO4 2740  10.842  14.414  10.447  0.1009  0.1051 -0.2855
  172loPI   GL1 2741  10.951  14.459   9.994  0.0879  0.1989  0.2811
  172loPI   GL2 2742  11.309  14.591   9.859  0.4448 -0.1768  0.1442
  172loPI   C1A 2743  10.851  14.795   9.658 -0.1477  0.0695  0.2945
  172loPI   C2A 2744  10.757  14.786   9.228  0.2727  0.1609 -0.1315
  172loPI   C3A 2745  10.990  15.057   8.808  0.2677  0.3568 -0.4029
  172loPI   C4A 2746  11.383  15.181   8.547 -0.0273  0.1011  0.1197
  172loPI   C5A 2747  11.752  15.160   8.236  0.0622 -0.0655  0.0234
  172loPI   C6A 2748  11.736  14.864   7.880  0.3039 -0.1623  0.0508
  172loPI   C1B 2749  11.260  14.536   9.414  0.3368  0.3165  0.1743
  172loPI   C2B 2750  11.235  14.559   8.956  0.3492  0.1467 -0.2660
  172loPI   C3B 2751  11.211  14.752   8.471  0.1251 -0.1846 -0.0682
  172loPI   C4B 2752  11.224  14.928   8.116  0.0062  0.0236 -0.1403
  173loPI    C1 2753   9.091   5.516  10.538 -0.0499 -0.0032  0.0218
  173loPI    C2 2754   8.770   5.465  10.305 -0.0778 -0.0433  0.0687
  173loPI    C3 2755   8.740   5.678  10.642  0.0165  0.2099 -0.0799
  173loPI   PO4 2756   9.281   5.214  10.373  0.0338  0.0233  0.0047
  173loPI   GL1 2757   9.450   5.126   9.935  0.0304  0.0181 -0.0883
  173loPI   GL2 2758   9.329   4.819   9.808 -0.0288 -0.0191  0.1066
  173loPI   C1A 2759   9.217   5.316   9.553 -0.0866 -0.3028 -0.5656
  173loPI   C2A 2760   9.160   5.293   9.120 -0.2103 -0.1725 -0.3847
  173loPI   C3A 2761   9.164   5.421   8.632  0.0386 -0.1115 -0.1612
  173loPI   C4A 2762   9.062   5.843   8.459 -0.0968  0.0613 -0.1571
  173loPI   C5A 2763   8.981   6.084   8.778 -0.3776  0.0199 -0.0463
  173loPI   C6A 2764   8.777   6.505   8.751 -0.0858 -0.0292  0.1773
  173loPI   C1B 2765   9.679   4.583   9.504  0.0713 -0.1833  0.0295
  173loPI   C2B 2766   9.700   4.443   9.076 -0.2224 -0.0009  0.1221
  173loPI   C3B 2767   9.335   4.420   8.717 -0.1184 -0.0937  0.1472
  173loPI   C4B 2768   9.358   4.479   8.207 -0.0190  0.0008  0.1772
  174loPI    C1 2769   6.475  14.857  10.438 -0.0215 -0.0696  0.0769
  174loPI    C2 2770   6.232  14.912  10.751 -0.1242  0.1203 -0.0341
  174loPI    C3 2771   6.081  14.893  10.381  0.0033 -0.0362 -0.0793
  174loPI   PO4 2772   6.695  14.927  10.401 -0.2753  0.0222  0.1922
  174loPI   GL1 2773   6.940  14.702  10.076 -0.1331  0.0874 -0.0127
  174loPI   GL2 2774   7.241  14.693   9.858  0.0724  0.0553 -0.2197
  174loPI   C1A 2775   6.783  14.646   9.677 -0.1830  0.3983 -0.0401
  174loPI   C2A 2776   6.817  14.636   9.268 -0.0030 -0.0608  0.0153
  174loPI   C3A 2777   6.738  14.579   8.812  0.2627  0.2717  0.0988
  174loPI   C4A 2778   6.696  14.419   8.510  0.0517 -0.0763 -0.0374
  174loPI   C5A 2779   6.417  14.354   8.216  0.2243 -0.0899  0.1139
  174loPI   C6A 2780   6.062  14.182   7.860 -0.0700  0.0187  0.3437
  174loPI   C1B 2781   7.317  14.469   9.472 -0.0905 -0.1998  0.2538
  174loPI   C2B 2782   7.443  14.384   9.095  0.1943 -0.0969 -0.1091
  174loPI   C3B 2783   7.450  14.221   8.613 -0.0412 -0.1651  0.0655
  174loPI   C4B 2784   7.479  14.207   8.280  0.1313  0.0990  0.3147
  175loPI    C1 2785   9.627   6.185  10.508 -0.2552 -0.0750  0.4075
  175loPI    C2 2786   9.548   5.801  10.430  0.2168 -0.0626 -0.2110
  175loPI    C3 2787   9.721   5.904  10.776 -0.3064 -0.3448  0.1474
  175loPI   PO4 2788   9.750   6.222  10.283  0.0955 -0.0006  0.1334
  175loPI   GL1 2789   9.542   6.142   9.965  0.0040 -0.1307  0.1149
  175loPI   GL2 2790   9.202   6.294   9.882  0.0616 -0.0017  0.1694
  175loPI   C1A 2791   9.706   6.082   9.479 -0.2461 -0.1788 -0.2434
  175loPI   C2A 2792   9.832   6.092   9.156  0.0285  0.0073 -0.2287
  175loPI   C3A 2793   9.914   6.219   8.747  0.1313 -0.1847 -0.2521
  175loPI   C4A 2794   9.883   6.342   8.336  0.3580 -0.0697 -0.2538
  175loPI   C5A 2795  10.003   6.303   7.956 -0.2552 -0.0231 -0.1617
  175loPI   C6A 2796  10.134   6.256   7.491  0.1712 -0.0419 -0.1482
  175loPI   C1B 2797   9.225   6.364   9.455  0.5227  0.1337  0.0433
  175loPI   C2B 2798   9.351   6.285   9.044  0.0242  0.0034 -0.2658
  175loPI   C3B 2799   9.367   6.315   8.566 -0.0933  0.1150  0.1058
  175loPI   C4B 2800   9.072   6.436   8.270  0.1547 -0.0352  0.1134
  176loPI    C1 2801  17.036   8.959  10.820 -0.0651  0.0103 -0.0592
  176loPI    C2 2802  16.824   9.195  11.063  0.0270  0.0457 -0.0125
  176loPI    C3 2803  16.980   8.854  11.202  0.1457  0.1044 -0.0010
  176loPI   PO4 2804  17.346   9.137  10.691 -0.1023  0.2244 -0.1159
  176loPI   GL1 2805  17.321   9.148  10.278  0.0697 -0.1067  0.2450
  176loPI   GL2 2806  17.675   9.148  10.315 -0.2832 -0.2974 -0.3766
  176loPI   C1A 2807  17.081   9.074   9.980  0.1275  0.0474 -0.0479
  176loPI   C2A 2808  16.953   8.896   9.514  0.2267  0.2045  0.4110
  176loPI   C3A 2809  17.088   8.661   9.104 -0.1686  0.0017 -0.0581
  176loPI   C4A 2810  17.317   8.602   8.813 -0.0051  0.1906 -0.2328
  176loPI   C5A 2811  17.493   8.187   8.881 -0.0979  0.0179 -0.1323
  176loPI   C6A 2812  17.897   8.135   8.813  0.0776 -0.0511  0.2093
  176loPI   C1B 2813  17.636   8.995   9.881  0.1860 -0.0128 -0.2986
  176loPI   C2B 2814  17.484   9.015   9.522  0.0182  0.2151 -0.0314
  176loPI   C3B 2815  17.375   9.053   9.144 -0.0216 -0.0971 -0.1954
  176loPI   C4B 2816  17.300   9.192   8.615 -0.0099  0.4005 -0.3379
  177loPI    C1 2817   1.630  12.564  10.291 -0.0563  0.1532 -0.2136
  177loPI    C2 2818   1.747  12.775  10.611 -0.3191  0.0440 -0.0420
  177loPI    C3 2819   2.018  12.588  10.384 -0.1089  0.3312 -0.0323
  177loPI   PO4 2820   1.445  12.744  10.143  0.0470  0.0599 -0.2144
  177loPI   GL1 2821   1.431  12.903   9.780 -0.2553 -0.2913  0.1268
  177loPI   GL2 2822   1.122  12.758   9.781  0.2141 -0.1763 -0.1756
  177loPI   C1A 2823   1.207  13.181   9.449  0.0695 -0.1165  0.1350
  177loPI   C2A 2824   1.343  12.971   9.174  0.0043  0.2058  0.2152
  177loPI   C3A 2825   1.306  12.906   8.722  0.2759  0.2540  0.2641
  177loPI   C4A 2826   1.053  12.828   8.335  0.0057  0.1865  0.1437
  177loPI   C5A 2827   1.040  12.495   8.061 -0.0379 -0.1908 -0.0339
  177loPI   C6A 2828   0.926  12.248   7.726 -0.2398 -0.0889  0.2707
  177loPI   C1B 2829   0.983  12.616   9.376  0.2268 -0.1670  0.0350
  177loPI   C2B 2830   0.983  12.547   8.919 -0.1193 -0.2331 -0.1405
  177loPI   C3B 2831   0.929  12.346   8.528  0.1533  0.2640 -0.3005
  177loPI   C4B 2832   0.891  11.897   8.462  0.1951  0.0509  0.3267
  178loPI    C1 2833   0.952   6.801  10.634 -0.1278  0.1244  0.1027
  178loPI    C2 2834   0.829   6.552  10.347 -0.0301  0.1906  0.0026
  178loPI    C3 2835   0.966   6.406  10.693 -0.2159  0.1125  0.0446
  178loPI   PO4 2836   1.134   6.931  10.474  0.1409 -0.0385  0.0322
  178loPI   GL1 2837   1.281   6.834  10.108 -0.1248 -0.1383 -0.0885
  178loPI   GL2 2838   1.043   7.005  10.013  0.0772  0.3598 -0.4355
  178loPI   C1A 2839   1.188   6.628   9.615 -0.0371 -0.0524 -0.2358
  178loPI   C2A 2840   1.298   6.483   9.346  0.1193  0.0214 -0.4337
  178loPI   C3A 2841   1.275   6.295   8.931 -0.2504 -0.0328 -0.0648
  178loPI   C4A 2842   1.656   6.162   8.621 -0.4078 -0.1717  0.0228
  178loPI   C5A 2843   1.652   5.886   8.411  0.4206 -0.0595 -0.2326
  178loPI   C6A 2844   1.543   5.479   8.445  0.1544 -0.2397  0.1194
  178loPI   C1B 2845   0.943   7.081   9.613 -0.3751  0.1927 -0.1977
  178loPI   C2B 2846   1.170   6.945   9.215  0.0135  0.0181 -0.0427
  178loPI   C3B 2847   1.195   6.777   8.809  0.1284 -0.1801  0.2998
  178loPI   C4B 2848   1.160   6.510   8.455 -0.0895  0.1080  0.1494
  179loPI    C1 2849   8.083  11.711  10.496 -0.1281  0.0483 -0.0150
  179loPI    C2 2850   8.215  11.436  10.237 -0.1312  0.0708 -0.0404
  179loPI    C3 2851   8.138  11.333  10.616 -0.0351  0.0588 -0.0238
  179loPI   PO4 2852   7.998  11.910  10.310  0.1053 -0.1737  0.1376
  179loPI   GL1 2853   7.869  11.774   9.878 -0.0480  0.3638  0.1653
  179loPI   GL2 2854   7.629  11.944   9.943 -0.0358 -0.2346 -0.0895
  179loPI   C1A 2855   7.862  11.771   9.411  0.4248  0.0509  0.2074
  179loPI   C2A 2856   7.866  11.864   8.977  0.2068 -0.3631 -0.4536
  179loPI   C3A 2857   7.985  11.866   8.507  0.0261 -0.2121 -0.2090
  179loPI   C4A 2858   8.004  11.516   8.048 -0.1916 -0.0563  0.1007
  179loPI   C5A 2859   8.085  11.110   7.850 -0.2461 -0.0648 -0.1682
  179loPI   C6A 2860   8.006  10.731   7.919 -0.0144 -0.1554 -0.2035
  179loPI   C1B 2861   7.332  11.883   9.632 -0.0932  0.3829 -0.1415
  179loPI   C2B 2862   7.303  11.873   9.234 -0.1802  0.1150 -0.0227
  179loPI   C3B 2863   7.383  11.928   8.788  0.0497  0.0752 -0.1276
  179loPI   C4B 2864   7.237  11.910   8.331 -0.3206  0.1129  0.1120
  180loPI    C1 2865   3.849  15.249  10.003 -0.1278 -0.2296 -0.1605
  180loPI    C2 2866   3.625  15.237  10.334  0.1928 -0.3037  0.0595
  180loPI    C3 2867   3.604  15.553  10.090  0.0986 -0.1571  0.2545
  180loPI   PO4 2868   3.903  15.039   9.955  0.2127  0.1041  0.0981
  180loPI   GL1 2869   3.750  14.711   9.681  0.0391  0.3860 -0.2364
  180loPI   GL2 2870   4.003  14.747   9.553 -0.0510 -0.0327 -0.1252
  180loPI   C1A 2871   3.648  14.830   9.268 -0.1044  0.2390 -0.1425
  180loPI   C2A 2872   3.710  14.803   8.757  0.2159  0.0201 -0.0971
  180loPI   C3A 2873   3.724  14.924   8.353  0.0162 -0.0239  0.1137
  180loPI   C4A 2874   3.824  14.938   8.001 -0.0791  0.2523  0.0371
  180loPI   C5A 2875   3.895  15.201   7.667  0.1236  0.1635  0.0661
  180loPI   C6A 2876   3.499  15.256   7.411 -0.0286 -0.0595 -0.2745
  180loPI   C1B 2877   4.085  14.677   9.071  0.2178 -0.0745 -0.3290
  180loPI   C2B 2878   4.125  14.550   8.672 -0.0327  0.0609  0.1824
  180loPI   C3B 2879   4.159  14.688   8.235  0.0617  0.3477  0.0098
  180loPI   C4B 2880   4.297  14.654   7.822 -0.0504  0.0658  0.1215
  181loPI    C1 2881   9.998  17.855  10.511 -0.1312 -0.0189 -0.0496
  181loPI    C2 2882   9.618  17.955  10.584 -0.1799 -0.1093 -0.1759
  181loPI    C3 2883   9.911  18.219  10.651 -0.2615 -0.0512 -0.0458
  181loPI   PO4 2884   9.972  17.667  10.339  0.0714  0.1914 -0.3001
  181loPI   GL1 2885   9.862  17.413  10.022 -0.0386 -0.0594  0.2199
  181loPI   GL2 2886   9.627  17.166   9.953  0.2627  0.0068  0.0093
  181loPI   C1A 2887   9.865  17.725   9.713  0.1947  0.1508 -0.3087
  181loPI   C2A 2888  10.097  17.634   9.362 -0.1742  0.1414 -0.1772
  181loPI   C3A 2889  10.179  17.770   9.035 -0.1374 -0.2581  0.0512
  181loPI   C4A 2890  10.064  18.144   8.838 -0.0686  0.3343 -0.0989
  181loPI   C5A 2891  10.434  18.434   8.813 -0.0366  0.2219  0.1429
  181loPI   C6A 2892  10.732  18.672   9.017  0.0771 -0.2790  0.2798
  181loPI   C1B 2893   9.726  17.284   9.493 -0.1146 -0.2917  0.0758
  181loPI   C2B 2894   9.731  17.233   9.080  0.0421  0.5283 -0.2145
  181loPI   C3B 2895   9.951  17.209   8.738 -0.2703  0.0802  0.1334
  181loPI   C4B 2896  10.309  17.000   8.445  0.3454 -0.0847  0.0982
  182loPI    C1 2897   9.757  12.530  10.445 -0.1258  0.0092  0.0807
  182loPI    C2 2898   9.565  12.621  10.784  0.0433  0.3575  0.0873
  182loPI    C3 2899   9.964  12.603  10.780  0.0265 -0.1179  0.0153
  182loPI   PO4 2900   9.693  12.216  10.408 -0.1751 -0.0256 -0.0289
  182loPI   GL1 2901   9.731  11.860  10.098 -0.1147  0.0146 -0.1091
  182loPI   GL2 2902   9.505  11.686  10.060 -0.0275 -0.2163 -0.1816
  182loPI   C1A 2903   9.956  11.917   9.828  0.1376 -0.2533  0.5391
  182loPI   C2A 2904  10.049  11.754   9.457  0.1914  0.3474  0.2936
  182loPI   C3A 2905  10.003  11.706   9.014  0.2047 -0.2343 -0.1271
  182loPI   C4A 2906  10.049  11.559   8.565  0.0968  0.1018  0.0330
  182loPI   C5A 2907  10.263  11.424   8.089 -0.0189 -0.1184 -0.0945
  182loPI   C6A 2908  10.349  11.009   7.921 -0.1939 -0.0152  0.1682
  182loPI   C1B 2909   9.396  11.863   9.732  0.0468  0.0672  0.2230
  182loPI   C2B 2910   9.244  12.193   9.376  0.0670 -0.3498 -0.0578
  182loPI   C3B 2911   9.324  12.245   9.006 -0.0734  0.1092 -0.2501
  182loPI   C4B 2912   9.063  12.276   8.629 -0.1143 -0.2632  0.1744
  183loPI    C1 2913   2.852  11.540  10.510  0.0721  0.0347  0.1274
  183loPI    C2 2914   2.479  11.656  10.597  0.0032 -0.0411 -0.0620
  183loPI    C3 2915   2.790  11.853  10.752 -0.1146  0.1121 -0.0173
  183loPI   PO4 2916   2.857  11.558  10.199  0.2124  0.3182 -0.0138
  183loPI   GL1 2917   2.821  11.432   9.681  0.0265 -0.0368 -0.0539
  183loPI   GL2 2918   2.502  11.499   9.733  0.1393 -0.0073 -0.0808
  183loPI   C1A 2919   3.165  11.548   9.427  0.0990  0.1333 -0.3294
  183loPI   C2A 2920   3.280  11.479   9.025  0.3672 -0.0411  0.3430
  183loPI   C3A 2921   2.993  11.180   8.724 -0.2025  0.2508  0.2109
  183loPI   C4A 2922   2.875  10.839   8.524  0.0294 -0.0539  0.0304
  183loPI   C5A 2923   2.669  10.453   8.502  0.1172 -0.1863 -0.1385
  183loPI   C6A 2924   2.536  10.062   8.445  0.0244  0.2497  0.1917
  183loPI   C1B 2925   2.143  11.534   9.313 -0.3157 -0.1075 -0.1449
  183loPI   C2B 2926   2.072  11.518   8.928 -0.1889 -0.0374  0.2028
  183loPI   C3B 2927   1.704  11.509   8.600 -0.3235  0.0830  0.0142
  183loPI   C4B 2928   1.586  11.331   8.316  0.0797  0.1417  0.1739
  184loPI    C1 2929  13.103   2.966  10.376  0.4160 -0.0323  0.2026
  184loPI    C2 2930  13.146   2.922  10.771  0.0190 -0.1351  0.2391
  184loPI    C3 2931  12.908   2.674  10.567 -0.1005  0.1680  0.0011
  184loPI   PO4 2932  12.988   3.285  10.344  0.0108 -0.1611 -0.2335
  184loPI   GL1 2933  12.997   3.569   9.939  0.1831  0.2059  0.0361
  184loPI   GL2 2934  13.305   3.418  10.005 -0.1108  0.0534  0.2040
  184loPI   C1A 2935  12.694   3.547   9.683  0.1934 -0.2955  0.3312
  184loPI   C2A 2936  12.753   3.315   9.367  0.0428 -0.1335 -0.6715
  184loPI   C3A 2937  12.795   3.457   9.029  0.1482  0.0740  0.1288
  184loPI   C4A 2938  12.778   3.406   8.703  0.1810 -0.0027 -0.0600
  184loPI   C5A 2939  12.864   3.280   8.367 -0.0913 -0.0697  0.0511
  184loPI   C6A 2940  12.610   3.162   8.052 -0.0400 -0.1171  0.0449
  184loPI   C1B 2941  13.535   3.269   9.679 -0.3293 -0.0961  0.1448
  184loPI   C2B 2942  13.719   3.399   9.281 -0.1304 -0.0406 -0.1664
  184loPI   C3B 2943  13.729   3.288   8.818  0.3041 -0.0111  0.0776
  184loPI   C4B 2944  13.877   3.232   8.403  0.2145  0.1586 -0.0720
  185loPI    C1 2945  14.944   9.989  10.677 -0.0812  0.0927 -0.0360
  185loPI    C2 2946  15.264   9.769  10.774 -0.1566  0.0176  0.0454
  185loPI    C3 2947  15.077   9.984  11.055 -0.1542  0.0924 -0.0100
  185loPI   PO4 2948  14.687   9.762  10.482 -0.0458  0.1281  0.0925
  185loPI   GL1 2949  14.338   9.708  10.160  0.0748 -0.0229 -0.0753
  185loPI   GL2 2950  13.987   9.753  10.217  0.1649  0.0082 -0.1649
  185loPI   C1A 2951  14.637   9.620   9.869  0.0057 -0.2579  0.0439
  185loPI   C2A 2952  14.680   9.721   9.494 -0.1466  0.2442  0.2394
  185loPI   C3A 2953  14.770   9.753   9.093 -0.0952  0.0407  0.0254
  185loPI   C4A 2954  14.709   9.873   8.617  0.2433 -0.1579  0.0096
  185loPI   C5A 2955  14.288  10.073   8.338 -0.3311 -0.1750  0.0558
  185loPI   C6A 2956  14.069  10.336   8.074  0.0646 -0.0287 -0.1698
  185loPI   C1B 2957  13.851   9.818   9.747 -0.2440 -0.1111 -0.0194
  185loPI   C2B 2958  13.899   9.842   9.340  0.1272 -0.2184 -0.0111
  185loPI   C3B 2959  13.842   9.973   8.880  0.2621 -0.0267 -0.1016
  185loPI   C4B 2960  13.714   9.910   8.461  0.1893  0.1236  0.0811
  186loPI    C1 2961  10.077  13.591  10.604 -0.1334 -0.0100 -0.0229
  186loPI    C2 2962  10.452  13.561  10.741 -0.1106 -0.1610 -0.1163
  186loPI    C3 2963  10.201  13.251  10.775 -0.2438 -0.0424 -0.0062
  186loPI   PO4 2964  10.116  13.863  10.432 -0.0318 -0.0867  0.1744
  186loPI   GL1 2965  10.177  13.882   9.947  0.2527 -0.1152  0.0297
  186loPI   GL2 2966   9.839  13.793   9.989 -0.0278  0.0065  0.2537
  186loPI   C1A 2967  10.168  13.886   9.553 -0.2058 -0.1363 -0.3572
  186loPI   C2A 2968  10.222  13.778   9.196 -0.1955 -0.1822  0.1350
  186loPI   C3A 2969  10.277  13.622   8.812 -0.1347  0.0511  0.1740
  186loPI   C4A 2970  10.035  13.400   8.453 -0.0730  0.1825  0.0705
  186loPI   C5A 2971   9.614  13.597   8.341  0.0331 -0.0107 -0.2883
  186loPI   C6A 2972   9.225  13.705   8.355  0.0108  0.1392  0.1714
  186loPI   C1B 2973   9.636  13.590   9.741  0.0398 -0.1129 -0.3541
  186loPI   C2B 2974   9.568  13.523   9.318 -0.0108 -0.4097  0.1032
  186loPI   C3B 2975   9.517  13.192   8.971  0.2504 -0.0989  0.1244
  186loPI   C4B 2976   9.686  13.124   8.630 -0.0198  0.2065  0.1254
  187loPI    C1 2977  13.844   7.772  10.772 -0.1232 -0.1072  0.0608
  187loPI    C2 2978  13.677   7.485  10.996 -0.0101 -0.0934  0.1643
  187loPI    C3 2979  13.819   7.816  11.169  0.1178 -0.1017  0.0767
  187loPI   PO4 2980  13.753   7.741  10.546  0.1284 -0.0469  0.2399
  187loPI   GL1 2981  13.802   7.731  10.081 -0.2021 -0.0060 -0.2022
  187loPI   GL2 2982  13.514   7.644  10.037 -0.3120 -0.0354 -0.1505
  187loPI   C1A 2983  13.774   7.911   9.638 -0.1727 -0.1588  0.2569
  187loPI   C2A 2984  13.938   7.978   9.173  0.1669  0.1015 -0.4446
  187loPI   C3A 2985  13.970   8.008   8.734 -0.0735  0.1081 -0.1088
  187loPI   C4A 2986  13.790   7.747   8.421  0.0493 -0.0939 -0.0123
  187loPI   C5A 2987  13.354   7.612   8.234  0.0399 -0.0703 -0.2427
  187loPI   C6A 2988  13.194   7.218   8.194  0.1710 -0.2104 -0.1515
  187loPI   C1B 2989  13.341   7.724   9.548 -0.1155  0.3934 -0.2830
  187loPI   C2B 2990  13.501   7.757   9.095 -0.0586 -0.0565 -0.4009
  187loPI   C3B 2991  13.349   7.701   8.721  0.0362  0.0621 -0.3498
  187loPI   C4B 2992  12.920   7.623   8.497 -0.1464 -0.0404  0.0858
  188loPI    C1 2993   7.307   9.048  10.463  0.0633  0.0889 -0.0310
  188loPI    C2 2994   7.266   9.360  10.710  0.1010  0.0671  0.0028
  188loPI    C3 2995   7.499   9.052  10.813  0.1033  0.0501 -0.0524
  188loPI   PO4 2996   7.062   9.005  10.337 -0.0861 -0.2542  0.0995
  188loPI   GL1 2997   7.057   8.996   9.917 -0.0231 -0.0231 -0.1560
  188loPI   GL2 2998   6.987   9.289   9.799 -0.1071 -0.1045 -0.3010
  188loPI   C1A 2999   7.125   8.835   9.547 -0.1387 -0.0564 -0.2183
  188loPI   C2A 3000   7.107   8.548   9.231 -0.0012  0.0608  0.0763
  188loPI   C3A 3001   7.326   8.409   8.781  0.0413  0.0074 -0.2611
  188loPI   C4A 3002   7.437   8.244   8.446 -0.1442 -0.1410  0.3579
  188loPI   C5A 3003   7.819   7.983   8.241  0.2388  0.0084  0.2144
  188loPI   C6A 3004   8.087   7.886   7.933 -0.2359  0.0819 -0.2972
  188loPI   C1B 3005   7.120   9.311   9.406 -0.0036 -0.1213 -0.2501
  188loPI   C2B 3006   7.155   9.330   8.958 -0.2217  0.0259 -0.0433
  188loPI   C3B 3007   6.924   9.386   8.554 -0.0285 -0.2162  0.2636
  188loPI   C4B 3008   6.555   9.297   8.220 -0.0445 -0.3127 -0.0382
  189loPI    C1 3009  11.501   5.756  10.522  0.3342  0.0587  0.1923
  189loPI    C2 3010  11.747   5.893  10.805  0.0680  0.0943  0.4107
  189loPI    C3 3011  11.381   5.765  10.903  0.0379 -0.0625  0.1052
  189loPI   PO4 3012  11.487   5.938  10.323  0.2548  0.1394  0.0765
  189loPI   GL1 3013  11.450   5.946   9.859 -0.3397 -0.0642 -0.3398
  189loPI   GL2 3014  11.170   6.016   9.885 -0.1718 -0.2729  0.2837
  189loPI   C1A 3015  11.687   5.775   9.569  0.2329  0.1869 -0.3521
  189loPI   C2A 3016  11.782   5.647   9.206 -0.0652 -0.1441  0.0663
  189loPI   C3A 3017  11.943   5.687   8.804 -0.2306 -0.0215 -0.4405
  189loPI   C4A 3018  11.936   5.874   8.407  0.0346  0.1086  0.3426
  189loPI   C5A 3019  11.734   6.096   8.111 -0.1065 -0.1444  0.3033
  189loPI   C6A 3020  11.481   6.437   7.953 -0.0254 -0.0962 -0.1008
  189loPI   C1B 3021  11.208   6.133   9.399 -0.0151 -0.0462  0.1293
  189loPI   C2B 3022  11.143   6.371   8.962 -0.0380  0.1810  0.0867
  189loPI   C3B 3023  10.749   6.505   8.704  0.2582  0.0347  0.0641
  189loPI   C4B 3024  10.435   6.331   8.361  0.1669  0.3286  0.0646
  190loPI    C1 3025  11.968   4.670  10.351 -0.2658 -0.2329 -0.1474
  190loPI    C2 3026  12.258   4.580  10.091 -0.2475 -0.2781 -0.1118
  190loPI    C3 3027  12.315   4.521  10.483 -0.2132 -0.0544 -0.0817
  190loPI   PO4 3028  11.853   4.833  10.247  0.0672 -0.0961 -0.0870
  190loPI   GL1 3029  11.947   5.053   9.854  0.0917 -0.1409  0.2481
  190loPI   GL2 3030  12.128   4.832   9.680 -0.0347 -0.2037 -0.0840
  190loPI   C1A 3031  11.672   5.245   9.559 -0.0308  0.1805  0.2926
  190loPI   C2A 3032  11.522   5.266   9.088 -0.1025  0.3696 -0.0880
  190loPI   C3A 3033  11.466   5.469   8.681  0.0225 -0.0431 -0.2876
  190loPI   C4A 3034  11.448   5.695   8.343  0.0673 -0.0008 -0.1192
  190loPI   C5A 3035  11.297   5.905   7.867  0.2610  0.0072 -0.2294
  190loPI   C6A 3036  11.220   5.808   7.411 -0.1563  0.1777  0.0937
  190loPI   C1B 3037  12.003   5.042   9.263 -0.1024  0.1041 -0.2659
  190loPI   C2B 3038  11.994   5.199   8.784 -0.1192  0.2343 -0.0958
  190loPI   C3B 3039  12.028   5.388   8.359 -0.0826  0.1677  0.0599
  190loPI   C4B 3040  12.188   5.405   7.899 -0.0800 -0.0663 -0.4562
  191loPI    C1 3041   7.007  10.202  10.365  0.1559  0.1071  0.0706
  191loPI    C2 3042   7.175  10.050  10.695 -0.2349 -0.0813  0.1889
  191loPI    C3 3043   6.943  10.375  10.720  0.2096  0.2608  0.0059
  191loPI   PO4 3044   7.154  10.106  10.201  0.0100 -0.0773 -0.1392
  191loPI   GL1 3045   7.136   9.917   9.789  0.0197  0.2939 -0.1248
  191loPI   GL2 3046   6.987   9.759   9.654 -0.1314 -0.5234  0.1139
  191loPI   C1A 3047   7.443   9.595   9.594 -0.0664 -0.1577 -0.1382
  191loPI   C2A 3048   7.591   9.512   9.206 -0.1007  0.0467  0.2323
  191loPI   C3A 3049   7.634   9.642   8.784 -0.1912 -0.2490 -0.0439
  191loPI   C4A 3050   7.862   9.852   8.515 -0.2829  0.0239  0.1921
  191loPI   C5A 3051   7.949  10.090   8.142  0.0689  0.0336  0.0447
  191loPI   C6A 3052   7.679  10.351   7.832 -0.1981  0.2431 -0.4468
  191loPI   C1B 3053   7.122   9.789   9.249  0.1820  0.1602  0.2028
  191loPI   C2B 3054   7.193   9.880   8.791  0.2887 -0.0639 -0.2258
  191loPI   C3B 3055   7.252   9.712   8.404  0.2270  0.0036  0.1242
  191loPI   C4B 3056   7.219  10.083   8.079 -0.3067 -0.0652  0.3378
  192loPI    C1 3057   6.276   7.066  10.301 -0.1120  0.0624 -0.1636
  192loPI    C2 3058   6.218   7.408  10.500  0.1979 -0.0687  0.1623
  192loPI    C3 3059   6.103   7.060  10.661  0.0923 -0.1417 -0.0663
  192loPI   PO4 3060   6.537   7.087  10.133 -0.1176  0.0975 -0.0987
  192loPI   GL1 3061   6.650   7.291   9.771 -0.0168 -0.0179  0.0947
  192loPI   GL2 3062   6.405   7.541   9.755  0.0751  0.3026 -0.2239
  192loPI   C1A 3063   6.526   7.185   9.466  0.0218 -0.0279  0.1004
  192loPI   C2A 3064   6.451   7.244   9.055 -0.3419  0.0790 -0.1680
  192loPI   C3A 3065   6.383   7.344   8.648 -0.0635 -0.1683  0.0617
  192loPI   C4A 3066   6.097   7.227   8.343 -0.0407  0.0975 -0.1941
  192loPI   C5A 3067   5.706   7.182   8.239 -0.3869 -0.2521  0.2438
  192loPI   C6A 3068   5.300   7.037   8.029 -0.1651 -0.3106  0.1580
  192loPI   C1B 3069   6.276   7.678   9.378  0.0963 -0.0680  0.0031
  192loPI   C2B 3070   6.227   7.709   8.984  0.3025 -0.2388  0.0976
  192loPI   C3B 3071   5.928   7.675   8.625 -0.0622 -0.2719 -0.3102
  192loPI   C4B 3072   5.759   7.719   8.238 -0.0561  0.5052  0.1184
  193loPI    C1 3073  13.420   0.388  10.334 -0.0002 -0.0060  0.2664
  193loPI    C2 3074  13.202   0.695  10.199 -0.0844 -0.1539  0.0619
  193loPI    C3 3075  13.585   0.751  10.300 -0.0862  0.0088 -0.0181
  193loPI   PO4 3076  13.406   0.228  10.163  0.1986 -0.0624 -0.1516
  193loPI   GL1 3077  13.364   0.199   9.771 -0.1534  0.0395 -0.2117
  193loPI   GL2 3078  13.085   0.350   9.765  0.2162  0.0230 -0.1305
  193loPI   C1A 3079  13.447  -0.054   9.365 -0.1234 -0.1495 -0.0213
  193loPI   C2A 3080  13.721  -0.119   9.114  0.1702 -0.1179  0.1059
  193loPI   C3A 3081  13.966  -0.299   8.818 -0.2347  0.2402 -0.3194
  193loPI   C4A 3082  13.979  -0.402   8.374 -0.0823  0.2482  0.1531
  193loPI   C5A 3083  13.813  -0.482   7.937  0.2732  0.0832  0.1131
  193loPI   C6A 3084  13.455  -0.557   7.680 -0.1595 -0.0679  0.3012
  193loPI   C1B 3085  13.209   0.710   9.375  0.0379  0.0410 -0.0749
  193loPI   C2B 3086  13.250   0.823   9.022  0.0640  0.1653 -0.2722
  193loPI   C3B 3087  13.115   1.057   8.655 -0.0813  0.1855 -0.2445
  193loPI   C4B 3088  13.080   0.923   8.185  0.1319 -0.1665 -0.4118
  194loPI    C1 3089   1.968   4.025  10.831 -0.1158 -0.0429  0.0402
  194loPI    C2 3090   2.088   3.644  10.801  0.0458 -0.0270  0.4206
  194loPI    C3 3091   1.712   3.727  10.906 -0.0566 -0.0778  0.1055
  194loPI   PO4 3092   2.176   4.100  10.615 -0.0011  0.1762  0.2403
  194loPI   GL1 3093   2.545   4.129  10.356 -0.2237 -0.0402 -0.1136
  194loPI   GL2 3094   2.383   4.414  10.210 -0.1179  0.1000  0.2783
  194loPI   C1A 3095   2.632   4.135   9.912 -0.0784  0.1089  0.2461
  194loPI   C2A 3096   2.521   4.355   9.565  0.1296  0.1958 -0.2801
  194loPI   C3A 3097   2.542   4.697   9.313  0.0744 -0.2041 -0.4152
  194loPI   C4A 3098   2.618   4.870   8.820  0.0367  0.0513 -0.0257
  194loPI   C5A 3099   2.791   5.072   8.498  0.1433 -0.1609 -0.1301
  194loPI   C6A 3100   2.812   5.529   8.378  0.0709 -0.0763  0.2548
  194loPI   C1B 3101   2.290   4.890  10.228  0.2351 -0.1199  0.0204
  194loPI   C2B 3102   2.548   5.227  10.018 -0.1991 -0.0330  0.1532
  194loPI   C3B 3103   2.525   5.318   9.564 -0.2962 -0.1922  0.0196
  194loPI   C4B 3104   2.442   5.206   9.248  0.1646  0.1353  0.0000
  195loPI    C1 3105   1.421   6.644  10.796  0.0538  0.3158  0.2475
  195loPI    C2 3106   1.396   6.289  10.979  0.1619  0.1054 -0.1343
  195loPI    C3 3107   1.200   6.605  11.127 -0.1677 -0.1787  0.0518
  195loPI   PO4 3108   1.434   6.562  10.535 -0.1050 -0.1807 -0.0274
  195loPI   GL1 3109   1.774   6.628  10.223  0.3550  0.0175  0.1484
  195loPI   GL2 3110   1.743   6.959  10.294 -0.1825 -0.4448  0.2594
  195loPI   C1A 3111   1.695   6.419   9.819  0.0785  0.0009  0.1945
  195loPI   C2A 3112   1.828   6.418   9.405 -0.0244 -0.0317  0.1446
  195loPI   C3A 3113   1.842   6.260   9.056  0.1419  0.1058 -0.2382
  195loPI   C4A 3114   2.010   5.988   8.937 -0.1546 -0.2018 -0.2576
  195loPI   C5A 3115   2.130   5.763   8.596  0.2889  0.1742 -0.0923
  195loPI   C6A 3116   2.010   5.415   8.365 -0.0981  0.0029 -0.0537
  195loPI   C1B 3117   1.658   6.913   9.812  0.2040  0.1623 -0.1853
  195loPI   C2B 3118   1.618   6.882   9.406 -0.1623  0.1288  0.0177
  195loPI   C3B 3119   1.674   6.732   8.973 -0.1058  0.1402  0.1771
  195loPI   C4B 3120   1.639   6.741   8.591  0.3007  0.1109  0.2981
  196loPI    C1 3121  15.820   1.559  10.506  0.0637 -0.0947 -0.0183
  196loPI    C2 3122  15.782   1.199  10.676 -0.0086 -0.0380  0.0868
  196loPI    C3 3123  15.896   1.513  10.896  0.0470  0.0050 -0.0029
  196loPI   PO4 3124  15.940   1.431  10.184 -0.0636 -0.0912  0.1485
  196loPI   GL1 3125  16.000   1.475   9.754 -0.2822 -0.1543 -0.2814
  196loPI   GL2 3126  15.709   1.694   9.850  0.1352 -0.2668 -0.1366
  196loPI   C1A 3127  15.982   1.541   9.316  0.2649  0.0347  0.4186
  196loPI   C2A 3128  15.994   1.641   8.902  0.0045 -0.1766 -0.3349
  196loPI   C3A 3129  16.021   1.657   8.479  0.1359  0.0159  0.1338
  196loPI   C4A 3130  16.217   1.500   8.105  0.0267  0.0293 -0.1284
  196loPI   C5A 3131  16.423   1.805   7.984  0.0911 -0.0715 -0.0763
  196loPI   C6A 3132  16.414   2.275   7.983  0.0311 -0.2142  0.0881
  196loPI   C1B 3133  15.311   1.837   9.489 -0.0513 -0.0513  0.1314
  196loPI   C2B 3134  15.186   2.211   9.139 -0.0009 -0.2262  0.1556
  196loPI   C3B 3135  15.418   2.334   8.622  0.2038  0.1018  0.0282
  196loPI   C4B 3136  15.620   2.381   8.198 -0.0122  0.1667 -0.2386
  197loPI    C1 3137  17.436  12.252  10.194 -0.3524 -0.0100 -0.1357
  197loPI    C2 3138  17.445  12.644  10.274 -0.0251 -0.0167 -0.1260
  197loPI    C3 3139  17.466  12.379  10.573  0.1036 -0.0405 -0.1555
  197loPI   PO4 3140  17.416  12.174   9.902 -0.2935 -0.0536  0.2007
  197loPI   GL1 3141  17.115  11.874   9.755  0.3093 -0.0564  0.4014
  197loPI   GL2 3142  17.005  12.113   9.586  0.0007  0.1421  0.0956
  197loPI   C1A 3143  17.007  11.628   9.424  0.1201  0.0030  0.1811
  197loPI   C2A 3144  16.763  11.461   9.109 -0.2966  0.1878  0.2017
  197loPI   C3A 3145  16.735  11.350   8.718  0.1030  0.1517 -0.0897
  197loPI   C4A 3146  17.008  11.505   8.411 -0.0053 -0.0584 -0.1187
  197loPI   C5A 3147  17.354  11.845   8.363  0.1482 -0.2782  0.0459
  197loPI   C6A 3148  17.763  11.906   8.336 -0.3152 -0.1455  0.2435
  197loPI   C1B 3149  17.093  12.020   9.148  0.0855 -0.2075  0.1156
  197loPI   C2B 3150  17.372  12.156   8.812  0.0888 -0.1543 -0.2362
  197loPI   C3B 3151  17.728  12.288   8.973  0.0719 -0.3606  0.0764
  197loPI   C4B 3152  18.185  12.326   9.154  0.2349 -0.1076 -0.0633
  198loPI    C1 3153  14.503   9.118  10.862  0.0263  0.1039  0.1521
  198loPI    C2 3154  14.663   9.234  10.515  0.0102 -0.2597  0.0183
  198loPI    C3 3155  14.749   9.433  10.851 -0.0433  0.1503 -0.2034
  198loPI   PO4 3156  14.254   8.999  10.789  0.0560  0.4628 -0.2148
  198loPI   GL1 3157  14.063   9.124  10.431  0.1261 -0.2333  0.0256
  198loPI   GL2 3158  14.343   8.987  10.203 -0.5232 -0.0966  0.1777
  198loPI   C1A 3159  14.183   9.355   9.892  0.2398  0.1713 -0.1366
  198loPI   C2A 3160  14.240   9.543   9.510 -0.2523  0.2399 -0.2040
  198loPI   C3A 3161  14.199   9.599   9.080 -0.0681  0.0719 -0.1519
  198loPI   C4A 3162  14.183   9.665   8.595  0.1001  0.0729 -0.2626
  198loPI   C5A 3163  14.190   9.376   8.199  0.0306 -0.0371  0.1577
  198loPI   C6A 3164  13.976   8.946   7.982 -0.1701 -0.4612 -0.5764
  198loPI   C1B 3165  14.743   9.096  10.043 -0.1341 -0.1823 -0.1450
  198loPI   C2B 3166  14.622   9.183   9.591  0.0139  0.0434  0.2096
  198loPI   C3B 3167  14.622   9.307   9.178 -0.1166 -0.0012  0.0336
  198loPI   C4B 3168  14.496   9.292   8.697 -0.2654 -0.0836  0.2148
  199loPI    C1 3169   6.367   4.277  10.804  0.0255  0.1920  0.0053
  199loPI    C2 3170   6.724   4.459  10.801  0.2104 -0.1591  0.0837
  199loPI    C3 3171   6.611   4.245  11.119 -0.0547 -0.0872  0.0413
  199loPI   PO4 3172   6.213   4.451  10.666 -0.0695 -0.0811  0.0028
  199loPI   GL1 3173   6.120   4.628  10.223 -0.2768 -0.0830  0.4081
  199loPI   GL2 3174   5.863   4.655  10.198 -0.0907  0.0578 -0.0212
  199loPI   C1A 3175   6.309   4.393   9.907  0.0947  0.3924 -0.0221
  199loPI   C2A 3176   6.259   4.362   9.444 -0.1466 -0.2620  0.2280
  199loPI   C3A 3177   6.257   4.295   8.939 -0.1164  0.2310 -0.0125
  199loPI   C4A 3178   6.388   4.344   8.574  0.0937 -0.0851 -0.1537
  199loPI   C5A 3179   6.218   4.607   8.289  0.2164  0.0315  0.1188
  199loPI   C6A 3180   5.826   4.387   8.008  0.0262  0.2234  0.0679
  199loPI   C1B 3181   5.807   4.694   9.752  0.1169 -0.0165 -0.3015
  199loPI   C2B 3182   5.819   4.573   9.295 -0.1261 -0.3783  0.1579
  199loPI   C3B 3183   5.729   4.368   8.925  0.0468  0.3689 -0.1446
  199loPI   C4B 3184   5.845   4.363   8.545 -0.1186  0.3226 -0.2684
  200loPI    C1 3185   2.434   2.823  10.478 -0.1519 -0.0792 -0.1665
  200loPI    C2 3186   2.046   2.782  10.563 -0.1473  0.2161  0.0099
  200loPI    C3 3187   2.297   2.925  10.839  0.1537 -0.3012  0.0179
  200loPI   PO4 3188   2.572   2.581  10.348  0.1423 -0.0489  0.2255
  200loPI   GL1 3189   2.536   2.466   9.957  0.1241  0.1233 -0.2093
  200loPI   GL2 3190   2.841   2.362   9.780 -0.1325  0.2591 -0.0342
  200loPI   C1A 3191   2.491   2.675   9.609 -0.1454  0.0906 -0.0268
  200loPI   C2A 3192   2.337   2.434   9.322 -0.2399 -0.0116  0.0382
  200loPI   C3A 3193   2.358   2.196   8.914 -0.1164 -0.1400  0.0348
  200loPI   C4A 3194   2.538   2.036   8.527 -0.1674  0.1494 -0.0771
  200loPI   C5A 3195   2.672   1.702   8.278  0.0688 -0.0523 -0.1275
  200loPI   C6A 3196   3.014   1.576   8.116 -0.2484  0.0253  0.0958
  200loPI   C1B 3197   2.802   2.350   9.318 -0.0868 -0.1488  0.1633
  200loPI   C2B 3198   2.871   2.258   8.905  0.3876 -0.0765  0.0259
  200loPI   C3B 3199   2.954   2.228   8.506  0.1940  0.0242 -0.3525
  200loPI   C4B 3200   2.831   2.149   8.085 -0.0114  0.2327  0.1392
  201loPI    C1 3201   8.178  17.426  10.488 -0.1640  0.0356  0.0723
  201loPI    C2 3202   8.449  17.259  10.730 -0.0241  0.0449 -0.0764
  201loPI    C3 3203   8.293  17.616  10.821 -0.0139  0.0229  0.0284
  201loPI   PO4 3204   8.285  17.488  10.237 -0.0011 -0.2635  0.0867
  201loPI   GL1 3205   8.266  17.559   9.758  0.5675  0.0096 -0.1504
  201loPI   GL2 3206   8.587  17.520   9.803  0.2033 -0.0771  0.0560
  201loPI   C1A 3207   8.077  17.645   9.327  0.0757  0.2211  0.2064
  201loPI   C2A 3208   8.046  17.658   8.934 -0.0529 -0.2425 -0.0056
  201loPI   C3A 3209   8.085  17.837   8.554  0.1362 -0.0052  0.3032
  201loPI   C4A 3210   8.288  17.965   8.182 -0.1014 -0.0374  0.0809
  201loPI   C5A 3211   8.537  18.334   7.981  0.0874 -0.0241 -0.3278
  201loPI   C6A 3212   8.801  18.689   7.927  0.1529  0.0075  0.0028
  201loPI   C1B 3213   8.576  17.475   9.307  0.2204  0.2718 -0.2253
  201loPI   C2B 3214   8.610  17.458   8.875  0.3461  0.0776  0.4880
  201loPI   C3B 3215   8.507  17.546   8.476  0.1158  0.0859  0.1536
  201loPI   C4B 3216   8.596  17.401   8.066 -0.0661 -0.1003 -0.2949
  202loPI    C1 3217   5.971   1.471  10.386  0.1150 -0.1231 -0.0243
  202loPI    C2 3218   5.774   1.747  10.599 -0.0209 -0.1409 -0.1251
  202loPI    C3 3219   5.779   1.366  10.721  0.4132 -0.0472  0.1736
  202loPI   PO4 3220   6.111   1.630  10.242  0.2861  0.3662  0.0741
  202loPI   GL1 3221   6.230   1.663   9.810  0.1821 -0.0713  0.1331
  202loPI   GL2 3222   6.480   1.484   9.985 -0.1514  0.4099 -0.2054
  202loPI   C1A 3223   6.288   1.680   9.373 -0.2396 -0.0169  0.1238
  202loPI   C2A 3224   6.453   1.726   8.954  0.1376 -0.2759  0.0738
  202loPI   C3A 3225   6.559   1.770   8.513 -0.1124 -0.0052  0.2758
  202loPI   C4A 3226   6.295   1.774   8.088 -0.1938 -0.1521 -0.0137
  202loPI   C5A 3227   6.335   2.024   7.750 -0.0950 -0.2475 -0.1654
  202loPI   C6A 3228   6.222   2.218   7.503 -0.0737 -0.0238  0.0559
  202loPI   C1B 3229   6.773   1.616   9.638 -0.1654 -0.0746 -0.1731
  202loPI   C2B 3230   6.780   1.453   9.182 -0.1323 -0.3762  0.1567
  202loPI   C3B 3231   6.924   1.527   8.856  0.1978  0.2809  0.1412
  202loPI   C4B 3232   6.863   1.371   8.427 -0.2309  0.1267  0.0377
  203loPI    C1 3233   4.208  14.127  10.488 -0.0382 -0.2089  0.0614
  203loPI    C2 3234   3.982  13.992  10.790 -0.0836  0.0101  0.1272
  203loPI    C3 3235   4.371  13.901  10.775 -0.1154 -0.1343  0.1652
  203loPI   PO4 3236   4.112  14.090  10.228 -0.0770 -0.0134 -0.0300
  203loPI   GL1 3237   4.127  14.127   9.779  0.2152 -0.0687  0.0615
  203loPI   GL2 3238   3.951  14.187   9.611 -0.1746 -0.0277  0.0592
  203loPI   C1A 3239   4.407  14.177   9.426  0.2253 -0.3599  0.0164
  203loPI   C2A 3240   4.456  14.338   8.996 -0.2818 -0.2158  0.2551
  203loPI   C3A 3241   4.587  14.354   8.505 -0.1842  0.0993 -0.3608
  203loPI   C4A 3242   4.705  14.631   8.129 -0.1390 -0.0220 -0.1570
  203loPI   C5A 3243   4.851  14.773   7.830 -0.1845 -0.0015 -0.2489
  203loPI   C6A 3244   5.334  14.875   7.683 -0.1790 -0.3016 -0.0281
  203loPI   C1B 3245   3.772  14.313   9.339 -0.0368  0.0197  0.0580
  203loPI   C2B 3246   3.682  14.321   8.909  0.1053  0.1680 -0.1795
  203loPI   C3B 3247   3.714  14.332   8.563  0.0631  0.2549 -0.0128
  203loPI   C4B 3248   3.706  14.427   8.168 -0.1523  0.2348  0.1549
  204loPI    C1 3249  14.203  11.689  10.492 -0.1922  0.1818 -0.0526
  204loPI    C2 3250  14.177  11.823  10.868  0.0619  0.1557 -0.0240
  204loPI    C3 3251  14.090  11.441  10.785  0.2311  0.1010  0.0479
  204loPI   PO4 3252  14.388  11.778  10.377  0.0578 -0.2284 -0.0279
  204loPI   GL1 3253  14.261  11.941  10.041 -0.5428  0.0898 -0.1746
  204loPI   GL2 3254  14.041  11.952   9.807 -0.1845 -0.0439  0.0046
  204loPI   C1A 3255  14.431  12.355   9.962 -0.0701  0.1133 -0.0495
  204loPI   C2A 3256  14.469  12.564   9.614 -0.0502  0.2190  0.1157
  204loPI   C3A 3257  14.314  12.559   9.127 -0.1422 -0.0921  0.6797
  204loPI   C4A 3258  14.239  12.409   8.731 -0.3315  0.0467  0.3496
  204loPI   C5A 3259  14.025  11.938   8.575  0.2395 -0.1234 -0.2015
  204loPI   C6A 3260  13.800  11.689   8.272 -0.0924 -0.1190 -0.0836
  204loPI   C1B 3261  14.281  12.131   9.491  0.5306  0.2563  0.0697
  204loPI   C2B 3262  14.629  12.214   9.192  0.4830 -0.1952  0.3033
  204loPI   C3B 3263  14.881  12.401   8.865 -0.0784 -0.1213 -0.1161
  204loPI   C4B 3264  15.230  12.486   8.803  0.2814 -0.1009  0.0408
  205loPI    C1 3265  11.914   3.886  10.502  0.0001  0.0559 -0.1893
  205loPI    C2 3266  12.289   4.022  10.525 -0.0186  0.0856 -0.0532
  205loPI    C3 3267  12.121   3.846  10.842 -0.1358  0.1141 -0.0990
  205loPI   PO4 3268  11.830   4.131  10.277 -0.3877 -0.1511 -0.0703
  205loPI   GL1 3269  12.048   4.140   9.910 -0.0724 -0.1095 -0.1039
  205loPI   GL2 3270  11.817   3.934   9.802 -0.1945 -0.0126 -0.3320
  205loPI   C1A 3271  12.036   4.340   9.587 -0.0121 -0.3756 -0.4762
  205loPI   C2A 3272  11.927   4.498   9.196  0.0064 -0.0760 -0.1301
  205loPI   C3A 3273  11.732   4.509   8.732 -0.1538 -0.2646  0.1228
  205loPI   C4A 3274  11.746   4.902   8.452 -0.1441 -0.0905  0.1409
  205loPI   C5A 3275  11.590   5.180   8.176  0.0567 -0.0449 -0.3201
  205loPI   C6A 3276  11.687   5.484   7.958 -0.1441 -0.0502  0.0846
  205loPI   C1B 3277  11.804   3.958   9.359 -0.0311  0.0419  0.3287
  205loPI   C2B 3278  11.802   4.034   8.942  0.0099  0.0748  0.2829
  205loPI   C3B 3279  11.825   4.059   8.567  0.2612  0.0575  0.0405
  205loPI   C4B 3280  11.974   3.898   8.247  0.2751 -0.0478 -0.0011
  206loPI    C1 3281   2.493   1.715  10.342 -0.0694 -0.2197 -0.1015
  206loPI    C2 3282   2.696   2.042  10.233  0.0473 -0.2085  0.1413
  206loPI    C3 3283   2.578   1.998  10.613 -0.1433 -0.3563  0.0668
  206loPI   PO4 3284   2.582   1.576  10.229  0.2374 -0.1811  0.0857
  206loPI   GL1 3285   2.869   1.623   9.950 -0.0764  0.0222  0.3986
  206loPI   GL2 3286   3.069   1.843   9.904  0.1155 -0.0213 -0.2581
  206loPI   C1A 3287   2.871   1.359   9.607  0.0232  0.0601 -0.2137
  206loPI   C2A 3288   2.859   1.221   9.128 -0.0694  0.3037 -0.0946
  206loPI   C3A 3289   2.859   0.912   8.717  0.2850 -0.2465 -0.2823
  206loPI   C4A 3290   2.689   0.736   8.289 -0.0112  0.0799  0.1540
  206loPI   C5A 3291   2.801   0.578   7.964  0.2469  0.0433  0.2289
  206loPI   C6A 3292   3.082   0.336   7.747 -0.0234  0.0322 -0.0772
  206loPI   C1B 3293   3.259   1.951   9.555 -0.1212  0.1106 -0.2749
  206loPI   C2B 3294   3.253   2.158   9.213  0.0490  0.2111  0.0302
  206loPI   C3B 3295   3.369   2.287   8.908 -0.3578  0.0341 -0.0018
  206loPI   C4B 3296   3.392   2.386   8.559 -0.0449 -0.2147 -0.0770
  207loPI    C1 3297   1.096   4.228  10.661 -0.0514  0.0080 -0.1802
  207loPI    C2 3298   1.454   4.400  10.617  0.0595 -0.2136 -0.1554
  207loPI    C3 3299   1.405   4.107  10.885 -0.1810 -0.0735 -0.0435
  207loPI   PO4 3300   1.031   4.194  10.423  0.0770 -0.0228 -0.0276
  207loPI   GL1 3301   0.806   4.186  10.058  0.3863 -0.0747  0.0851
  207loPI   GL2 3302   0.453   4.204   9.976  0.3659  0.0101 -0.2629
  207loPI   C1A 3303   1.011   4.391   9.607  0.0383  0.0274 -0.1130
  207loPI   C2A 3304   1.086   4.188   9.234  0.1576  0.0988 -0.2005
  207loPI   C3A 3305   1.341   4.154   8.830  0.1020  0.1036 -0.1971
  207loPI   C4A 3306   1.524   4.010   8.432 -0.0820 -0.3053 -0.0332
  207loPI   C5A 3307   1.459   3.710   8.172 -0.2518  0.1133 -0.0785
  207loPI   C6A 3308   1.382   3.447   7.844 -0.2870  0.1115  0.4229
  207loPI   C1B 3309   0.556   4.000   9.566  0.1735 -0.0021  0.2502
  207loPI   C2B 3310   0.659   3.945   9.143  0.3648 -0.2572  0.2356
  207loPI   C3B 3311   0.833   4.139   8.752  0.3484 -0.0831 -0.2843
  207loPI   C4B 3312   0.753   4.162   8.426 -0.1489 -0.0967 -0.0871
  208loPI    C1 3313  13.629  16.205   9.990 -0.1997 -0.0481 -0.0811
  208loPI    C2 3314  13.743  16.432  10.299 -0.2464 -0.1399  0.0042
  208loPI    C3 3315  13.609  16.060  10.363 -0.2739 -0.1528 -0.1252
  208loPI   PO4 3316  13.822  16.335   9.812 -0.3332 -0.1004 -0.2877
  208loPI   GL1 3317  13.974  16.714   9.536 -0.0439  0.0821  0.3490
  208loPI   GL2 3318  13.991  16.460   9.362  0.0485  0.1946 -0.1267
  208loPI   C1A 3319  13.880  16.825   9.019 -0.1201  0.6323 -0.0641
  208loPI   C2A 3320  14.099  16.790   8.629  0.0168 -0.0860 -0.1865
  208loPI   C3A 3321  14.347  16.712   8.336 -0.0515  0.0395 -0.1131
  208loPI   C4A 3322  14.746  16.416   8.108 -0.0103  0.1706 -0.0704
  208loPI   C5A 3323  15.164  16.466   8.266  0.1005  0.0233 -0.1691
  208loPI   C6A 3324  15.471  16.271   8.505  0.3384 -0.0051 -0.0657
  208loPI   C1B 3325  14.037  16.345   8.992  0.4592  0.3978  0.2480
  208loPI   C2B 3326  13.815  16.306   8.610  0.0639 -0.0975  0.0403
  208loPI   C3B 3327  13.724  16.172   8.136 -0.1702  0.0756 -0.0370
  208loPI   C4B 3328  13.436  16.150   7.772 -0.0206 -0.0294 -0.0261
  209loPI    C1 3329   1.333   1.882  10.345  0.0939 -0.1813 -0.0136
  209loPI    C2 3330   0.950   1.966  10.265  0.1194 -0.1440 -0.0967
  209loPI    C3 3331   1.077   1.958  10.644  0.1390  0.2965 -0.0882
  209loPI   PO4 3332   1.349   1.697  10.141  0.1995 -0.2097 -0.1060
  209loPI   GL1 3333   1.212   1.515   9.719 -0.2049 -0.4453  0.1645
  209loPI   GL2 3334   1.232   1.168   9.688 -0.2597  0.0897  0.0692
  209loPI   C1A 3335   1.046   1.702   9.370  0.1595 -0.1662  0.1115
  209loPI   C2A 3336   0.999   1.677   8.972 -0.0548 -0.0096  0.0140
  209loPI   C3A 3337   1.115   1.751   8.583 -0.1553  0.3586 -0.0346
  209loPI   C4A 3338   1.083   1.950   8.212 -0.2191  0.2561 -0.0857
  209loPI   C5A 3339   1.128   2.165   7.892  0.2606  0.0948  0.2163
  209loPI   C6A 3340   1.493   2.462   7.728  0.4678 -0.1279  0.1133
  209loPI   C1B 3341   1.378   1.183   9.252 -0.0658 -0.1055 -0.0177
  209loPI   C2B 3342   1.277   1.324   8.823  0.2143  0.0172  0.0590
  209loPI   C3B 3343   1.393   1.324   8.440 -0.0334  0.4164  0.2357
  209loPI   C4B 3344   1.151   1.399   8.157  0.0627 -0.2336  0.2919
  210loPI    C1 3345   2.441  17.813  10.080 -0.0176 -0.1145  0.1337
  210loPI    C2 3346   2.503  18.191   9.964  0.0254 -0.1876 -0.0863
  210loPI    C3 3347   2.299  18.115  10.299 -0.0556  0.0290 -0.0854
  210loPI   PO4 3348   2.755  17.801  10.094  0.0211 -0.4811 -0.1376
  210loPI   GL1 3349   3.010  17.793   9.728 -0.0751  0.1293 -0.1262
  210loPI   GL2 3350   2.837  18.043   9.540 -0.1221  0.0455 -0.1399
  210loPI   C1A 3351   2.779  17.467   9.480  0.2322 -0.0178 -0.2710
  210loPI   C2A 3352   2.579  17.160   9.337 -0.1753 -0.0268  0.3442
  210loPI   C3A 3353   2.385  16.937   8.932 -0.0548  0.2001 -0.2745
  210loPI   C4A 3354   2.418  16.633   8.585  0.0455 -0.1163  0.0507
  210loPI   C5A 3355   2.378  16.362   8.223 -0.4148 -0.0830  0.3034
  210loPI   C6A 3356   2.324  15.964   8.057 -0.1099  0.2332 -0.1124
  210loPI   C1B 3357   3.092  17.886   9.230 -0.1561  0.2366  0.1839
  210loPI   C2B 3358   3.116  17.827   8.795  0.2125 -0.0151 -0.0218
  210loPI   C3B 3359   3.106  17.901   8.325  0.0794  0.3861  0.2252
  210loPI   C4B 3360   2.992  18.039   7.934 -0.4093 -0.0225  0.5916
  211loPI    C1 3361   2.855   8.777  10.881  0.1651 -0.1032  0.2271
  211loPI    C2 3362   2.648   9.119  10.869  0.2752 -0.0343  0.2829
  211loPI    C3 3363   2.498   8.802  11.061  0.0559 -0.0977  0.0136
  211loPI   PO4 3364   3.035   8.835  10.657  0.1100 -0.2637 -0.1829
  211loPI   GL1 3365   2.994   9.006  10.288 -0.0422  0.3257 -0.1307
  211loPI   GL2 3366   3.294   9.128  10.223 -0.1506 -0.1961  0.1948
  211loPI   C1A 3367   2.797   9.077   9.863  0.0043 -0.1398 -0.2941
  211loPI   C2A 3368   2.524   9.020   9.492 -0.0720  0.0849  0.0580
  211loPI   C3A 3369   2.438   9.084   9.140 -0.2378  0.2543  0.2866
  211loPI   C4A 3370   2.529   9.322   8.741 -0.1729 -0.1885 -0.0494
  211loPI   C5A 3371   2.473   9.453   8.391 -0.3895  0.2134  0.1101
  211loPI   C6A 3372   2.407   9.729   8.017  0.0903 -0.1687  0.2341
  211loPI   C1B 3373   3.182   8.781   9.903 -0.0367 -0.1167  0.1202
  211loPI   C2B 3374   3.284   8.841   9.361  0.2563  0.4695 -0.0431
  211loPI   C3B 3375   3.098   8.775   8.849 -0.0920  0.0083 -0.1129
  211loPI   C4B 3376   3.186   8.598   8.384  0.2981  0.0220  0.0218
  212loPI    C1 3377  11.220   5.259  10.566  0.0532 -0.0764  0.1208
  212loPI    C2 3378  10.989   5.537  10.737 -0.1252 -0.1556  0.0111
  212loPI    C3 3379  10.914   5.149  10.799  0.0525 -0.1812  0.0712
  212loPI   PO4 3380  11.207   5.336  10.336 -0.2940  0.0527 -0.2162
  212loPI   GL1 3381  11.026   5.224   9.957  0.1627  0.1214  0.1667
  212loPI   GL2 3382  11.228   5.504   9.901 -0.0449  0.0920  0.2507
  212loPI   C1A 3383  11.212   5.073   9.573 -0.1010  0.1263 -0.0503
  212loPI   C2A 3384  11.070   5.002   9.193  0.0953  0.2263  0.0984
  212loPI   C3A 3385  10.998   5.190   8.759  0.2324 -0.0451 -0.1174
  212loPI   C4A 3386  10.929   5.405   8.353 -0.0350 -0.1448  0.1572
  212loPI   C5A 3387  11.102   5.484   8.026 -0.0880  0.6689  0.1657
  212loPI   C6A 3388  11.059   5.386   7.610  0.0746  0.0217  0.0204
  212loPI   C1B 3389  11.242   5.514   9.369 -0.0595 -0.1338 -0.2031
  212loPI   C2B 3390  11.359   5.802   9.019  0.3861  0.0611  0.1403
  212loPI   C3B 3391  11.068   5.746   8.689 -0.2146 -0.0934 -0.0215
  212loPI   C4B 3392  10.793   5.866   8.316 -0.1909 -0.1708 -0.2866
  213loPI    C1 3393  12.490  16.874  10.456 -0.0276  0.3214  0.0573
  213loPI    C2 3394  12.192  16.843  10.721  0.0352  0.0754  0.1022
  213loPI    C3 3395  12.518  17.057  10.811 -0.0282  0.1556  0.1437
  213loPI   PO4 3396  12.418  16.775  10.088 -0.1495  0.1302 -0.5197
  213loPI   GL1 3397  12.634  16.702   9.856  0.0106 -0.1384  0.5618
  213loPI   GL2 3398  12.614  16.877   9.565 -0.0165  0.1490 -0.2073
  213loPI   C1A 3399  12.392  16.376   9.593 -0.0542  0.2821 -0.1256
  213loPI   C2A 3400  12.336  16.327   9.211  0.0137  0.0318 -0.1851
  213loPI   C3A 3401  12.349  16.287   8.793 -0.2670 -0.1489  0.0200
  213loPI   C4A 3402  12.060  16.484   8.461 -0.2437  0.0536 -0.0889
  213loPI   C5A 3403  11.820  16.629   8.205 -0.4090  0.3281  0.1298
  213loPI   C6A 3404  11.614  16.900   7.840  0.2443  0.0912  0.1595
  213loPI   C1B 3405  12.497  16.792   9.152 -0.0747 -0.2548 -0.1325
  213loPI   C2B 3406  12.413  16.802   8.682 -0.3614 -0.2016 -0.1777
  213loPI   C3B 3407  12.360  16.888   8.320  0.2353  0.0782 -0.2869
  213loPI   C4B 3408  12.168  17.086   7.936 -0.0864  0.2013 -0.4468
  214loPI    C1 3409  10.532  16.266  10.559  0.0363  0.0766 -0.0737
  214loPI    C2 3410  10.865  16.049  10.509  0.0519  0.0836  0.0004
  214loPI    C3 3411  10.689  16.068  10.869  0.0072  0.1314 -0.0238
  214loPI   PO4 3412  10.453  16.116  10.224  0.1019 -0.0570 -0.0156
  214loPI   GL1 3413  10.401  16.131   9.827 -0.3605 -0.3183  0.0700
  214loPI   GL2 3414  10.632  16.291   9.748  0.0839 -0.1025  0.1560
  214loPI   C1A 3415  10.238  16.077   9.427  0.0708 -0.2805 -0.0389
  214loPI   C2A 3416  10.098  16.187   8.990 -0.1345 -0.0539 -0.1226
  214loPI   C3A 3417  10.132  16.142   8.502 -0.1556  0.3715 -0.1170
  214loPI   C4A 3418   9.956  16.400   8.111 -0.1489 -0.3711  0.0346
  214loPI   C5A 3419  10.059  16.484   7.690  0.0320  0.0813  0.1726
  214loPI   C6A 3420  10.420  16.431   7.497  0.0010  0.0508  0.2380
  214loPI   C1B 3421  10.715  16.178   9.337 -0.1509 -0.0332 -0.1605
  214loPI   C2B 3422  10.633  16.105   8.855  0.0022 -0.3804 -0.3787
  214loPI   C3B 3423  10.584  16.043   8.439  0.2938 -0.1680  0.2385
  214loPI   C4B 3424  10.568  16.181   7.955 -0.4339  0.0567  0.1478
  215loPI    C1 3425  13.805   9.797  10.680 -0.1060 -0.0284 -0.0779
  215loPI    C2 3426  13.634   9.436  10.677  0.2228 -0.1899  0.0607
  215loPI    C3 3427  13.556   9.691  10.975 -0.1029 -0.0956 -0.0995
  215loPI   PO4 3428  13.625  10.040  10.445  0.2579  0.0077 -0.1784
  215loPI   GL1 3429  13.476  10.057  10.008 -0.1709  0.3387  0.1797
  215loPI   GL2 3430  13.492  10.301   9.773  0.0791 -0.0758  0.0301
  215loPI   C1A 3431  13.398   9.784   9.645 -0.1969  0.1789  0.0507
  215loPI   C2A 3432  13.393   9.721   9.255 -0.2470  0.1031 -0.1495
  215loPI   C3A 3433  13.296   9.778   8.838 -0.0310  0.0251  0.0689
  215loPI   C4A 3434  13.218   9.758   8.395  0.0057 -0.0558 -0.1890
  215loPI   C5A 3435  13.162   9.448   8.081 -0.0683  0.1205  0.2553
  215loPI   C6A 3436  13.232   9.269   7.630 -0.1001 -0.1387 -0.1372
  215loPI   C1B 3437  13.542  10.213   9.411  0.2747  0.3590 -0.3835
  215loPI   C2B 3438  13.499  10.271   8.967  0.1960 -0.4013  0.0356
  215loPI   C3B 3439  13.383  10.306   8.475 -0.0830 -0.0300 -0.2402
  215loPI   C4B 3440  13.500  10.160   8.091 -0.1719 -0.2343 -0.1695
  216loPI    C1 3441   1.770   3.521  10.437  0.0317 -0.0575 -0.0667
  216loPI    C2 3442   1.506   3.325  10.665  0.0152  0.1051  0.0565
  216loPI    C3 3443   1.892   3.219  10.669 -0.0051  0.0310  0.0690
  216loPI   PO4 3444   1.767   3.552  10.149  0.1681  0.0227 -0.0927
  216loPI   GL1 3445   1.583   3.370   9.796 -0.0218 -0.1852  0.0931
  216loPI   GL2 3446   1.288   3.411   9.725  0.3075 -0.1439 -0.2396
  216loPI   C1A 3447   1.582   2.895   9.692 -0.2610  0.2166  0.0063
  216loPI   C2A 3448   1.895   2.655   9.416  0.0672  0.4902 -0.3632
  216loPI   C3A 3449   2.036   2.579   8.949 -0.0924  0.0901  0.0449
  216loPI   C4A 3450   2.076   2.509   8.546  0.0602  0.3719  0.0615
  216loPI   C5A 3451   2.155   2.222   8.249  0.0648  0.0132  0.1416
  216loPI   C6A 3452   1.912   1.932   8.006 -0.1084  0.0067  0.2002
  216loPI   C1B 3453   1.257   3.292   9.288 -0.1322 -0.2887  0.2869
  216loPI   C2B 3454   1.316   3.321   8.869  0.0062 -0.1678  0.0552
  216loPI   C3B 3455   1.267   3.271   8.414 -0.1881 -0.0071  0.0755
  216loPI   C4B 3456   0.915   3.432   8.151  0.3266  0.0634 -0.0896
  217loPI    C1 3457   0.356   0.368  10.296 -0.1727 -0.2835  0.0612
  217loPI    C2 3458   0.077   0.614  10.442 -0.2294 -0.3873  0.1286
  217loPI    C3 3459   0.270   0.363  10.687  0.1157 -0.1279  0.1298
  217loPI   PO4 3460   0.353   0.551  10.010 -0.0095  0.0873 -0.2105
  217loPI   GL1 3461   0.001   0.572   9.629  0.1034  0.3070 -0.0293
  217loPI   GL2 3462  -0.115   0.832   9.713  0.1493  0.1554 -0.2045
  217loPI   C1A 3463   0.378   0.402   9.412  0.0801 -0.0032  0.1136
  217loPI   C2A 3464   0.443   0.351   8.976 -0.0959 -0.1042  0.1960
  217loPI   C3A 3465   0.693   0.293   8.627 -0.0263  0.5096 -0.0265
  217loPI   C4A 3466   0.733   0.106   8.322 -0.1880 -0.0029 -0.2822
  217loPI   C5A 3467   1.053  -0.188   7.996  0.1090  0.1229 -0.2343
  217loPI   C6A 3468   1.401  -0.376   7.841 -0.0901 -0.0426  0.1867
  217loPI   C1B 3469  -0.208   0.977   9.277  0.0311  0.3298 -0.0554
  217loPI   C2B 3470  -0.212   0.724   8.993 -0.0337  0.1929  0.1372
  217loPI   C3B 3471  -0.145   0.709   8.500  0.1379  0.1688  0.1065
  217loPI   C4B 3472  -0.132   0.887   8.088  0.0962 -0.0031  0.2143
  218loPI    C1 3473   0.528   3.649  10.072 -0.2638  0.0305 -0.0237
  218loPI    C2 3474   0.869   3.721   9.875 -0.3028  0.0758 -0.0749
  218loPI    C3 3475   0.864   3.725  10.275 -0.2107 -0.0729 -0.0716
  218loPI   PO4 3476   0.466   3.428   9.970  0.1175 -0.2281 -0.2307
  218loPI   GL1 3477   0.194   3.335   9.648 -0.0703  0.1781 -0.2619
  218loPI   GL2 3478   0.268   3.016   9.745 -0.1557 -0.1451 -0.2826
  218loPI   C1A 3479   0.229   3.608   9.281 -0.0197 -0.0038 -0.0938
  218loPI   C2A 3480   0.298   3.640   8.811 -0.2052 -0.0385  0.0027
  218loPI   C3A 3481   0.581   3.735   8.540  0.1086  0.1477  0.1080
  218loPI   C4A 3482   0.587   3.818   8.099  0.0130  0.1528 -0.0918
  218loPI   C5A 3483   0.605   3.502   7.742  0.1359 -0.0021 -0.0260
  218loPI   C6A 3484   0.436   3.054   7.682  0.3785  0.0645  0.2191
  218loPI   C1B 3485   0.354   3.027   9.315  0.1484 -0.3159 -0.0236
  218loPI   C2B 3486   0.377   2.925   8.868  0.1131 -0.1198  0.0858
  218loPI   C3B 3487   0.379   3.168   8.552 -0.1228  0.1680 -0.1057
  218loPI   C4B 3488   0.322   3.335   8.148  0.0637  0.0248  0.3971
  219loPI    C1 3489   1.690  14.070  10.344  0.1378 -0.0872 -0.0101
  219loPI    C2 3490   1.492  13.742  10.229 -0.1118 -0.0159  0.2077
  219loPI    C3 3491   1.881  13.719  10.321  0.0088 -0.1407 -0.3040
  219loPI   PO4 3492   1.606  14.281  10.084 -0.1347 -0.1094 -0.1638
  219loPI   GL1 3493   1.709  14.293   9.708  0.0360  0.1283  0.2686
  219loPI   GL2 3494   2.017  14.221   9.512 -0.0706 -0.2499  0.0433
  219loPI   C1A 3495   1.536  14.241   9.330 -0.0674  0.0138 -0.2959
  219loPI   C2A 3496   1.461  14.297   8.917  0.0808 -0.1324  0.0447
  219loPI   C3A 3497   1.315  14.174   8.543 -0.1846 -0.1815  0.1588
  219loPI   C4A 3498   1.083  13.991   8.159 -0.3966 -0.1813  0.1953
  219loPI   C5A 3499   1.013  13.798   7.728  0.1519 -0.1908  0.0154
  219loPI   C6A 3500   1.126  13.475   7.547 -0.1218  0.0317 -0.0252
  219loPI   C1B 3501   1.962  14.203   9.023 -0.0533  0.0505 -0.1333
  219loPI   C2B 3502   1.795  14.347   8.542 -0.1268  0.1593  0.1737
  219loPI   C3B 3503   1.685  14.226   8.137  0.0658 -0.0325  0.0021
  219loPI   C4B 3504   1.754  13.953   7.965  0.1873  0.2407 -0.0452
  220loPI    C1 3505  14.012  13.546  10.367  0.0205 -0.4065 -0.0740
  220loPI    C2 3506  14.376  13.559  10.532 -0.0139 -0.0938 -0.0175
  220loPI    C3 3507  14.080  13.366  10.718  0.0254 -0.0100  0.1333
  220loPI   PO4 3508  13.967  13.739  10.299 -0.1041 -0.1723 -0.3403
  220loPI   GL1 3509  14.040  14.105   9.929  0.0088  0.0050  0.0317
  220loPI   GL2 3510  14.271  14.084   9.870  0.2543  0.0190  0.2383
  220loPI   C1A 3511  14.012  13.896   9.450 -0.2015 -0.1736  0.0401
  220loPI   C2A 3512  14.013  13.950   9.042 -0.1233  0.0974 -0.1745
  220loPI   C3A 3513  14.140  14.100   8.614  0.0877  0.2616  0.1387
  220loPI   C4A 3514  14.405  14.121   8.192 -0.1571 -0.1696  0.0605
  220loPI   C5A 3515  14.733  13.873   8.031 -0.3013 -0.0009 -0.0823
  220loPI   C6A 3516  14.833  13.363   7.969  0.2057  0.2708 -0.0211
  220loPI   C1B 3517  14.453  14.051   9.537 -0.0656  0.2376  0.3634
  220loPI   C2B 3518  14.575  13.804   9.162  0.3492  0.1417 -0.3041
  220loPI   C3B 3519  14.660  13.840   8.706  0.0139 -0.1800  0.1104
  220loPI   C4B 3520  14.991  13.672   8.515  0.2294 -0.3253 -0.1151
  221loPI    C1 3521  13.663  12.538  10.761 -0.1933 -0.3417  0.0747
  221loPI    C2 3522  13.876  12.624  11.088  0.1028 -0.1001 -0.1752
  221loPI    C3 3523  13.517  12.792  11.033 -0.0242 -0.2733  0.1028
  221loPI   PO4 3524  13.794  12.531  10.586 -0.2404 -0.1233 -0.2266
  221loPI   GL1 3525  13.697  12.627  10.174  0.2954 -0.1991 -0.1685
  221loPI   GL2 3526  13.732  12.335  10.113  0.0711  0.0897  0.0425
  221loPI   C1A 3527  13.393  12.801   9.906 -0.0782 -0.0630  0.0188
  221loPI   C2A 3528  13.312  13.014   9.489  0.1397  0.0380  0.0329
  221loPI   C3A 3529  13.277  13.043   9.006  0.0883 -0.0190 -0.1383
  221loPI   C4A 3530  13.151  12.987   8.613 -0.2579  0.2580 -0.0656
  221loPI   C5A 3531  12.855  12.815   8.467  0.0179 -0.0197 -0.1234
  221loPI   C6A 3532  12.585  12.501   8.268  0.0030 -0.1239 -0.1320
  221loPI   C1B 3533  13.948  12.439   9.736 -0.2165 -0.4644 -0.0957
  221loPI   C2B 3534  13.849  12.306   9.280  0.0812 -0.0572 -0.0897
  221loPI   C3B 3535  13.691  12.193   8.908  0.0710 -0.1060  0.1773
  221loPI   C4B 3536  13.567  12.090   8.442  0.1223  0.1072  0.2162
  222loPI    C1 3537   6.417  16.470  10.617  0.1180  0.2384 -0.2783
  222loPI    C2 3538   6.716  16.477  10.883  0.0399 -0.0040 -0.1814
  222loPI    C3 3539   6.351  16.603  10.989  0.0830  0.1981 -0.2698
  222loPI   PO4 3540   6.506  16.256  10.390  0.0728  0.2553 -0.0860
  222loPI   GL1 3541   6.473  16.230   9.975 -0.2098  0.0307  0.2892
  222loPI   GL2 3542   6.150  16.343   9.840 -0.2797 -0.1944  0.0809
  222loPI   C1A 3543   6.552  16.217   9.569 -0.0829 -0.0462  0.2915
  222loPI   C2A 3544   6.627  16.290   9.153 -0.2040 -0.1228  0.0482
  222loPI   C3A 3545   6.821  16.471   8.862  0.2131  0.0254 -0.2806
  222loPI   C4A 3546   6.761  16.698   8.542 -0.0515  0.2837 -0.1777
  222loPI   C5A 3547   7.036  16.806   8.287  0.5074 -0.0783  0.0931
  222loPI   C6A 3548   6.998  16.783   7.903  0.0566 -0.0822 -0.1473
  222loPI   C1B 3549   5.971  16.294   9.477 -0.0257  0.0752 -0.1450
  222loPI   C2B 3550   6.106  16.262   9.078  0.2873  0.0181 -0.2240
  222loPI   C3B 3551   6.298  16.224   8.717  0.0015  0.0753  0.0084
  222loPI   C4B 3552   6.580  16.067   8.544 -0.0819  0.3350 -0.4394
  223loPI    C1 3553   3.550   4.515  10.802 -0.1297  0.0105 -0.0988
  223loPI    C2 3554   3.701   4.881  10.856  0.0833 -0.0527 -0.2485
  223loPI    C3 3555   3.513   4.696  11.157  0.0827  0.1289 -0.1352
  223loPI   PO4 3556   3.799   4.500  10.592  0.0171 -0.0628 -0.0117
  223loPI   GL1 3557   4.035   4.803  10.402  0.4745  0.0162 -0.0424
  223loPI   GL2 3558   4.223   4.471  10.346  0.0263 -0.0558  0.2083
  223loPI   C1A 3559   3.893   4.806   9.952  0.1180  0.2419  0.0178
  223loPI   C2A 3560   3.951   4.782   9.527 -0.1896  0.0363 -0.3201
  223loPI   C3A 3561   3.997   4.881   9.135 -0.0790 -0.0154 -0.1630
  223loPI   C4A 3562   4.052   4.937   8.784 -0.0469 -0.2767 -0.2379
  223loPI   C5A 3563   3.987   4.796   8.450  0.2841  0.2243 -0.1389
  223loPI   C6A 3564   4.310   4.736   8.130 -0.0562  0.1368 -0.0149
  223loPI   C1B 3565   4.391   4.595   9.919 -0.2756  0.2375  0.0811
  223loPI   C2B 3566   4.459   4.643   9.478 -0.2107 -0.0751 -0.0356
  223loPI   C3B 3567   4.417   4.675   9.035 -0.0578 -0.0510 -0.0757
  223loPI   C4B 3568   4.441   4.622   8.585 -0.0189 -0.0177  0.1901
  224loPI    C1 3569   1.488  17.536  10.047 -0.0161 -0.0210  0.0024
  224loPI    C2 3570   1.519  17.187  10.240  0.0680  0.0627  0.1419
  224loPI    C3 3571   1.655  17.522  10.411  0.1185  0.1421 -0.0520
  224loPI   PO4 3572   1.263  17.585   9.984 -0.1396 -0.0989 -0.1338
  224loPI   GL1 3573   1.110  17.446   9.580  0.0953 -0.0688 -0.0988
  224loPI   GL2 3574   1.018  17.742   9.460 -0.1901 -0.1175 -0.0727
  224loPI   C1A 3575   1.028  17.223   9.198 -0.0878  0.1331  0.1707
  224loPI   C2A 3576   0.939  16.960   8.818 -0.3483 -0.0652 -0.1535
  224loPI   C3A 3577   0.844  16.985   8.364  0.1002 -0.1538  0.0605
  224loPI   C4A 3578   0.859  16.572   8.157  0.0410  0.2380 -0.1794
  224loPI   C5A 3579   1.018  16.413   7.786 -0.1575  0.0670  0.1060
  224loPI   C6A 3580   0.728  16.123   7.540  0.0116  0.5130  0.1069
  224loPI   C1B 3581   1.161  17.763   9.062 -0.2332 -0.1997 -0.1413
  224loPI   C2B 3582   1.104  17.477   8.724  0.2765  0.0256  0.2551
  224loPI   C3B 3583   1.152  17.459   8.207  0.0060 -0.0551  0.0266
  224loPI   C4B 3584   1.476  17.254   8.017  0.1812 -0.3098 -0.0163
  225loPI    C1 3585  10.281   3.688  10.539 -0.1501  0.0710 -0.1769
  225loPI    C2 3586   9.933   3.666  10.735 -0.0919  0.0705 -0.0727
  225loPI    C3 3587  10.276   3.688  10.939 -0.0230 -0.0462 -0.1744
  225loPI   PO4 3588  10.217   3.805  10.291  0.2189  0.1095 -0.1158
  225loPI   GL1 3589  10.460   3.796   9.913  0.0229 -0.0342 -0.0723
  225loPI   GL2 3590  10.206   4.019   9.803 -0.0162 -0.0171  0.0660
  225loPI   C1A 3591  10.582   3.788   9.499  0.1744  0.2122  0.1033
  225loPI   C2A 3592  10.552   3.836   9.077  0.1741 -0.1352  0.0134
  225loPI   C3A 3593  10.406   3.802   8.695 -0.0854  0.3912  0.0252
  225loPI   C4A 3594  10.502   3.881   8.278  0.1927  0.1736  0.0869
  225loPI   C5A 3595  10.605   3.690   7.956 -0.1378  0.0955  0.1184
  225loPI   C6A 3596  10.885   3.344   7.859  0.0418  0.0532 -0.2602
  225loPI   C1B 3597  10.145   4.156   9.368  0.1211 -0.0884 -0.1456
  225loPI   C2B 3598  10.146   4.160   8.923  0.0510 -0.1096  0.2441
  225loPI   C3B 3599  10.356   4.309   8.525 -0.1016  0.0019 -0.0008
  225loPI   C4B 3600  10.535   4.437   8.113 -0.0893  0.1344 -0.0413
  226loPI    C1 3601   5.248   6.473  10.563 -0.0987 -0.1125 -0.2055
  226loPI    C2 3602   5.078   6.544  10.918 -0.0510  0.1061 -0.2248
  226loPI    C3 3603   5.172   6.170  10.813 -0.0518  0.0414 -0.0012
  226loPI   PO4 3604   5.063   6.608  10.404 -0.3005  0.0431 -0.3195
  226loPI   GL1 3605   4.787   6.418  10.178 -0.0823  0.0810  0.0169
  226loPI   GL2 3606   4.687   6.696   9.979  0.1103 -0.1685 -0.0713
  226loPI   C1A 3607   4.951   6.248   9.768 -0.3685  0.0941  0.1041
  226loPI   C2A 3608   4.808   6.101   9.339 -0.0109  0.1788 -0.1831
  226loPI   C3A 3609   4.995   6.290   9.117  0.2366  0.2523  0.2432
  226loPI   C4A 3610   4.936   6.683   8.828  0.1420  0.1084 -0.2128
  226loPI   C5A 3611   4.913   6.968   8.462  0.1037  0.3149  0.0569
  226loPI   C6A 3612   4.759   7.037   8.062 -0.0598  0.1937  0.2835
  226loPI   C1B 3613   5.190   6.802   9.781 -0.0977  0.1749  0.1629
  226loPI   C2B 3614   5.208   6.689   9.403 -0.2141  0.2475 -0.3310
  226loPI   C3B 3615   5.358   6.730   9.060  0.1939  0.0590  0.0279
  226loPI   C4B 3616   5.509   7.120   9.119  0.2866 -0.1516 -0.3849
  227loPI    C1 3617  15.019   2.337  10.631  0.0869  0.3259  0.0290
  227loPI    C2 3618  14.934   2.534  10.968 -0.1245 -0.1942  0.2909
  227loPI    C3 3619  15.185   2.223  10.977  0.0520 -0.0673 -0.0787
  227loPI   PO4 3620  14.752   2.549  10.321  0.1704 -0.2319 -0.0926
  227loPI   GL1 3621  14.839   2.686   9.833 -0.1420 -0.3230  0.2245
  227loPI   GL2 3622  15.123   2.957   9.786 -0.1352  0.0861  0.0307
  227loPI   C1A 3623  14.687   2.546   9.473 -0.1504 -0.0046 -0.2454
  227loPI   C2A 3624  14.640   2.617   9.057  0.2538  0.0918 -0.0695
  227loPI   C3A 3625  14.604   2.690   8.665  0.3016 -0.0831  0.3231
  227loPI   C4A 3626  14.517   2.508   8.254 -0.2013  0.1806  0.0630
  227loPI   C5A 3627  14.601   2.217   7.940  0.0651  0.1006 -0.1464
  227loPI   C6A 3628  14.583   1.841   7.649 -0.1164  0.0624 -0.1769
  227loPI   C1B 3629  15.130   2.740   9.322  0.1830 -0.2166  0.0425
  227loPI   C2B 3630  15.064   2.747   8.871 -0.2950 -0.1519 -0.0996
  227loPI   C3B 3631  15.022   2.817   8.466  0.1219  0.1979 -0.2071
  227loPI   C4B 3632  15.083   2.660   8.075 -0.1774 -0.0737  0.2151
  228loPI    C1 3633   0.295   8.858  10.756  0.0650 -0.0924  0.0125
  228loPI    C2 3634   0.584   9.043  10.961  0.2375 -0.1212 -0.2004
  228loPI    C3 3635   0.269   9.250  10.828  0.1573 -0.0897  0.0334
  228loPI   PO4 3636   0.445   8.611  10.630 -0.1075  0.1162  0.1246
  228loPI   GL1 3637   0.389   8.546  10.252 -0.0430  0.0251  0.2297
  228loPI   GL2 3638   0.545   8.595   9.989 -0.3395  0.0567 -0.1670
  228loPI   C1A 3639   0.040   8.682   9.982 -0.1294 -0.0240  0.0517
  228loPI   C2A 3640  -0.084   8.852   9.568  0.2967 -0.0851  0.0649
  228loPI   C3A 3641  -0.279   8.811   9.141 -0.0020 -0.3263  0.1483
  228loPI   C4A 3642  -0.253   8.736   8.741  0.1470 -0.2021 -0.0560
  228loPI   C5A 3643  -0.073   8.808   8.445  0.1201  0.6010  0.2431
  228loPI   C6A 3644   0.037   9.090   8.128  0.0958  0.0298  0.1248
  228loPI   C1B 3645   0.359   8.410   9.585 -0.1669  0.2039 -0.2703
  228loPI   C2B 3646   0.338   8.254   9.208  0.3518  0.1164  0.1430
  228loPI   C3B 3647   0.222   7.955   8.865 -0.1169  0.0738 -0.1221
  228loPI   C4B 3648   0.184   7.610   8.608 -0.2607 -0.1315 -0.1412
  229loPI    C1 3649   8.811  10.713  10.506  0.0916  0.1415 -0.0328
  229loPI    C2 3650   9.116  10.482  10.624 -0.1186 -0.0216  0.2025
  229loPI    C3 3651   8.959  10.750  10.876 -0.1891  0.0420  0.0921
  229loPI   PO4 3652   8.818  10.682  10.265 -0.1924  0.1102 -0.0072
  229loPI   GL1 3653   8.707  10.503   9.865 -0.2470  0.2017  0.1488
  229loPI   GL2 3654   8.854  10.216   9.845 -0.1041 -0.2049  0.1976
  229loPI   C1A 3655   8.610  10.477   9.504 -0.0139 -0.1062 -0.2184
  229loPI   C2A 3656   8.571  10.403   9.057 -0.0533  0.1151  0.1149
  229loPI   C3A 3657   8.404  10.551   8.738 -0.0497  0.0342 -0.2255
  229loPI   C4A 3658   8.268  10.494   8.311  0.3561  0.0224  0.3344
  229loPI   C5A 3659   8.384  10.223   7.983  0.0821 -0.1271 -0.3319
  229loPI   C6A 3660   8.442   9.905   7.751 -0.0211  0.1880  0.1103
  229loPI   C1B 3661   8.924  10.005   9.471 -0.0156 -0.0917 -0.4403
  229loPI   C2B 3662   8.849   9.893   9.156 -0.1491  0.0313 -0.3968
  229loPI   C3B 3663   8.671   9.775   8.712 -0.0425  0.2545 -0.0982
  229loPI   C4B 3664   8.576   9.691   8.263 -0.1467 -0.1719  0.2365
  230loPI    C1 3665  16.099   7.423  10.603 -0.0284 -0.2658 -0.0565
  230loPI    C2 3666  15.997   7.531  10.974  0.4270  0.0611 -0.0177
  230loPI    C3 3667  16.126   7.159  10.903 -0.1837 -0.1737  0.0396
  230loPI   PO4 3668  16.024   7.503  10.433  0.3107 -0.1300 -0.2880
  230loPI   GL1 3669  15.739   7.660  10.150 -0.1827 -0.0451 -0.2772
  230loPI   GL2 3670  15.654   7.964  10.055  0.0621 -0.2416 -0.3150
  230loPI   C1A 3671  15.503   7.534   9.720  0.0851 -0.3970  0.0395
  230loPI   C2A 3672  15.403   7.665   9.369  0.3638 -0.1402 -0.1804
  230loPI   C3A 3673  15.240   7.835   8.906 -0.1647  0.0494  0.2834
  230loPI   C4A 3674  15.239   8.074   8.609  0.2456  0.2403 -0.3596
  230loPI   C5A 3675  15.236   8.098   8.098  0.1462 -0.2479 -0.0647
  230loPI   C6A 3676  15.277   7.788   7.685 -0.1766 -0.0458  0.1052
  230loPI   C1B 3677  15.789   7.980   9.568  0.0338 -0.1366 -0.0402
  230loPI   C2B 3678  15.724   7.952   9.114 -0.1485 -0.1119  0.0591
  230loPI   C3B 3679  15.756   8.179   8.761  0.1361  0.0002  0.2735
  230loPI   C4B 3680  15.668   8.323   8.417 -0.0566  0.0803 -0.1359
  231loPI    C1 3681   5.718   4.562  10.685  0.0011 -0.1845  0.1067
  231loPI    C2 3682   5.561   4.881  10.501 -0.2268 -0.3174  0.0666
  231loPI    C3 3683   5.924   4.904  10.667 -0.0729 -0.1563 -0.2826
  231loPI   PO4 3684   5.596   4.337  10.468  0.3577 -0.0771 -0.1555
  231loPI   GL1 3685   5.240   4.353  10.050 -0.1722 -0.0735 -0.2265
  231loPI   GL2 3686   5.378   4.637  10.100 -0.1028  0.0309 -0.3222
  231loPI   C1A 3687   5.343   4.384   9.632 -0.0689  0.2583  0.0493
  231loPI   C2A 3688   5.408   4.278   9.291  0.2346  0.1845  0.1479
  231loPI   C3A 3689   5.355   4.065   8.798 -0.2178 -0.0798  0.0484
  231loPI   C4A 3690   5.471   4.096   8.302 -0.1390  0.0475 -0.0485
  231loPI   C5A 3691   5.484   3.749   7.982 -0.0980 -0.1158 -0.0085
  231loPI   C6A 3692   5.529   3.521   7.606 -0.2662  0.2682 -0.1324
  231loPI   C1B 3693   5.283   4.880   9.721  0.2648  0.2144 -0.0981
  231loPI   C2B 3694   5.296   4.837   9.244 -0.0930 -0.0367  0.1798
  231loPI   C3B 3695   5.309   4.667   8.977 -0.0652 -0.0651  0.2149
  231loPI   C4B 3696   5.390   4.505   8.518 -0.1762  0.1545 -0.2557
  232loPI    C1 3697   6.677  17.587  10.250 -0.2822  0.1256  0.0351
  232loPI    C2 3698   6.751  17.200  10.319  0.2071  0.2063 -0.0060
  232loPI    C3 3699   6.672  17.446  10.624 -0.0434  0.0887  0.0260
  232loPI   PO4 3700   6.768  17.683  10.046 -0.0217 -0.0459 -0.0860
  232loPI   GL1 3701   6.707  17.591   9.583 -0.2042  0.1220 -0.2181
  232loPI   GL2 3702   6.430  17.734   9.659 -0.6005  0.0402 -0.0634
  232loPI   C1A 3703   6.659  17.704   9.069 -0.0536  0.0847 -0.1347
  232loPI   C2A 3704   6.504  18.036   8.762 -0.3202  0.2711  0.1984
  232loPI   C3A 3705   6.145  18.119   8.474 -0.0969 -0.2563 -0.1687
  232loPI   C4A 3706   5.835  18.205   8.158  0.1224 -0.2589  0.1076
  232loPI   C5A 3707   5.442  18.345   8.263 -0.0114 -0.0413 -0.1234
  232loPI   C6A 3708   5.065  18.471   8.414  0.1025  0.0595 -0.0434
  232loPI   C1B 3709   6.484  18.095   9.381  0.0816 -0.2936  0.0477
  232loPI   C2B 3710   6.806  18.472   9.111  0.0224 -0.0666 -0.1353
  232loPI   C3B 3711   6.965  18.705   8.766  0.0055 -0.0443 -0.1063
  232loPI   C4B 3712   6.765  18.892   8.425 -0.0313 -0.0962  0.0822
  233loPI    C1 3713   5.121  15.024  10.529 -0.1235 -0.3600 -0.0091
  233loPI    C2 3714   5.273  14.813  10.833  0.0888 -0.0271  0.1213
  233loPI    C3 3715   4.961  15.056  10.894  0.1740  0.0913  0.0898
  233loPI   PO4 3716   5.210  15.260  10.396 -0.0717  0.0871  0.0446
  233loPI   GL1 3717   5.257  15.482  10.060  0.3529 -0.1994  0.1803
  233loPI   GL2 3718   5.126  15.264   9.841 -0.4606 -0.1327  0.0514
  233loPI   C1A 3719   5.135  15.721   9.619  0.1294 -0.1091 -0.2574
  233loPI   C2A 3720   5.146  15.826   9.286 -0.0042 -0.1588  0.0356
  233loPI   C3A 3721   5.189  15.672   8.916  0.0121 -0.2616 -0.0980
  233loPI   C4A 3722   5.302  16.017   8.569 -0.3420 -0.0665  0.0238
  233loPI   C5A 3723   5.468  15.837   8.203  0.1162  0.1132 -0.2348
  233loPI   C6A 3724   5.804  15.679   8.047 -0.2195  0.0488  0.0541
  233loPI   C1B 3725   5.138  15.193   9.430 -0.1502  0.1699  0.0765
  233loPI   C2B 3726   5.100  15.133   8.907  0.0594  0.0186  0.1590
  233loPI   C3B 3727   5.409  15.250   8.685  0.0758  0.0533  0.0232
  233loPI   C4B 3728   5.472  15.308   8.164  0.0563  0.2394  0.1362
  234loPI    C1 3729   6.643   8.774  10.843 -0.1748  0.1554 -0.0567
  234loPI    C2 3730   7.041   8.806  10.872 -0.1664  0.0204 -0.0175
  234loPI    C3 3731   6.860   8.463  10.968 -0.2847  0.0547 -0.1147
  234loPI   PO4 3732   6.574   8.931  10.525 -0.2634 -0.3524 -0.1138
  234loPI   GL1 3733   6.592   8.845  10.044 -0.0642 -0.0262 -0.0401
  234loPI   GL2 3734   6.779   8.613   9.867 -0.2194 -0.1187  0.2059
  234loPI   C1A 3735   6.692   9.029   9.615  0.1207 -0.1149  0.2414
  234loPI   C2A 3736   6.764   9.044   9.158  0.0467  0.1362  0.2625
  234loPI   C3A 3737   6.551   9.076   8.698  0.1175 -0.0278 -0.2485
  234loPI   C4A 3738   6.302   8.889   8.392 -0.0817  0.3269 -0.3392
  234loPI   C5A 3739   5.933   8.698   8.216  0.0175 -0.0174 -0.1078
  234loPI   C6A 3740   5.538   8.683   8.106  0.1239 -0.0457  0.2466
  234loPI   C1B 3741   6.671   8.552   9.373 -0.2502  0.0223 -0.1306
  234loPI   C2B 3742   6.708   8.648   8.926  0.0604  0.3663 -0.0211
  234loPI   C3B 3743   6.452   8.479   8.556 -0.0327  0.0106 -0.1169
  234loPI   C4B 3744   6.352   8.269   8.139 -0.1826 -0.2155  0.1534
  235loPI    C1 3745  11.719  16.626  10.131  0.0809  0.0334  0.1073
  235loPI    C2 3746  11.777  16.294  10.347  0.0575  0.0166  0.0880
  235loPI    C3 3747  12.059  16.577  10.336  0.1394 -0.0678 -0.0129
  235loPI   PO4 3748  11.632  16.514   9.863 -0.0190  0.0154  0.2945
  235loPI   GL1 3749  11.505  16.353   9.422 -0.0155  0.0727  0.3576
  235loPI   GL2 3750  11.808  16.223   9.487  0.0092 -0.1240 -0.1899
  235loPI   C1A 3751  11.206  16.318   9.124 -0.0903  0.0271 -0.0410
  235loPI   C2A 3752  11.152  16.035   8.711 -0.1777 -0.1148 -0.1221
  235loPI   C3A 3753  11.323  15.813   8.351 -0.0177  0.0402  0.1751
  235loPI   C4A 3754  11.360  15.426   8.025 -0.0906  0.0972 -0.2413
  235loPI   C5A 3755  11.632  15.503   7.754 -0.2060  0.2690 -0.1377
  235loPI   C6A 3756  11.966  15.730   7.766  0.2354 -0.0928  0.1392
  235loPI   C1B 3757  11.889  16.277   9.070  0.0460 -0.0089  0.2043
  235loPI   C2B 3758  11.557  16.315   8.745 -0.0251  0.1013  0.1337
  235loPI   C3B 3759  11.318  16.500   8.466  0.0708 -0.0832  0.1226
  235loPI   C4B 3760  11.310  16.657   8.078  0.1038 -0.1393 -0.2515
  236loPI    C1 3761  10.978   6.081  10.666 -0.0550 -0.1641  0.0886
  236loPI    C2 3762  10.687   6.224  10.901 -0.0406 -0.0777  0.0544
  236loPI    C3 3763  11.054   6.170  11.049 -0.0236  0.0068  0.0437
  236loPI   PO4 3764  10.949   6.240  10.368  0.0288 -0.4180 -0.0423
  236loPI   GL1 3765  10.657   6.221  10.057  0.0079 -0.4222  0.1406
  236loPI   GL2 3766  10.450   6.030  10.159 -0.0093  0.0764  0.3524
  236loPI   C1A 3767  10.741   6.118   9.666  0.0485  0.2766  0.1274
  236loPI   C2A 3768  10.769   6.106   9.248  0.0059 -0.1656  0.0108
  236loPI   C3A 3769  10.772   6.048   8.884  0.1803  0.1910 -0.0019
  236loPI   C4A 3770  10.384   5.950   8.667 -0.0423  0.1246 -0.0454
  236loPI   C5A 3771  10.102   5.867   8.367 -0.2581 -0.2479  0.0768
  236loPI   C6A 3772  10.344   5.964   8.025  0.1327  0.0465  0.3350
  236loPI   C1B 3773  10.254   5.963   9.791 -0.2149 -0.2504 -0.2122
  236loPI   C2B 3774  10.265   5.933   9.429 -0.0937  0.0751 -0.1057
  236loPI   C3B 3775  10.246   5.768   9.088 -0.0337 -0.1946  0.0352
  236loPI   C4B 3776   9.983   5.635   8.773  0.0635 -0.0428  0.1132
  237loPI    C1 3777  11.665  15.361  10.236  0.0514 -0.0375  0.0314
  237loPI    C2 3778  11.996  15.147  10.306  0.0668  0.0359  0.1854
  237loPI    C3 3779  11.851  15.391  10.589  0.0682  0.2547  0.0001
  237loPI   PO4 3780  11.562  15.141  10.033  0.0848  0.3269  0.0751
  237loPI   GL1 3781  11.437  15.189   9.615 -0.1855 -0.2133 -0.2416
  237loPI   GL2 3782  11.300  15.499   9.502 -0.1408  0.0364 -0.2154
  237loPI   C1A 3783  11.816  15.020   9.437  0.3754  0.0876  0.0058
  237loPI   C2A 3784  11.753  14.690   9.064  0.3455 -0.1205  0.0130
  237loPI   C3A 3785  11.747  14.596   8.538  0.4416  0.2928 -0.2723
  237loPI   C4A 3786  11.445  14.497   8.091  0.0231  0.4201 -0.2226
  237loPI   C5A 3787  11.001  14.466   8.013 -0.1846 -0.0408 -0.1253
  237loPI   C6A 3788  10.645  14.301   8.059  0.3598  0.2359 -0.1155
  237loPI   C1B 3789  11.011  15.217   9.279  0.1213 -0.1207  0.0999
  237loPI   C2B 3790  10.803  15.431   9.035  0.0144 -0.1189 -0.2562
  237loPI   C3B 3791  10.887  15.581   8.655  0.0650  0.1735 -0.0337
  237loPI   C4B 3792  10.884  15.653   8.202 -0.2926 -0.0308  0.3297
  238loPI    C1 3793   0.812   3.210  10.344 -0.0274 -0.1449 -0.1183
  238loPI    C2 3794   1.121   3.013  10.504  0.0210 -0.0458 -0.0892
  238loPI    C3 3795   0.998   3.357  10.666 -0.1689 -0.1359 -0.0400
  238loPI   PO4 3796   0.900   3.093  10.020 -0.1368 -0.3651  0.3300
  238loPI   GL1 3797   0.889   3.128   9.610  0.0035  0.0296  0.1632
  238loPI   GL2 3798   0.701   2.815   9.660  0.2951  0.3186  0.2339
  238loPI   C1A 3799   0.692   3.397   9.352  0.0744  0.2087  0.3625
  238loPI   C2A 3800   0.644   3.357   8.944  0.1772 -0.4479 -0.1418
  238loPI   C3A 3801   0.862   3.184   8.655 -0.1350  0.0916 -0.0598
  238loPI   C4A 3802   1.001   2.924   8.313 -0.0845  0.0336 -0.1534
  238loPI   C5A 3803   1.259   2.546   8.275 -0.0711  0.0914  0.3230
  238loPI   C6A 3804   1.677   2.353   8.184 -0.3077  0.0963 -0.1316
  238loPI   C1B 3805   0.817   2.907   9.152 -0.3369  0.1065 -0.2661
  238loPI   C2B 3806   1.219   2.854   8.803  0.0424 -0.3376 -0.3468
  238loPI   C3B 3807   1.524   2.556   8.713  0.1163  0.1521 -0.2180
  238loPI   C4B 3808   1.772   2.165   8.720  0.1339  0.0619  0.1680
  239loPI    C1 3809  14.418   1.500  10.115  0.1305 -0.0965  0.0555
  239loPI    C2 3810  14.048   1.539   9.969  0.2769  0.2058 -0.2516
  239loPI    C3 3811  14.102   1.447  10.355 -0.1152  0.2041 -0.1922
  239loPI   PO4 3812  14.472   1.291   9.953 -0.0505  0.2307 -0.4172
  239loPI   GL1 3813  14.270   1.117   9.636 -0.0167 -0.1745  0.1419
  239loPI   GL2 3814  14.185   0.779   9.667  0.2651 -0.0839  0.1602
  239loPI   C1A 3815  14.446   1.529   9.361 -0.0783 -0.0754  0.0033
  239loPI   C2A 3816  14.743   1.544   9.045 -0.0268 -0.0749 -0.1080
  239loPI   C3A 3817  15.155   1.742   8.936  0.1017  0.0292 -0.0065
  239loPI   C4A 3818  15.507   1.849   8.897 -0.2189  0.0027 -0.3709
  239loPI   C5A 3819  15.937   2.142   8.754 -0.1243  0.0601  0.0974
  239loPI   C6A 3820  16.255   2.456   8.938  0.0249  0.0825 -0.3341
  239loPI   C1B 3821  14.353   0.558   9.338 -0.0289 -0.0458  0.4359
  239loPI   C2B 3822  14.354   0.685   8.852  0.1652 -0.2095  0.0399
  239loPI   C3B 3823  14.274   0.618   8.366  0.0916 -0.0385 -0.1475
  239loPI   C4B 3824  14.422   0.711   8.011 -0.1002  0.0451  0.0055
  240loPI    C1 3825   1.299  17.903  10.399  0.1426 -0.0957 -0.0708
  240loPI    C2 3826   1.472  17.915  10.760  0.0517 -0.0602 -0.0280
  240loPI    C3 3827   1.214  17.622  10.671 -0.1227  0.0752  0.0271
  240loPI   PO4 3828   1.131  18.118  10.358 -0.1044  0.1593 -0.0861
  240loPI   GL1 3829   0.832  18.407  10.070  0.3069  0.2125  0.1242
  240loPI   GL2 3830   0.633  18.200  10.004  0.1249 -0.0212  0.2058
  240loPI   C1A 3831   0.896  18.659   9.731 -0.0382 -0.0118 -0.1487
  240loPI   C2A 3832   0.835  18.675   9.274  0.0969 -0.2413 -0.1480
  240loPI   C3A 3833   0.869  18.800   8.889 -0.1086 -0.0549 -0.0921
  240loPI   C4A 3834   1.069  18.988   8.584 -0.0123 -0.0858  0.0340
  240loPI   C5A 3835   1.009  19.054   8.054  0.0719 -0.0433 -0.2669
  240loPI   C6A 3836   0.590  18.979   7.844  0.1548 -0.1562 -0.2559
  240loPI   C1B 3837   0.728  18.219   9.550  0.0868 -0.0391  0.0468
  240loPI   C2B 3838   0.748  18.060   9.174 -0.0998  0.1825  0.1665
  240loPI   C3B 3839   0.791  17.924   8.781  0.0286  0.2306  0.0476
  240loPI   C4B 3840   1.109  17.928   8.522  0.1809 -0.1291 -0.2022
  241loPI    C1 3841  13.133   5.438  10.340 -0.0411 -0.0953 -0.0654
  241loPI    C2 3842  12.744   5.419  10.251 -0.0889  0.0064  0.1165
  241loPI    C3 3843  12.893   5.193  10.546  0.0454 -0.2403 -0.1354
  241loPI   PO4 3844  13.194   5.643  10.189  0.1186 -0.0175 -0.1613
  241loPI   GL1 3845  12.926   5.859   9.967 -0.1726 -0.0587  0.0168
  241loPI   GL2 3846  12.726   6.123   9.789 -0.0402  0.2264 -0.0748
  241loPI   C1A 3847  13.162   5.946   9.611 -0.0654 -0.1175  0.0132
  241loPI   C2A 3848  13.190   5.993   9.212  0.0082  0.3763  0.2012
  241loPI   C3A 3849  13.010   6.004   8.795  0.1354 -0.0003 -0.3008
  241loPI   C4A 3850  12.775   6.169   8.647  0.1613 -0.0075 -0.0135
  241loPI   C5A 3851  12.258   6.240   8.551  0.0595  0.1182 -0.1435
  241loPI   C6A 3852  11.981   6.371   8.827  0.0299  0.1762 -0.2424
  241loPI   C1B 3853  12.719   6.141   9.322 -0.0727  0.1098  0.0992
  241loPI   C2B 3854  12.616   6.431   9.048  0.0743 -0.2597 -0.0858
  241loPI   C3B 3855  12.385   6.782   8.928  0.1713 -0.1359 -0.0923
  241loPI   C4B 3856  11.991   6.972   8.824  0.0609 -0.1684  0.0667
  242loPI    C1 3857  17.817   0.808  10.170 -0.0841 -0.0385 -0.0637
  242loPI    C2 3858  17.489   0.951   9.989 -0.1346 -0.0348  0.0299
  242loPI    C3 3859  17.586   1.077  10.356  0.0495  0.0699 -0.0533
  242loPI   PO4 3860  17.800   0.568  10.063 -0.0559  0.0026 -0.1187
  242loPI   GL1 3861  17.559   0.573   9.614 -0.0910  0.1115 -0.1591
  242loPI   GL2 3862  17.310   0.723   9.489  0.1150  0.3614  0.2145
  242loPI   C1A 3863  17.549   0.419   9.196 -0.0695  0.1719 -0.0421
  242loPI   C2A 3864  17.502   0.198   8.826 -0.0686 -0.2421 -0.2565
  242loPI   C3A 3865  17.195   0.216   8.622  0.0080  0.0827  0.0265
  242loPI   C4A 3866  16.946   0.521   8.500 -0.1500 -0.2614  0.3088
  242loPI   C5A 3867  16.744   0.720   8.115  0.1148 -0.1727 -0.3097
  242loPI   C6A 3868  16.643   1.165   7.860  0.1907  0.1062 -0.0142
  242loPI   C1B 3869  17.420   0.967   9.132 -0.0051 -0.1469  0.0808
  242loPI   C2B 3870  17.598   1.133   8.815  0.2245  0.0705  0.3161
  242loPI   C3B 3871  17.669   1.177   8.415 -0.0105 -0.2819  0.2987
  242loPI   C4B 3872  17.564   1.202   7.987 -0.0240 -0.0553 -0.1275
  243loPI    C1 3873  16.489  14.205  10.744  0.2240 -0.0071  0.0131
  243loPI    C2 3874  16.829  14.132  10.941  0.2357 -0.0670 -0.0290
  243loPI    C3 3875  16.512  13.895  10.996  0.2399 -0.0856 -0.0847
  243loPI   PO4 3876  16.584  14.312  10.492 -0.4366  0.0638  0.0369
  243loPI   GL1 3877  16.590  14.306  10.072  0.0677 -0.1011 -0.0052
  243loPI   GL2 3878  16.780  14.467   9.925 -0.4716 -0.1369  0.0025
  243loPI   C1A 3879  16.697  13.953   9.787 -0.0807  0.1316  0.1037
  243loPI   C2A 3880  16.986  13.711   9.555  0.2166  0.0939 -0.1524
  243loPI   C3A 3881  17.345  13.665   9.156 -0.0925  0.0453  0.0509
  243loPI   C4A 3882  17.585  13.643   8.795 -0.0240 -0.1437  0.0519
  243loPI   C5A 3883  17.664  13.668   8.389 -0.1084 -0.0859 -0.0684
  243loPI   C6A 3884  17.741  13.490   7.923 -0.1364 -0.0324 -0.1730
  243loPI   C1B 3885  16.975  14.274   9.562 -0.1031  0.5084 -0.1706
  243loPI   C2B 3886  17.329  14.240   9.430 -0.1996  0.1216 -0.2064
  243loPI   C3B 3887  17.658  14.060   9.118 -0.0096  0.0257 -0.3843
  243loPI   C4B 3888  17.767  14.046   8.663 -0.1250 -0.1584 -0.1515
  244loPI    C1 3889   8.343  16.320  10.813 -0.0445 -0.0893 -0.1151
  244loPI    C2 3890   8.088  16.014  10.774 -0.0683 -0.0776 -0.0517
  244loPI    C3 3891   8.469  15.945  10.875 -0.0664 -0.0885 -0.0662
  244loPI   PO4 3892   8.377  16.420  10.582 -0.0750 -0.2521 -0.0041
  244loPI   GL1 3893   8.361  16.314  10.245  0.1751  0.0544  0.3457
  244loPI   GL2 3894   8.134  16.120  10.161 -0.3182 -0.0152  0.0076
  244loPI   C1A 3895   8.513  16.521   9.827  0.0070  0.0041 -0.1282
  244loPI   C2A 3896   8.548  16.494   9.336  0.0910 -0.3335 -0.1949
  244loPI   C3A 3897   8.439  16.533   8.936 -0.2071  0.1082 -0.1717
  244loPI   C4A 3898   8.546  16.604   8.555  0.0250 -0.0829  0.0910
  244loPI   C5A 3899   8.822  16.699   8.279  0.1509  0.0530  0.0916
  244loPI   C6A 3900   8.694  16.884   7.838  0.0891 -0.0360  0.0660
  244loPI   C1B 3901   8.179  16.133   9.788  0.3633  0.1147 -0.1785
  244loPI   C2B 3902   8.119  16.148   9.381 -0.2262 -0.2974 -0.1301
  244loPI   C3B 3903   8.136  16.157   9.034 -0.3592 -0.0883 -0.0505
  244loPI   C4B 3904   8.132  16.203   8.583 -0.1986  0.1057 -0.0632
  245loPI    C1 3905   6.944   3.920  10.259  0.2969 -0.0858  0.2278
  245loPI    C2 3906   7.243   4.167  10.161  0.1752 -0.0336 -0.0205
  245loPI    C3 3907   7.005   4.254  10.470  0.3434 -0.0165  0.1057
  245loPI   PO4 3908   7.108   3.667  10.201 -0.0323 -0.1193 -0.1747
  245loPI   GL1 3909   7.190   3.323   9.981 -0.2400  0.1153  0.0659
  245loPI   GL2 3910   7.245   3.101   9.777  0.0913 -0.1513 -0.0613
  245loPI   C1A 3911   6.976   3.495   9.618  0.1775 -0.1983  0.0111
  245loPI   C2A 3912   6.916   3.657   9.244 -0.0537 -0.0036  0.0372
  245loPI   C3A 3913   6.866   3.726   8.848  0.0338 -0.0717  0.0494
  245loPI   C4A 3914   6.771   3.769   8.455 -0.1353 -0.0449  0.0777
  245loPI   C5A 3915   6.725   3.791   8.079  0.3364 -0.0980 -0.1236
  245loPI   C6A 3916   6.504   3.955   7.739  0.0990 -0.0115  0.2446
  245loPI   C1B 3917   7.406   3.369   9.412 -0.0020 -0.2582 -0.1776
  245loPI   C2B 3918   7.270   3.417   9.018 -0.0442 -0.0527 -0.0575
  245loPI   C3B 3919   7.230   3.522   8.567 -0.0087  0.0295 -0.1671
  245loPI   C4B 3920   7.105   3.483   8.199  0.1659  0.3026 -0.0095
  246loPI    C1 3921  15.538  15.202  10.379 -0.0688 -0.0899 -0.1191
  246loPI    C2 3922  15.485  15.278  10.769 -0.1413  0.1161 -0.1679
  246loPI    C3 3923  15.276  14.986  10.592 -0.1213  0.0341 -0.0570
  246loPI   PO4 3924  15.557  15.410  10.275  0.0343  0.0994 -0.1665
  246loPI   GL1 3925  15.463  15.713   9.863 -0.1559 -0.2923 -0.4977
  246loPI   GL2 3926  15.680  15.725   9.703  0.0153 -0.1444 -0.1687
  246loPI   C1A 3927  15.251  15.508   9.441  0.1301 -0.2150  0.0239
  246loPI   C2A 3928  15.249  15.351   8.963 -0.2053  0.0156 -0.3351
  246loPI   C3A 3929  15.261  15.479   8.527  0.1118  0.2348 -0.0516
  246loPI   C4A 3930  15.079  15.554   8.071  0.0492 -0.1371  0.0473
  246loPI   C5A 3931  14.834  15.530   7.734 -0.2030  0.2713  0.4252
  246loPI   C6A 3932  14.546  15.479   7.412  0.4445 -0.0408  0.2099
  246loPI   C1B 3933  15.735  15.479   9.336  0.2484 -0.0547  0.0058
  246loPI   C2B 3934  15.948  15.081   9.066 -0.1873  0.0683  0.2242
  246loPI   C3B 3935  15.908  14.759   8.723 -0.2504  0.0884 -0.0103
  246loPI   C4B 3936  15.796  14.590   8.297 -0.1682 -0.1640 -0.1240
  247loPI    C1 3937   3.058   8.290  10.613  0.1514  0.1800 -0.2179
  247loPI    C2 3938   3.401   8.117  10.724  0.0277 -0.0096 -0.1272
  247loPI    C3 3939   3.292   8.466  10.886  0.1289  0.0011 -0.0814
  247loPI   PO4 3940   3.012   8.264  10.333 -0.1853 -0.0660 -0.0739
  247loPI   GL1 3941   3.162   8.063   9.977 -0.0250  0.1593  0.2744
  247loPI   GL2 3942   3.163   7.797   9.873 -0.2574 -0.1185 -0.0828
  247loPI   C1A 3943   3.142   8.322   9.651 -0.1573  0.1340  0.0077
  247loPI   C2A 3944   3.062   8.419   9.202  0.1066 -0.1910 -0.3555
  247loPI   C3A 3945   2.822   8.356   8.761  0.1146  0.0861 -0.0562
  247loPI   C4A 3946   2.761   8.408   8.293  0.1094 -0.0497 -0.1901
  247loPI   C5A 3947   2.815   8.227   7.907  0.1600 -0.1147  0.1809
  247loPI   C6A 3948   2.860   8.234   7.411 -0.1744 -0.0892 -0.0051
  247loPI   C1B 3949   3.226   7.776   9.387 -0.0845  0.0575 -0.1147
  247loPI   C2B 3950   3.274   8.011   9.017  0.3080 -0.0931  0.0394
  247loPI   C3B 3951   3.283   8.164   8.564  0.0626  0.2571 -0.1069
  247loPI   C4B 3952   3.488   8.078   8.181  0.2015 -0.0694  0.1624
  248loPI    C1 3953   6.811  11.663  10.099  0.1994 -0.0783  0.3355
  248loPI    C2 3954   6.945  11.912  10.382  0.1994  0.1800  0.1128
  248loPI    C3 3955   7.198  11.761  10.112  0.1445  0.1894  0.0558
  248loPI   PO4 3956   6.598  11.773  10.031 -0.5053  0.0234 -0.0405
  248loPI   GL1 3957   6.229  11.701   9.895  0.0981 -0.3890 -0.1206
  248loPI   GL2 3958   6.019  11.656   9.826  0.0473  0.0651 -0.0535
  248loPI   C1A 3959   6.277  11.691   9.387  0.0091 -0.3548 -0.0957
  248loPI   C2A 3960   6.242  11.610   9.028  0.4188  0.1122 -0.3496
  248loPI   C3A 3961   6.375  11.654   8.475  0.0366 -0.0722 -0.1795
  248loPI   C4A 3962   6.625  11.874   8.175 -0.1223  0.0034  0.2324
  248loPI   C5A 3963   6.833  12.169   7.937 -0.0344 -0.0555 -0.3391
  248loPI   C6A 3964   7.038  12.543   7.736 -0.0208  0.4248  0.0028
  248loPI   C1B 3965   5.914  11.234   9.602 -0.1305 -0.1427 -0.0179
  248loPI   C2B 3966   5.953  11.275   9.230  0.1059  0.0385  0.0034
  248loPI   C3B 3967   5.911  11.281   8.784 -0.0698  0.2248  0.1469
  248loPI   C4B 3968   5.951  11.441   8.461  0.0100  0.0100  0.1159
  249loPI    C1 3969   9.949   1.346  10.419 -0.0252  0.0416 -0.0749
  249loPI    C2 3970   9.744   1.437  10.750  0.1630  0.2726 -0.0191
  249loPI    C3 3971  10.020   1.148  10.759 -0.0333  0.0819 -0.0496
  249loPI   PO4 3972   9.739   1.384  10.210 -0.1061  0.0865 -0.3742
  249loPI   GL1 3973   9.770   1.493   9.782  0.0153 -0.0286  0.1767
  249loPI   GL2 3974   9.614   1.308   9.766 -0.1445  0.0806  0.2615
  249loPI   C1A 3975   9.669   1.587   9.325 -0.2290 -0.1599 -0.1329
  249loPI   C2A 3976   9.731   1.640   8.928  0.0902 -0.0212 -0.1922
  249loPI   C3A 3977  10.018   1.523   8.535 -0.2665  0.0491 -0.1618
  249loPI   C4A 3978  10.362   1.513   8.297 -0.1690 -0.0937  0.1200
  249loPI   C5A 3979  10.785   1.392   8.189 -0.2756  0.0939  0.3297
  249loPI   C6A 3980  10.997   1.032   7.969  0.1037  0.0169 -0.2436
  249loPI   C1B 3981   9.696   0.991   9.484  0.0794  0.2726 -0.0823
  249loPI   C2B 3982   9.634   0.693   9.255  0.1270 -0.1125 -0.2956
  249loPI   C3B 3983   9.214   0.603   9.057 -0.4116  0.4981 -0.0434
  249loPI   C4B 3984   8.880   0.456   8.890  0.1239  0.1361 -0.0036
  250loPI    C1 3985  10.409   9.624  10.394 -0.1107 -0.2183  0.0271
  250loPI    C2 3986  10.555   9.981  10.500 -0.0767 -0.1703 -0.1783
  250loPI    C3 3987  10.192   9.869  10.624  0.0782 -0.2369  0.2283
  250loPI   PO4 3988  10.454   9.678  10.132 -0.0680  0.2676  0.1597
  250loPI   GL1 3989  10.731  10.030   9.943 -0.5111  0.0420 -0.1335
  250loPI   GL2 3990  10.600   9.902   9.719 -0.0653 -0.1114  0.1579
  250loPI   C1A 3991  11.091   9.890   9.582 -0.0267 -0.0547 -0.1120
  250loPI   C2A 3992  11.141   9.931   9.111  0.1052 -0.1735 -0.0226
  250loPI   C3A 3993  11.357   9.888   8.616  0.1548 -0.0178 -0.2399
  250loPI   C4A 3994  11.540  10.112   8.427  0.0049  0.2581 -0.1308
  250loPI   C5A 3995  11.633  10.357   8.239 -0.0720 -0.0093  0.2148
  250loPI   C6A 3996  11.253  10.516   8.220 -0.0445 -0.1425  0.1992
  250loPI   C1B 3997  10.659   9.912   9.302 -0.0542  0.0333  0.2194
  250loPI   C2B 3998  10.626   9.737   8.880  0.0066  0.0366  0.0262
  250loPI   C3B 3999  10.870   9.777   8.542 -0.2096  0.0138 -0.0947
  250loPI   C4B 4000  11.050   9.944   8.248  0.2199 -0.3328  0.1365
  251loPI    C1 4001   6.392   8.469  10.552 -0.1310 -0.0889 -0.0651
  251loPI    C2 4002   6.065   8.436  10.781 -0.1813 -0.1159 -0.1403
  251loPI    C3 4003   6.399   8.239  10.880 -0.0869  0.1639  0.1139
  251loPI   PO4 4004   6.262   8.612  10.331  0.1636  0.0393 -0.2192
  251loPI   GL1 4005   6.223   8.560   9.870 -0.0063  0.4130 -0.0729
  251loPI   GL2 4006   5.917   8.742   9.904 -0.0371 -0.0623  0.1672
  251loPI   C1A 4007   6.172   8.503   9.385 -0.0897  0.1665 -0.1011
  251loPI   C2A 4008   6.319   8.364   9.003  0.0298  0.2230 -0.1557
  251loPI   C3A 4009   6.374   7.992   8.615  0.0218  0.1076  0.0323
  251loPI   C4A 4010   6.230   7.803   8.221 -0.0876 -0.0823 -0.1130
  251loPI   C5A 4011   6.106   7.480   7.902  0.3297  0.0201  0.0109
  251loPI   C6A 4012   5.758   7.223   7.749 -0.2327  0.0844  0.0138
  251loPI   C1B 4013   5.751   8.757   9.518  0.3368 -0.1957 -0.3696
  251loPI   C2B 4014   5.684   8.601   9.117 -0.2316  0.0550 -0.2832
  251loPI   C3B 4015   5.274   8.708   8.925  0.0114  0.0002  0.3091
  251loPI   C4B 4016   4.946   8.851   8.624 -0.1867 -0.1099  0.2404
  252loPI    C1 4017   7.723   1.197  10.741 -0.0496 -0.2525  0.0830
  252loPI    C2 4018   7.911   1.268  11.087 -0.0475  0.1847 -0.0016
  252loPI    C3 4019   7.598   1.493  10.980 -0.2663 -0.1705 -0.1273
  252loPI   PO4 4020   7.813   0.917  10.692  0.0704 -0.2630 -0.1713
  252loPI   GL1 4021   7.711   0.637  10.248  0.1036 -0.0681 -0.0517
  252loPI   GL2 4022   7.845   1.005  10.179 -0.0376 -0.2188 -0.0807
  252loPI   C1A 4023   7.620   0.881   9.766 -0.0669 -0.0053  0.0198
  252loPI   C2A 4024   7.652   1.059   9.447 -0.2173 -0.3310 -0.1192
  252loPI   C3A 4025   7.722   1.104   8.999 -0.1312 -0.2977 -0.4578
  252loPI   C4A 4026   7.552   1.077   8.558 -0.0634  0.0565  0.1226
  252loPI   C5A 4027   7.229   0.912   8.393 -0.1214 -0.2551 -0.1239
  252loPI   C6A 4028   7.109   0.499   8.268 -0.1301  0.0380  0.0724
  252loPI   C1B 4029   8.114   1.065   9.803 -0.2070 -0.2464  0.0376
  252loPI   C2B 4030   8.136   1.145   9.360 -0.0679 -0.1223 -0.0184
  252loPI   C3B 4031   8.219   1.142   8.986  0.2823  0.2617  0.1416
  252loPI   C4B 4032   8.456   0.834   8.613 -0.1228 -0.0288  0.0121
  253loPI    C1 4033  14.150   8.186  10.607  0.1151  0.2098 -0.1112
  253loPI    C2 4034  14.244   8.434  10.907  0.0922 -0.1069  0.1631
  253loPI    C3 4035  14.253   8.038  10.964  0.0566 -0.1712 -0.2480
  253loPI   PO4 4036  14.251   8.344  10.347  0.0132  0.0878  0.1765
  253loPI   GL1 4037  14.133   8.553   9.939  0.2366  0.2323 -0.1149
  253loPI   GL2 4038  13.903   8.464   9.820  0.0144  0.2461 -0.0372
  253loPI   C1A 4039  14.115   8.902   9.639  0.1767  0.2112 -0.1576
  253loPI   C2A 4040  14.182   9.005   9.332 -0.0680  0.0259  0.2294
  253loPI   C3A 4041  14.033   9.006   8.864  0.1113 -0.3603 -0.2491
  253loPI   C4A 4042  13.799   9.055   8.490 -0.0366 -0.0342 -0.0380
  253loPI   C5A 4043  13.701   9.432   8.274  0.3313  0.2164  0.0227
  253loPI   C6A 4044  13.915   9.830   8.018 -0.3374 -0.0762  0.1126
  253loPI   C1B 4045  13.987   8.431   9.403 -0.3689 -0.1007  0.0295
  253loPI   C2B 4046  13.972   8.525   8.969  0.2716 -0.2123  0.0336
  253loPI   C3B 4047  13.871   8.480   8.482 -0.0423 -0.1398  0.2090
  253loPI   C4B 4048  13.907   8.183   8.257  0.1913  0.0069 -0.3883
  254loPI    C1 4049   2.044  11.004  10.491 -0.1829  0.1046 -0.0889
  254loPI    C2 4050   2.295  11.168  10.756 -0.1416 -0.0267 -0.0463
  254loPI    C3 4051   1.901  11.233  10.787 -0.1483 -0.1371  0.1177
  254loPI   PO4 4052   2.211  10.914  10.302  0.2421  0.3998  0.1778
  254loPI   GL1 4053   2.341  10.842   9.999 -0.0722  0.4423 -0.2932
  254loPI   GL2 4054   2.095  10.648   9.822  0.0864  0.3300 -0.2598
  254loPI   C1A 4055   2.600  10.819   9.708 -0.0313  0.1402 -0.1522
  254loPI   C2A 4056   2.637  11.121   9.408  0.0395 -0.1788 -0.2311
  254loPI   C3A 4057   2.685  11.480   9.193 -0.0094 -0.3518 -0.0612
  254loPI   C4A 4058   2.861  11.710   8.849  0.0224 -0.2225  0.0436
  254loPI   C5A 4059   3.038  11.886   8.532  0.2206 -0.1385 -0.3466
  254loPI   C6A 4060   3.177  12.057   8.048 -0.2082 -0.3886  0.0130
  254loPI   C1B 4061   1.797  10.529   9.486  0.1094  0.2227  0.2665
  254loPI   C2B 4062   1.544  10.437   9.196 -0.0506  0.0127 -0.0777
  254loPI   C3B 4063   1.504  10.327   8.745 -0.0394 -0.3031 -0.1590
  254loPI   C4B 4064   1.506  10.208   8.308 -0.1805  0.1710  0.0168
  255loPI    C1 4065  16.817  17.768  10.058 -0.2095  0.1323 -0.0973
  255loPI    C2 4066  17.113  17.576   9.870 -0.0421  0.0208  0.2713
  255loPI    C3 4067  17.128  17.973   9.912 -0.0862  0.0480  0.0452
  255loPI   PO4 4068  16.642  17.513  10.019  0.2026 -0.1940  0.1699
  255loPI   GL1 4069  16.376  17.507   9.775  0.1086  0.1570  0.5279
  255loPI   GL2 4070  16.099  17.638   9.686  0.0140  0.1319  0.0829
  255loPI   C1A 4071  16.429  17.728   9.278 -0.2041  0.2457 -0.0513
  255loPI   C2A 4072  16.612  17.681   8.913  0.0554  0.2598  0.1307
  255loPI   C3A 4073  16.938  17.361   8.648 -0.1641  0.0401  0.2716
  255loPI   C4A 4074  17.332  17.416   8.423 -0.0328 -0.0931 -0.2228
  255loPI   C5A 4075  17.801  17.596   8.276 -0.1372  0.0503 -0.3424
  255loPI   C6A 4076  18.314  17.502   8.208  0.4971  0.0759  0.0131
  255loPI   C1B 4077  16.172  17.296   9.369 -0.3628  0.0743  0.3963
  255loPI   C2B 4078  16.058  16.984   9.167  0.0653 -0.1713  0.0677
  255loPI   C3B 4079  15.886  16.786   8.782 -0.1317  0.0336  0.1328
  255loPI   C4B 4080  15.727  16.758   8.350 -0.0141 -0.1722 -0.0640
  256loPI    C1 4081   4.204   5.256  10.616  0.0312 -0.1297 -0.3661
  256loPI    C2 4082   4.027   5.240  10.975 -0.0222  0.0372 -0.3843
  256loPI    C3 4083   4.375   5.432  10.931  0.0086 -0.0248 -0.4121
  256loPI   PO4 4084   3.916   5.387  10.523  0.2382 -0.0226  0.0414
  256loPI   GL1 4085   3.783   5.316  10.045  0.0221  0.0888 -0.0063
  256loPI   GL2 4086   3.572   5.596  10.033  0.2135  0.1565  0.0043
  256loPI   C1A 4087   3.883   5.239   9.692 -0.1501  0.4605  0.0246
  256loPI   C2A 4088   3.798   5.291   9.282 -0.0287 -0.2540  0.3176
  256loPI   C3A 4089   3.648   5.187   8.891 -0.1008  0.0704  0.0163
  256loPI   C4A 4090   3.631   5.320   8.486 -0.0581  0.0969 -0.1971
  256loPI   C5A 4091   3.342   5.642   8.193  0.1549 -0.2477  0.0716
  256loPI   C6A 4092   3.118   6.029   8.106 -0.2650  0.1347 -0.2478
  256loPI   C1B 4093   3.490   5.494   9.624 -0.0588  0.2290  0.2667
  256loPI   C2B 4094   3.364   5.557   9.116  0.1836 -0.0395 -0.1863
  256loPI   C3B 4095   3.564   5.775   8.763 -0.3784 -0.1703  0.2426
  256loPI   C4B 4096   3.527   6.075   8.381 -0.0998 -0.3054 -0.0996
  257loPI    C1 4097  12.252   0.290  10.460  0.0281 -0.2382  0.0958
  257loPI    C2 4098  12.574   0.272  10.696  0.0320 -0.0817  0.1037
  257loPI    C3 4099  12.222   0.386  10.847  0.0826  0.2363 -0.0112
  257loPI   PO4 4100  12.426   0.146  10.248 -0.1114 -0.0412  0.0227
  257loPI   GL1 4101  12.563   0.218   9.843 -0.1366 -0.1391 -0.2681
  257loPI   GL2 4102  12.498  -0.022   9.641 -0.0979 -0.3653  0.1066
  257loPI   C1A 4103  12.699   0.517   9.567 -0.0233 -0.0832  0.0169
  257loPI   C2A 4104  12.773   0.616   9.090  0.1523  0.1766 -0.0358
  257loPI   C3A 4105  12.837   0.628   8.658 -0.2009  0.0672 -0.0856
  257loPI   C4A 4106  12.686   0.619   8.311  0.3682  0.0560  0.1378
  257loPI   C5A 4107  12.472   0.323   7.995  0.0437  0.1214 -0.1211
  257loPI   C6A 4108  12.580  -0.053   7.864  0.2384  0.0556 -0.1168
  257loPI   C1B 4109  12.579   0.102   9.234  0.1506 -0.1619 -0.1127
  257loPI   C2B 4110  12.744   0.087   8.829 -0.1563  0.1577 -0.2092
  257loPI   C3B 4111  12.969   0.200   8.493 -0.0005 -0.0313  0.2740
  257loPI   C4B 4112  12.946   0.194   7.984 -0.1342  0.0850 -0.1791
  258loPI    C1 4113   8.029   1.667  10.805  0.1838  0.0563 -0.0222
  258loPI    C2 4114   8.195   2.021  10.720  0.0276  0.0980 -0.1582
  258loPI    C3 4115   8.263   1.848  11.074  0.2535  0.1761 -0.1619
  258loPI   PO4 4116   7.870   1.675  10.567 -0.0093  0.3469 -0.1771
  258loPI   GL1 4117   7.878   1.527  10.101  0.0336 -0.0285 -0.3027
  258loPI   GL2 4118   7.620   1.379   9.884 -0.2365 -0.0441 -0.1557
  258loPI   C1A 4119   8.144   1.575   9.786 -0.2004  0.2744  0.0827
  258loPI   C2A 4120   8.277   1.613   9.339 -0.4099 -0.1061  0.5705
  258loPI   C3A 4121   8.372   1.542   8.779 -0.0403  0.1398 -0.0191
  258loPI   C4A 4122   8.392   1.307   8.512  0.1176 -0.1869 -0.0239
  258loPI   C5A 4123   8.394   1.301   8.101  0.1107  0.0329  0.2837
  258loPI   C6A 4124   8.163   1.496   7.780 -0.3042 -0.0520 -0.2221
  258loPI   C1B 4125   7.100   1.108   9.962  0.1997 -0.1583 -0.0951
  258loPI   C2B 4126   6.700   1.087   9.818  0.0623 -0.2379 -0.0486
  258loPI   C3B 4127   6.401   1.210   9.473  0.1897 -0.2707 -0.1981
  258loPI   C4B 4128   6.274   1.205   9.067 -0.2458  0.1299 -0.1472
  259loPI    C1 4129   8.006   5.850  10.374 -0.0707  0.0584 -0.0409
  259loPI    C2 4130   8.230   5.519  10.357 -0.0305  0.0787  0.0838
  259loPI    C3 4131   7.855   5.499  10.493 -0.0002  0.0985  0.1711
  259loPI   PO4 4132   7.957   5.868  10.129  0.0154  0.3583  0.0878
  259loPI   GL1 4133   8.188   5.648   9.859 -0.1647  0.2533  0.0684
  259loPI   GL2 4134   7.909   5.389  10.014  0.0216  0.1644  0.2428
  259loPI   C1A 4135   8.332   5.711   9.386  0.4182 -0.0676 -0.0876
  259loPI   C2A 4136   8.348   5.519   9.026  0.0634 -0.2025  0.2364
  259loPI   C3A 4137   8.264   5.188   8.715 -0.1497 -0.0145  0.3684
  259loPI   C4A 4138   8.498   4.961   8.493  0.0420 -0.0006  0.1245
  259loPI   C5A 4139   8.818   4.838   8.114  0.0459 -0.0545 -0.1735
  259loPI   C6A 4140   8.989   4.572   7.787  0.2334  0.0135  0.0220
  259loPI   C1B 4141   7.940   5.356   9.516 -0.3012 -0.3624 -0.2599
  259loPI   C2B 4142   7.931   5.145   9.153 -0.0425  0.0098 -0.1200
  259loPI   C3B 4143   7.811   4.938   8.753 -0.1639  0.2610  0.0733
  259loPI   C4B 4144   7.485   4.988   8.403  0.1268 -0.3134  0.1436
  260loPI    C1 4145   7.022   3.962  10.869  0.0709 -0.1004  0.2825
  260loPI    C2 4146   7.106   3.602  10.718 -0.1877  0.0625 -0.2763
  260loPI    C3 4147   7.337   3.915  10.627 -0.0633  0.0752  0.0695
  260loPI   PO4 4148   6.645   3.887  10.770  0.0504 -0.1699  0.0038
  260loPI   GL1 4149   6.549   3.686  10.355  0.0426 -0.0770 -0.1425
  260loPI   GL2 4150   6.232   3.524  10.166  0.0546  0.0864  0.0741
  260loPI   C1A 4151   6.519   3.866   9.945  0.0587 -0.1083  0.0040
  260loPI   C2A 4152   6.479   3.824   9.510  0.1008  0.1196 -0.1583
  260loPI   C3A 4153   6.437   3.841   9.082  0.0213  0.0096 -0.0020
  260loPI   C4A 4154   6.390   3.890   8.693  0.0732 -0.2786 -0.2517
  260loPI   C5A 4155   6.304   4.056   8.219  0.0690 -0.1657  0.1480
  260loPI   C6A 4156   6.033   3.951   7.899  0.1641  0.2781 -0.0703
  260loPI   C1B 4157   6.285   3.419   9.730 -0.2135  0.0319  0.1370
  260loPI   C2B 4158   6.494   3.345   9.390  0.0383  0.1653  0.2104
  260loPI   C3B 4159   6.650   3.272   8.982 -0.2609  0.1374 -0.1180
  260loPI   C4B 4160   6.800   3.262   8.494  0.1606 -0.0953  0.0770
  261loPI    C1 4161  12.053  14.001  10.422 -0.0154 -0.0058  0.0710
  261loPI    C2 4162  11.830  14.305  10.287  0.0025  0.0062  0.0689
  261loPI    C3 4163  11.938  14.292  10.672  0.1680  0.1060  0.0273
  261loPI   PO4 4164  11.949  13.801  10.260 -0.2237 -0.0646 -0.2046
  261loPI   GL1 4165  12.063  13.501   9.971  0.0381 -0.1392 -0.1453
  261loPI   GL2 4166  12.052  13.216  10.097 -0.0319  0.2778  0.0045
  261loPI   C1A 4167  11.947  13.485   9.531  0.1010  0.0667  0.2107
  261loPI   C2A 4168  11.848  13.461   9.112  0.0555  0.2575  0.0380
  261loPI   C3A 4169  11.794  13.504   8.673  0.0963  0.1096  0.0233
  261loPI   C4A 4170  11.736  13.371   8.285  0.1576 -0.0100  0.0428
  261loPI   C5A 4171  11.472  13.478   8.026 -0.0218  0.0784 -0.0296
  261loPI   C6A 4172  11.344  13.577   7.602  0.0050  0.0044 -0.3708
  261loPI   C1B 4173  11.960  13.002   9.766  0.1980  0.0728 -0.0517
  261loPI   C2B 4174  12.055  12.917   9.368  0.1350 -0.1209  0.0017
  261loPI   C3B 4175  12.039  12.897   8.968  0.1868 -0.0700 -0.4804
  261loPI   C4B 4176  11.870  12.903   8.594  0.0353 -0.0894  0.1181
  262loPI    C1 4177  17.930  10.410  11.007  0.2653 -0.0886  0.1292
  262loPI    C2 4178  17.561  10.559  11.045  0.2772  0.0701 -0.3201
  262loPI    C3 4179  17.685  10.269  11.290 -0.1044  0.0923 -0.0925
  262loPI   PO4 4180  17.998  10.382  10.782  0.1622 -0.0465  0.0756
  262loPI   GL1 4181  17.900  10.383  10.345 -0.2055  0.1371  0.3297
  262loPI   GL2 4182  17.839  10.517  10.050  0.0641  0.2298  0.0072
  262loPI   C1A 4183  17.891  10.013   9.991 -0.1153 -0.1354 -0.0537
  262loPI   C2A 4184  17.878   9.857   9.609  0.2610  0.0907  0.2737
  262loPI   C3A 4185  17.747   9.862   9.209  0.1681 -0.1772 -0.0570
  262loPI   C4A 4186  17.908   9.736   8.737  0.0294 -0.0082  0.1427
  262loPI   C5A 4187  18.185   9.505   8.459 -0.0061 -0.0251 -0.3314
  262loPI   C6A 4188  18.583   9.218   8.329 -0.1381 -0.3040  0.0030
  262loPI   C1B 4189  18.019  10.551   9.605  0.2056 -0.0761  0.1751
  262loPI   C2B 4190  18.099  10.283   9.264 -0.4078  0.0047  0.0514
  262loPI   C3B 4191  18.186  10.276   8.918 -0.0778 -0.1087 -0.0870
  262loPI   C4B 4192  18.210  10.124   8.528  0.0106 -0.2839  0.0984
  263loPI    C1 4193  12.700   1.855  10.604 -0.0552  0.0679 -0.0029
  263loPI    C2 4194  12.976   2.121  10.490 -0.1676  0.1445 -0.0995
  263loPI    C3 4195  12.752   2.192  10.814 -0.1525  0.1358 -0.0871
  263loPI   PO4 4196  12.686   1.764  10.283 -0.0021  0.2730 -0.0970
  263loPI   GL1 4197  12.891   1.887   9.979  0.1731 -0.1969 -0.1736
  263loPI   GL2 4198  12.587   2.058   9.898 -0.0961  0.0788  0.1988
  263loPI   C1A 4199  12.776   1.721   9.577 -0.3266  0.0390  0.0646
  263loPI   C2A 4200  12.799   1.807   9.167 -0.2074 -0.0553 -0.1726
  263loPI   C3A 4201  12.723   1.934   8.762 -0.1594  0.0744 -0.1101
  263loPI   C4A 4202  12.646   2.060   8.390 -0.1923 -0.2342  0.3034
  263loPI   C5A 4203  12.728   2.165   8.049 -0.3766  0.1663  0.0753
  263loPI   C6A 4204  12.715   2.367   7.719  0.2034 -0.3674  0.3771
  263loPI   C1B 4205  12.567   2.200   9.445  0.3300 -0.0466  0.0523
  263loPI   C2B 4206  12.443   2.276   9.001 -0.0229  0.0288  0.0330
  263loPI   C3B 4207  12.340   2.397   8.672  0.4033  0.0068 -0.1401
  263loPI   C4B 4208  12.303   2.375   8.244 -0.1962 -0.1269 -0.0270
  264loPI    C1 4209  10.047   4.550  10.488  0.1122  0.0215  0.0013
  264loPI    C2 4210   9.863   4.860  10.661  0.2419  0.1145 -0.0257
  264loPI    C3 4211  10.100   4.621  10.878  0.1674  0.0530 -0.0118
  264loPI   PO4 4212  10.080   4.604  10.297 -0.2701  0.0440 -0.1544
  264loPI   GL1 4213  10.054   5.008  10.101 -0.2172  0.1028  0.0318
  264loPI   GL2 4214  10.147   5.280  10.132 -0.1345  0.0299 -0.0593
  264loPI   C1A 4215   9.903   5.081   9.657  0.1404 -0.2415 -0.2287
  264loPI   C2A 4216   9.750   5.087   9.324  0.1217 -0.0085  0.2087
  264loPI   C3A 4217   9.906   5.001   8.969  0.3003  0.1296  0.2214
  264loPI   C4A 4218   9.660   4.792   8.621 -0.3679 -0.1742  0.0313
  264loPI   C5A 4219   9.832   4.398   8.499 -0.1305  0.0347  0.0528
  264loPI   C6A 4220  10.024   3.989   8.447  0.1914  0.1177  0.0032
  264loPI   C1B 4221  10.330   5.414   9.766 -0.0975 -0.1077  0.0669
  264loPI   C2B 4222  10.277   5.323   9.362  0.1782  0.0396  0.2882
  264loPI   C3B 4223  10.269   5.301   8.956  0.0246  0.1601  0.1597
  264loPI   C4B 4224  10.140   5.177   8.548 -0.0938  0.0311 -0.0789
  265loPI    C1 4225   0.421   1.331  10.690 -0.2176 -0.3015  0.1294
  265loPI    C2 4226   0.733   1.243  10.923 -0.1409 -0.0836  0.1115
  265loPI    C3 4227   0.434   1.466  11.066 -0.2579 -0.2367  0.1077
  265loPI   PO4 4228   0.589   1.298  10.392  0.2765 -0.0816  0.1100
  265loPI   GL1 4229   0.829   1.583  10.065  0.0408  0.0628  0.1919
  265loPI   GL2 4230   0.751   1.320   9.917  0.1597 -0.1150  0.2848
  265loPI   C1A 4231   0.633   1.863   9.732  0.3144  0.1602  0.0423
  265loPI   C2A 4232   0.664   2.054   9.436  0.0338 -0.1107 -0.2036
  265loPI   C3A 4233   0.863   2.133   9.081  0.1789 -0.0214  0.0888
  265loPI   C4A 4234   0.725   2.017   8.737 -0.1519 -0.1112  0.0059
  265loPI   C5A 4235   0.622   1.785   8.401  0.0001  0.1547 -0.1871
  265loPI   C6A 4236   0.602   1.576   7.952 -0.1140 -0.1058  0.2085
  265loPI   C1B 4237   0.825   1.208   9.495  0.2999  0.1699  0.1439
  265loPI   C2B 4238   0.900   1.187   9.097  0.1598  0.1786  0.1926
  265loPI   C3B 4239   0.819   1.320   8.656  0.4340  0.0235 -0.0319
  265loPI   C4B 4240   0.564   1.207   8.309  0.1211 -0.0333 -0.0791
  266loPI    C1 4241  10.320   0.328  10.089 -0.0303  0.2544  0.1917
  266loPI    C2 4242  10.690   0.216  10.191 -0.0104 -0.0610 -0.2037
  266loPI    C3 4243  10.405   0.239  10.470  0.2468 -0.0548  0.0633
  266loPI   PO4 4244  10.267   0.482   9.989 -0.0523  0.1898 -0.2416
  266loPI   GL1 4245  10.244   0.515   9.562  0.1091  0.2424  0.0104
  266loPI   GL2 4246  10.195   0.765   9.453 -0.2216 -0.1076 -0.1640
  266loPI   C1A 4247  10.519   0.318   9.353 -0.1078  0.0563  0.2581
  266loPI   C2A 4248  10.599  -0.089   9.152 -0.2385  0.0428 -0.1001
  266loPI   C3A 4249  10.661  -0.204   8.731  0.1141  0.1551 -0.1986
  266loPI   C4A 4250  10.381  -0.228   8.449 -0.4245 -0.0795  0.4009
  266loPI   C5A 4251   9.990   0.056   8.316  0.2953 -0.2358 -0.2318
  266loPI   C6A 4252   9.593   0.124   8.102 -0.0394  0.0824  0.0223
  266loPI   C1B 4253  10.053   0.492   9.064 -0.0789  0.0800  0.0030
  266loPI   C2B 4254  10.004   0.540   8.559  0.0003  0.2018 -0.0275
  266loPI   C3B 4255  10.371   0.642   8.337  0.0015 -0.0645 -0.2883
  266loPI   C4B 4256  10.521   0.996   8.232 -0.3621 -0.1042  0.0504
  267loPI    C1 4257   3.608  10.137  10.519  0.0470  0.1423  0.0634
  267loPI    C2 4258   3.975  10.232  10.644  0.0665 -0.1880  0.2695
  267loPI    C3 4259   3.686  10.158  10.911 -0.1274 -0.0216  0.1088
  267loPI   PO4 4260   3.645   9.988  10.255 -0.0313 -0.2390  0.0672
  267loPI   GL1 4261   3.800   9.716   9.950  0.0035  0.2138 -0.0861
  267loPI   GL2 4262   3.902   9.952   9.771  0.3072 -0.3093  0.1666
  267loPI   C1A 4263   3.619   9.440   9.740  0.2511  0.1275 -0.1135
  267loPI   C2A 4264   3.316   9.239   9.714  0.1345  0.0723  0.0339
  267loPI   C3A 4265   2.984   9.263   9.416 -0.1692 -0.2622  0.0580
  267loPI   C4A 4266   2.951   9.255   9.010  0.0617 -0.0806  0.0680
  267loPI   C5A 4267   2.853   9.679   8.712 -0.1917 -0.0371  0.2619
  267loPI   C6A 4268   3.013  10.087   8.552  0.1370  0.3670 -0.1647
  267loPI   C1B 4269   3.921  10.138   9.399 -0.2068 -0.1521 -0.1365
  267loPI   C2B 4270   4.094  10.370   9.072 -0.1582 -0.0087  0.0859
  267loPI   C3B 4271   4.209  10.070   8.650  0.3566 -0.2050 -0.1628
  267loPI   C4B 4272   4.461  10.109   8.292 -0.0945 -0.4977  0.3039
  268loPI    C1 4273  15.424   8.805  10.802  0.1466 -0.4096 -0.0784
  268loPI    C2 4274  15.636   8.871  11.135  0.2513 -0.1846 -0.1878
  268loPI    C3 4275  15.511   8.501  11.047  0.0566 -0.2157  0.1991
  268loPI   PO4 4276  15.591   8.840  10.533  0.2792 -0.0530  0.0429
  268loPI   GL1 4277  15.444   8.779  10.100 -0.1976 -0.3997  0.0982
  268loPI   GL2 4278  15.516   9.108  10.128 -0.0900 -0.1035 -0.1705
  268loPI   C1A 4279  15.506   8.901   9.632 -0.1021 -0.0789  0.0240
  268loPI   C2A 4280  15.495   8.988   9.185  0.6285  0.0379  0.2072
  268loPI   C3A 4281  15.426   9.147   8.731  0.0649 -0.0536 -0.3011
  268loPI   C4A 4282  15.257   9.345   8.373  0.3596  0.0329 -0.2165
  268loPI   C5A 4283  14.951   9.519   8.218  0.0901 -0.1362  0.1902
  268loPI   C6A 4284  14.558   9.674   8.084 -0.1036 -0.2930  0.1964
  268loPI   C1B 4285  15.626   9.355   9.819  0.1922  0.0876 -0.4319
  268loPI   C2B 4286  15.706   9.416   9.394 -0.1889 -0.1362  0.2435
  268loPI   C3B 4287  15.580   9.551   8.984 -0.0383 -0.0297  0.3091
  268loPI   C4B 4288  15.596   9.764   8.615  0.1641 -0.0618  0.0027
  269loPI    C1 4289  10.450   1.543  10.382  0.0642  0.1991 -0.3425
  269loPI    C2 4290  10.191   1.767  10.590  0.0538  0.1307 -0.2816
  269loPI    C3 4291  10.383   1.464  10.769  0.0839  0.1042 -0.3582
  269loPI   PO4 4292  10.551   1.753  10.194  0.0012  0.1450  0.1805
  269loPI   GL1 4293  10.431   1.941   9.804  0.0958  0.3050 -0.0678
  269loPI   GL2 4294  10.181   1.800   9.600 -0.0143  0.1029 -0.0917
  269loPI   C1A 4295  10.569   1.978   9.448 -0.1726  0.4207  0.2003
  269loPI   C2A 4296  10.569   1.996   9.069  0.2335 -0.3675 -0.0930
  269loPI   C3A 4297  10.631   1.877   8.660 -0.1260  0.0092  0.1355
  269loPI   C4A 4298  10.565   1.945   8.254  0.2474 -0.3373  0.0371
  269loPI   C5A 4299  10.542   1.767   7.916  0.0426  0.0999  0.3209
  269loPI   C6A 4300  10.383   1.607   7.736  0.0499  0.1782 -0.0861
  269loPI   C1B 4301  10.076   1.845   9.184 -0.1313 -0.3285 -0.1385
  269loPI   C2B 4302  10.137   2.075   8.828 -0.1651 -0.0064 -0.2179
  269loPI   C3B 4303  10.116   2.101   8.348  0.0525 -0.2667 -0.1335
  269loPI   C4B 4304   9.806   2.255   8.109 -0.0968  0.2191  0.1011
  270loPI    C1 4305  14.916   4.273  10.473 -0.0399 -0.0395 -0.0593
  270loPI    C2 4306  14.676   4.124  10.756 -0.0655 -0.1824 -0.1559
  270loPI    C3 4307  15.030   4.279  10.857 -0.0676 -0.2472 -0.0469
  270loPI   PO4 4308  14.718   4.401  10.332  0.1650 -0.3098  0.1370
  270loPI   GL1 4309  14.814   4.767  10.139  0.1279 -0.0138 -0.0354
  270loPI   GL2 4310  14.688   5.022  10.061  0.3051  0.2055 -0.1356
  270loPI   C1A 4311  14.756   4.593   9.721 -0.1292  0.2144  0.3378
  270loPI   C2A 4312  14.649   4.691   9.265  0.1268 -0.0876  0.0282
  270loPI   C3A 4313  14.767   4.876   8.927  0.2797 -0.0318  0.1177
  270loPI   C4A 4314  14.653   5.076   8.619  0.2691  0.1730 -0.0549
  270loPI   C5A 4315  14.589   5.211   8.142 -0.1644  0.1326 -0.0614
  270loPI   C6A 4316  14.358   5.307   7.800  0.3930  0.1091 -0.2928
  270loPI   C1B 4317  14.849   5.208   9.711  0.1734 -0.1727 -0.1418
  270loPI   C2B 4318  14.812   5.275   9.219  0.0011 -0.2376  0.1917
  270loPI   C3B 4319  14.990   5.447   8.906 -0.1043 -0.0521  0.1486
  270loPI   C4B 4320  15.002   5.404   8.467  0.0704  0.3009 -0.0921
  271loPI    C1 4321   8.645  11.792  10.428  0.0577 -0.2514  0.0874
  271loPI    C2 4322   8.813  12.141  10.529  0.2633 -0.2886 -0.1173
  271loPI    C3 4323   8.457  12.039  10.681  0.1244  0.0834 -0.1829
  271loPI   PO4 4324   8.811  11.740  10.250  0.0873  0.0383 -0.0141
  271loPI   GL1 4325   8.936  11.869   9.854  0.1459 -0.2207 -0.0990
  271loPI   GL2 4326   8.895  12.194  10.025 -0.0041  0.0538  0.1518
  271loPI   C1A 4327   8.940  11.846   9.345 -0.1700  0.1332 -0.0012
  271loPI   C2A 4328   9.081  11.850   8.921  0.0068 -0.1886 -0.1362
  271loPI   C3A 4329   9.175  11.549   8.566 -0.0514  0.0940  0.2589
  271loPI   C4A 4330   9.489  11.489   8.239 -0.3795  0.1394 -0.2686
  271loPI   C5A 4331   9.687  11.494   7.873 -0.0336  0.1219  0.0199
  271loPI   C6A 4332   9.903  11.140   7.734 -0.1026  0.0841 -0.2190
  271loPI   C1B 4333   8.809  12.251   9.599  0.1591 -0.0313 -0.0638
  271loPI   C2B 4334   8.729  12.230   9.173 -0.2190  0.1587  0.0681
  271loPI   C3B 4335   8.644  12.456   8.830  0.0479 -0.1404 -0.1228
  271loPI   C4B 4336   8.836  12.733   8.556  0.2406 -0.0549 -0.2592
  272loPI    C1 4337  16.305  12.572  10.545  0.0440 -0.0994 -0.2227
  272loPI    C2 4338  15.932  12.625  10.411 -0.0520 -0.3402 -0.0555
  272loPI    C3 4339  15.996  12.537  10.796  0.1916 -0.1075 -0.0401
  272loPI   PO4 4340  16.461  12.429  10.290 -0.0037  0.0751  0.0726
  272loPI   GL1 4341  16.505  12.269   9.822  0.1767 -0.2252 -0.2035
  272loPI   GL2 4342  16.574  11.924   9.729 -0.0187  0.3492 -0.0396
  272loPI   C1A 4343  16.589  12.311   9.372 -0.0501  0.1561  0.2478
  272loPI   C2A 4344  16.703  12.303   9.034  0.3718  0.0527 -0.0834
  272loPI   C3A 4345  16.945  12.403   8.764 -0.1090  0.2206 -0.1836
  272loPI   C4A 4346  17.232  12.655   8.526  0.1948  0.0506 -0.0495
  272loPI   C5A 4347  17.475  12.801   8.135  0.0414 -0.3607  0.1320
  272loPI   C6A 4348  17.674  13.027   7.733  0.0022 -0.0082 -0.1001
  272loPI   C1B 4349  16.492  11.811   9.391 -0.3812 -0.2915 -0.0421
  272loPI   C2B 4350  16.640  11.882   8.864  0.1367  0.1010 -0.1140
  272loPI   C3B 4351  16.792  11.927   8.621 -0.0667  0.1439  0.3678
  272loPI   C4B 4352  16.899  12.211   8.294 -0.3366  0.0098 -0.3511
  273loPI    C1 4353   7.639  10.861  10.650 -0.0313 -0.1011  0.0017
  273loPI    C2 4354   7.360  11.110  10.791  0.0935  0.0241  0.0291
  273loPI    C3 4355   7.346  10.721  10.883 -0.0627  0.0325  0.0429
  273loPI   PO4 4356   7.701  10.998  10.436  0.0485  0.0232  0.0518
  273loPI   GL1 4357   7.966  11.010  10.098 -0.1062 -0.1776 -0.1271
  273loPI   GL2 4358   7.697  10.929   9.958 -0.1719 -0.0138  0.0249
  273loPI   C1A 4359   8.163  11.336   9.791 -0.2474  0.3064 -0.2807
  273loPI   C2A 4360   8.206  11.384   9.409 -0.0111 -0.3927 -0.0044
  273loPI   C3A 4361   8.227  11.453   8.892  0.3708  0.0655  0.1760
  273loPI   C4A 4362   8.351  11.506   8.546  0.2460  0.0449  0.1590
  273loPI   C5A 4363   8.682  11.515   8.299 -0.1769  0.3042  0.1358
  273loPI   C6A 4364   9.075  11.360   7.998 -0.2074 -0.1487 -0.2162
  273loPI   C1B 4365   7.956  10.955   9.530 -0.0207  0.0555 -0.1705
  273loPI   C2B 4366   8.070  10.993   9.143  0.4044 -0.0570 -0.2830
  273loPI   C3B 4367   7.863  10.987   8.744 -0.0429  0.0466  0.1405
  273loPI   C4B 4368   7.730  11.117   8.257  0.0726 -0.1432  0.1004
  274loPI    C1 4369   8.768  12.645  10.564 -0.3091 -0.1230 -0.0952
  274loPI    C2 4370   8.478  12.602  10.836 -0.1174  0.1813  0.1647
  274loPI    C3 4371   8.661  12.955  10.793  0.2859 -0.0320  0.0770
  274loPI   PO4 4372   8.715  12.593  10.319 -0.0524 -0.0787 -0.0131
  274loPI   GL1 4373   8.594  12.599   9.937 -0.0127  0.1029  0.2402
  274loPI   GL2 4374   8.793  12.947   9.979  0.1377  0.1162 -0.2751
  274loPI   C1A 4375   8.436  12.513   9.466 -0.0685 -0.2999  0.0338
  274loPI   C2A 4376   8.155  12.511   9.120  0.2268 -0.1008  0.0374
  274loPI   C3A 4377   8.175  12.319   8.691 -0.1913 -0.0028 -0.0266
  274loPI   C4A 4378   8.530  12.474   8.301  0.1094 -0.1333 -0.0767
  274loPI   C5A 4379   8.911  12.470   8.068  0.1202  0.1460  0.0433
  274loPI   C6A 4380   9.382  12.382   8.158 -0.1557  0.1531 -0.1984
  274loPI   C1B 4381   8.701  12.882   9.578  0.1292  0.2051 -0.0644
  274loPI   C2B 4382   8.639  12.859   9.136  0.1243  0.0770 -0.1287
  274loPI   C3B 4383   8.385  12.885   8.798 -0.0255  0.0926  0.1363
  274loPI   C4B 4384   8.218  12.828   8.412  0.1234  0.1014  0.1536
  275loPI    C1 4385   4.073   8.823  10.677  0.1894 -0.1137 -0.0295
  275loPI    C2 4386   4.199   9.203  10.677  0.4280 -0.1906  0.1212
  275loPI    C3 4387   4.102   9.024  11.022 -0.5100 -0.0057 -0.0184
  275loPI   PO4 4388   4.193   8.664  10.522  0.1491  0.2768  0.0484
  275loPI   GL1 4389   4.514   8.532  10.155  0.1506 -0.0348  0.1700
  275loPI   GL2 4390   4.739   8.516   9.833 -0.1459 -0.0116  0.0967
  275loPI   C1A 4391   4.302   8.779   9.751 -0.0001  0.0223  0.0872
  275loPI   C2A 4392   4.337   8.729   9.238 -0.0026 -0.1741 -0.2675
  275loPI   C3A 4393   4.415   8.680   8.870  0.1555  0.2424  0.2025
  275loPI   C4A 4394   4.432   8.924   8.442  0.0791  0.0930 -0.1634
  275loPI   C5A 4395   4.776   8.769   8.136  0.0515  0.4045 -0.2549
  275loPI   C6A 4396   5.040   8.718   7.815  0.1281  0.2506  0.1136
  275loPI   C1B 4397   4.812   8.670   9.392 -0.1537  0.0277 -0.2007
  275loPI   C2B 4398   4.764   8.967   9.078  0.0550 -0.0898  0.2227
  275loPI   C3B 4399   4.684   9.229   8.800 -0.0128  0.5530  0.1169
  275loPI   C4B 4400   4.778   9.285   8.354 -0.2321  0.2234 -0.0065
  276loPI    C1 4401   8.692  15.311  10.506 -0.0810 -0.0281  0.1079
  276loPI    C2 4402   8.834  15.611  10.730 -0.0268  0.0101  0.0228
  276loPI    C3 4403   8.508  15.410  10.847 -0.1499  0.1981  0.0066
  276loPI   PO4 4404   8.764  15.471  10.222  0.1100 -0.2140  0.1252
  276loPI   GL1 4405   8.781  15.338   9.803 -0.0172  0.3580  0.1627
  276loPI   GL2 4406   8.633  15.098   9.612 -0.4307  0.1757 -0.0964
  276loPI   C1A 4407   8.905  15.502   9.410  0.1619  0.0474 -0.0889
  276loPI   C2A 4408   8.956  15.476   9.031  0.1474 -0.2409 -0.0402
  276loPI   C3A 4409   8.841  15.572   8.658 -0.0723 -0.5781  0.2079
  276loPI   C4A 4410   8.870  15.348   8.308 -0.0551  0.0436 -0.1046
  276loPI   C5A 4411   8.822  15.224   7.861 -0.2819  0.1730 -0.0672
  276loPI   C6A 4412   8.680  15.180   7.445 -0.1048  0.3080  0.1134
  276loPI   C1B 4413   8.729  15.074   9.166  0.1716 -0.0556 -0.0419
  276loPI   C2B 4414   8.763  15.078   8.761 -0.0035  0.1286 -0.0129
  276loPI   C3B 4415   9.165  15.165   8.635 -0.0823 -0.1533 -0.2186
  276loPI   C4B 4416   9.495  15.447   8.722 -0.2474 -0.1361 -0.0039
  277loPI    C1 4417  14.574  11.319  10.473  0.2133  0.1244 -0.0859
  277loPI    C2 4418  14.532  11.141  10.829 -0.1608 -0.0684 -0.2214
  277loPI    C3 4419  14.564  11.539  10.807 -0.0342 -0.0628  0.0336
  277loPI   PO4 4420  14.299  11.229  10.334  0.0240 -0.0612  0.0043
  277loPI   GL1 4421  13.969  11.409  10.107  0.3192 -0.3382 -0.1447
  277loPI   GL2 4422  13.683  11.680  10.165 -0.3463 -0.1326 -0.1467
  277loPI   C1A 4423  14.124  11.452   9.725 -0.1124  0.0014  0.0191
  277loPI   C2A 4424  14.223  11.547   9.346 -0.0338  0.0582  0.2304
  277loPI   C3A 4425  13.949  11.434   8.970  0.1570 -0.2547 -0.0437
  277loPI   C4A 4426  13.711  11.636   8.797  0.1663  0.0280  0.0602
  277loPI   C5A 4427  13.321  11.680   8.542 -0.1436  0.1026 -0.1686
  277loPI   C6A 4428  12.954  11.870   8.364  0.0805  0.1651  0.2020
  277loPI   C1B 4429  13.637  11.719   9.706 -0.1548  0.1294  0.1985
  277loPI   C2B 4430  13.769  11.766   9.303  0.1196  0.0124  0.1041
  277loPI   C3B 4431  14.186  11.916   9.000 -0.0573 -0.4666 -0.4695
  277loPI   C4B 4432  14.538  12.010   8.722  0.0569  0.0459 -0.2819
  278loPI    C1 4433  10.683  16.834  10.613 -0.1295 -0.0762  0.2118
  278loPI    C2 4434  10.781  16.572  10.899 -0.0315 -0.0532  0.1994
  278loPI    C3 4435  10.853  16.962  10.952 -0.0657 -0.0425  0.1673
  278loPI   PO4 4436  10.440  16.785  10.500  0.0237 -0.0666  0.2716
  278loPI   GL1 4437  10.329  16.807  10.097  0.2721 -0.1151  0.1067
  278loPI   GL2 4438  10.080  16.904  10.088  0.1554 -0.0157  0.0067
  278loPI   C1A 4439  10.290  16.619   9.642 -0.0075  0.0447  0.0100
  278loPI   C2A 4440  10.303  16.596   9.175 -0.2615 -0.0741 -0.0069
  278loPI   C3A 4441  10.376  16.509   8.737  0.0076  0.3320  0.0986
  278loPI   C4A 4442  10.380  16.497   8.260 -0.1569 -0.0608  0.0018
  278loPI   C5A 4443  10.456  16.772   7.844 -0.1814 -0.1063  0.3491
  278loPI   C6A 4444  10.795  17.055   7.678 -0.0188  0.1131 -0.3104
  278loPI   C1B 4445   9.868  16.855   9.729 -0.0542  0.0158 -0.1367
  278loPI   C2B 4446   9.858  16.818   9.355 -0.0659 -0.0131 -0.1026
  278loPI   C3B 4447   9.884  16.714   8.960 -0.0577  0.0008  0.1321
  278loPI   C4B 4448   9.930  16.657   8.604 -0.0166  0.1156 -0.0724
  279loPI    C1 4449  14.458   7.389  10.481  0.0309 -0.0332 -0.1184
  279loPI    C2 4450  14.278   7.744  10.443 -0.1444 -0.1194 -0.1021
  279loPI    C3 4451  14.608   7.710  10.666 -0.0462  0.0607 -0.2180
  279loPI   PO4 4452  14.452   7.261  10.336  0.3361 -0.2001  0.2495
  279loPI   GL1 4453  14.655   6.987   9.957 -0.0099 -0.0236 -0.0828
  279loPI   GL2 4454  14.705   7.243   9.793  0.0366 -0.0737 -0.1787
  279loPI   C1A 4455  14.831   6.814   9.532 -0.1249  0.1733  0.1425
  279loPI   C2A 4456  14.794   6.763   9.042 -0.0910  0.0700 -0.1175
  279loPI   C3A 4457  14.922   6.898   8.694  0.2741  0.1115 -0.0592
  279loPI   C4A 4458  15.194   7.061   8.438 -0.1602 -0.0092 -0.0525
  279loPI   C5A 4459  15.661   7.052   8.180  0.0257  0.2469  0.2791
  279loPI   C6A 4460  16.148   7.151   8.031 -0.0074 -0.2281  0.2939
  279loPI   C1B 4461  14.678   7.273   9.391 -0.2896  0.0699  0.1880
  279loPI   C2B 4462  14.492   7.253   8.934  0.1581 -0.0883  0.0173
  279loPI   C3B 4463  14.665   7.273   8.420 -0.0902  0.1033  0.3038
  279loPI   C4B 4464  14.686   7.274   7.940 -0.2099 -0.0504 -0.2555
  280loPI    C1 4465   2.515  14.499  10.280  0.0089  0.0998  0.1991
  280loPI    C2 4466   2.844  14.608  10.080 -0.0252 -0.1127  0.0221
  280loPI    C3 4467   2.792  14.725  10.459  0.1548  0.0944 -0.0148
  280loPI   PO4 4468   2.468  14.312  10.231 -0.0896  0.2600 -0.1662
  280loPI   GL1 4469   2.582  14.123   9.851  0.1018  0.0644 -0.1737
  280loPI   GL2 4470   2.443  13.993   9.579  0.0577 -0.0801 -0.1580
  280loPI   C1A 4471   2.858  14.274   9.575 -0.0754 -0.0144 -0.0690
  280loPI   C2A 4472   2.720  14.265   9.171 -0.0188 -0.0038 -0.1071
  280loPI   C3A 4473   2.709  14.016   8.714 -0.1882  0.2706  0.0751
  280loPI   C4A 4474   2.672  13.755   8.515 -0.0726  0.1884  0.1413
  280loPI   C5A 4475   2.580  13.523   8.146 -0.1009  0.1950 -0.0983
  280loPI   C6A 4476   2.747  13.537   7.704  0.2913  0.1547  0.0844
  280loPI   C1B 4477   2.409  13.905   9.170  0.0472  0.0938 -0.2438
  280loPI   C2B 4478   2.238  13.663   8.920  0.3041 -0.0245 -0.1238
  280loPI   C3B 4479   2.095  13.664   8.554 -0.0641  0.1870  0.0868
  280loPI   C4B 4480   1.934  13.468   8.231 -0.0748  0.1435 -0.0031
  281loPI    C1 4481  12.833  17.054  10.121 -0.0640 -0.1791 -0.0383
  281loPI    C2 4482  13.214  16.955  10.192 -0.1228 -0.3837  0.0004
  281loPI    C3 4483  12.984  17.088  10.491 -0.0179 -0.0322 -0.0699
  281loPI   PO4 4484  12.898  17.188   9.828  0.0465 -0.1528 -0.5001
  281loPI   GL1 4485  12.967  17.241   9.405 -0.0906 -0.0514 -0.0657
  281loPI   GL2 4486  12.626  17.351   9.424  0.2269  0.0184 -0.2682
  281loPI   C1A 4487  12.984  16.906   9.187 -0.4387 -0.0931  0.0572
  281loPI   C2A 4488  12.956  16.952   8.752 -0.0284  0.1455 -0.0177
  281loPI   C3A 4489  13.193  17.133   8.417 -0.1653 -0.2405  0.1162
  281loPI   C4A 4490  13.527  17.168   8.110  0.1015  0.1841  0.1959
  281loPI   C5A 4491  13.897  17.172   8.085 -0.0978 -0.2227 -0.0824
  281loPI   C6A 4492  14.164  16.833   7.927  0.0186  0.1553 -0.1026
  281loPI   C1B 4493  12.697  17.331   8.989  0.0786  0.1070 -0.0716
  281loPI   C2B 4494  12.656  17.273   8.567  0.1230  0.1252  0.3035
  281loPI   C3B 4495  12.744  17.310   8.155 -0.2909  0.0863 -0.3581
  281loPI   C4B 4496  13.103  17.317   7.961  0.0018  0.0184 -0.1216
  282loPI    C1 4497   4.039  11.829  10.283 -0.1095  0.1457 -0.0177
  282loPI    C2 4498   4.396  11.917  10.441 -0.1414  0.2124  0.0181
  282loPI    C3 4499   4.187  11.606  10.581  0.0053  0.0306 -0.1595
  282loPI   PO4 4500   4.122  11.857   9.992 -0.0867 -0.1593  0.0140
  282loPI   GL1 4501   4.054  12.216   9.655 -0.0037  0.1322  0.2268
  282loPI   GL2 4502   4.005  12.564   9.541 -0.1410  0.1939  0.0954
  282loPI   C1A 4503   4.057  11.993   9.267 -0.0561  0.0391 -0.1725
  282loPI   C2A 4504   3.991  12.003   8.897 -0.0595 -0.0945 -0.1633
  282loPI   C3A 4505   4.151  11.987   8.537 -0.0292 -0.0430 -0.3144
  282loPI   C4A 4506   4.075  12.109   8.226 -0.3051  0.1877  0.2138
  282loPI   C5A 4507   4.206  11.792   7.893  0.0599 -0.0842  0.0209
  282loPI   C6A 4508   4.470  11.559   7.698 -0.0688 -0.3587 -0.3373
  282loPI   C1B 4509   3.967  12.824   9.219  0.0918 -0.1050  0.0463
  282loPI   C2B 4510   4.232  12.956   8.839  0.1187 -0.2706 -0.0672
  282loPI   C3B 4511   4.148  12.887   8.429 -0.2515 -0.0755 -0.1248
  282loPI   C4B 4512   3.904  12.910   8.056  0.1224 -0.2276  0.5725
  283loPI    C1 4513   2.989  15.670   9.817  0.0140 -0.2752 -0.2660
  283loPI    C2 4514   2.637  15.510   9.711  0.0005 -0.3542 -0.1043
  283loPI    C3 4515   2.679  15.683  10.069 -0.0035  0.0656 -0.3014
  283loPI   PO4 4516   3.173  15.522   9.679 -0.1333  0.2352 -0.2118
  283loPI   GL1 4517   3.455  15.487   9.352 -0.0123 -0.0521  0.0003
  283loPI   GL2 4518   3.677  15.779   9.329  0.1357  0.2886  0.1002
  283loPI   C1A 4519   3.637  15.277   9.027  0.3041 -0.0337  0.3654
  283loPI   C2A 4520   3.709  15.398   8.591 -0.2535  0.1293 -0.0759
  283loPI   C3A 4521   3.827  15.419   8.170 -0.0662  0.2407  0.1372
  283loPI   C4A 4522   4.078  15.645   7.924  0.0796 -0.0159 -0.0852
  283loPI   C5A 4523   4.230  15.997   8.088 -0.1132  0.1754  0.2553
  283loPI   C6A 4524   4.330  16.316   8.283 -0.1825 -0.0058  0.0297
  283loPI   C1B 4525   3.750  15.852   8.827  0.3464 -0.1063  0.0895
  283loPI   C2B 4526   3.843  15.926   8.427 -0.2603  0.0576  0.0569
  283loPI   C3B 4527   3.736  16.067   8.053  0.3081  0.2941  0.2206
  283loPI   C4B 4528   3.631  16.382   7.882 -0.0380  0.2370 -0.0820
  284loPI    C1 4529  11.482   2.564  10.605  0.1640 -0.3585  0.0969
  284loPI    C2 4530  11.197   2.721  10.838 -0.1002 -0.2167 -0.3089
  284loPI    C3 4531  11.467   2.469  10.993 -0.1371  0.0376  0.1887
  284loPI   PO4 4532  11.241   2.550  10.340  0.0204 -0.0499  0.1787
  284loPI   GL1 4533  11.275   2.390   9.952 -0.1692  0.2160  0.0788
  284loPI   GL2 4534  11.170   2.644   9.850 -0.0793 -0.1570 -0.2393
  284loPI   C1A 4535  11.066   2.155   9.658  0.0220 -0.0434  0.0195
  284loPI   C2A 4536  10.915   2.290   9.254  0.0252  0.4234 -0.3695
  284loPI   C3A 4537  10.895   2.325   8.810 -0.0993  0.0733  0.1465
  284loPI   C4A 4538  10.879   2.281   8.381 -0.0805 -0.1969 -0.0471
  284loPI   C5A 4539  10.771   2.428   7.961  0.3574  0.0019  0.0495
  284loPI   C6A 4540  10.683   2.432   7.531  0.0375 -0.1343 -0.3028
  284loPI   C1B 4541  11.331   2.484   9.473 -0.2809 -0.1334 -0.2436
  284loPI   C2B 4542  11.340   2.499   9.087  0.2265  0.0029  0.0089
  284loPI   C3B 4543  11.378   2.512   8.635  0.1109 -0.4647 -0.0452
  284loPI   C4B 4544  11.306   2.515   8.129 -0.0538 -0.0362  0.0446
  285loPI    C1 4545   2.257  16.084  10.033  0.0044 -0.4716  0.0474
  285loPI    C2 4546   2.615  16.244   9.957 -0.2128  0.0468  0.0754
  285loPI    C3 4547   2.543  16.078  10.313 -0.0171 -0.0212  0.0849
  285loPI   PO4 4548   2.263  15.884   9.832  0.0384  0.0104 -0.0585
  285loPI   GL1 4549   2.292  16.156   9.521 -0.0651  0.4765  0.0461
  285loPI   GL2 4550   2.622  15.963   9.487 -0.2629  0.0610 -0.3032
  285loPI   C1A 4551   2.025  16.102   9.120 -0.2052  0.1418  0.2152
  285loPI   C2A 4552   1.722  16.063   8.884  0.2451 -0.3630  0.4177
  285loPI   C3A 4553   1.465  16.119   8.567  0.1043  0.1320 -0.0842
  285loPI   C4A 4554   1.504  16.194   8.199  0.2023 -0.2177  0.0341
  285loPI   C5A 4555   1.800  16.159   7.916 -0.1872 -0.1658 -0.0147
  285loPI   C6A 4556   1.926  16.044   7.523  0.1389  0.1978  0.1034
  285loPI   C1B 4557   2.758  15.613   9.066 -0.0030  0.0053 -0.1527
  285loPI   C2B 4558   2.843  15.566   8.655 -0.1450  0.1486 -0.0110
  285loPI   C3B 4559   2.906  15.513   8.282 -0.0887 -0.3008  0.0301
  285loPI   C4B 4560   2.663  15.603   7.902  0.0020 -0.0505  0.0991
  286loPI    C1 4561   9.425   3.315  10.503 -0.0454  0.1359  0.2199
  286loPI    C2 4562   9.764   3.191  10.677 -0.0331  0.0838  0.1587
  286loPI    C3 4563   9.483   3.375  10.894 -0.0566 -0.0624  0.2530
  286loPI   PO4 4564   9.518   3.155  10.181  0.0555  0.1138 -0.0116
  286loPI   GL1 4565   9.467   3.285   9.786 -0.0844 -0.0726  0.1364
  286loPI   GL2 4566   9.269   3.459   9.611  0.0579 -0.1435  0.0864
  286loPI   C1A 4567   9.633   3.168   9.372 -0.0441  0.2393  0.1787
  286loPI   C2A 4568   9.760   3.007   8.973  0.0696 -0.3219 -0.3323
  286loPI   C3A 4569   9.830   2.931   8.528 -0.1557 -0.0421  0.0620
  286loPI   C4A 4570   9.606   2.915   8.117 -0.1912  0.1554 -0.1808
  286loPI   C5A 4571   9.241   2.811   8.019 -0.4147  0.1696  0.2696
  286loPI   C6A 4572   8.856   2.917   8.021  0.3120 -0.1451  0.2026
  286loPI   C1B 4573   9.296   3.654   9.225 -0.0845 -0.2700 -0.4117
  286loPI   C2B 4574   9.446   3.406   8.895  0.1901  0.1898  0.0137
  286loPI   C3B 4575   9.549   3.383   8.553 -0.1830 -0.0348  0.1103
  286loPI   C4B 4576   9.599   3.399   8.158 -0.1614  0.5423  0.0625
  287loPI    C1 4577  15.320   5.016  10.896  0.1707 -0.0181 -0.1307
  287loPI    C2 4578  15.718   4.980  10.912  0.1757  0.1214  0.1235
  287loPI    C3 4579  15.487   4.654  10.922  0.2846  0.0331 -0.1399
  287loPI   PO4 4580  15.306   5.185  10.670 -0.0313 -0.1954 -0.3594
  287loPI   GL1 4581  15.163   5.157  10.213  0.0569 -0.2279 -0.1037
  287loPI   GL2 4582  15.444   5.147  10.088 -0.1163  0.1430  0.0656
  287loPI   C1A 4583  15.069   5.547   9.984 -0.3070 -0.1275  0.1458
  287loPI   C2A 4584  15.062   5.645   9.508  0.2103 -0.0624 -0.1398
  287loPI   C3A 4585  15.061   5.917   9.092  0.3078 -0.0234 -0.0598
  287loPI   C4A 4586  14.981   5.878   8.530  0.0302 -0.0873 -0.2751
  287loPI   C5A 4587  15.009   5.836   8.102 -0.1069 -0.0289 -0.1982
  287loPI   C6A 4588  14.670   5.814   7.776  0.0604  0.3684 -0.0239
  287loPI   C1B 4589  15.375   5.308   9.664 -0.0387  0.2083 -0.0946
  287loPI   C2B 4590  15.414   5.471   9.209 -0.1342 -0.0208  0.0560
  287loPI   C3B 4591  15.401   5.614   8.782  0.0190 -0.0342 -0.3736
  287loPI   C4B 4592  15.520   5.564   8.394 -0.0787  0.0919 -0.3054
  288loPI    C1 4593   9.394   9.288  10.776 -0.2253 -0.1812 -0.2306
  288loPI    C2 4594   9.502   8.989  11.018 -0.1512  0.0787  0.0647
  288loPI    C3 4595   9.719   9.324  11.006 -0.1863  0.0920 -0.3250
  288loPI   PO4 4596   9.296   9.165  10.495 -0.0031 -0.0685  0.2359
  288loPI   GL1 4597   9.580   9.015  10.151 -0.1219 -0.0324 -0.1812
  288loPI   GL2 4598   9.832   8.843  10.213 -0.4130  0.1394 -0.1807
  288loPI   C1A 4599   9.463   9.223   9.693 -0.1925 -0.0225 -0.0879
  288loPI   C2A 4600   9.513   9.356   9.260 -0.0276 -0.1789  0.0794
  288loPI   C3A 4601   9.373   9.160   8.927 -0.1542 -0.0807  0.1220
  288loPI   C4A 4602   9.311   8.823   8.607  0.0200  0.0285  0.3452
  288loPI   C5A 4603   9.097   8.633   8.243 -0.3444 -0.1259 -0.3333
  288loPI   C6A 4604   8.728   8.749   8.076  0.2815 -0.0622 -0.1522
  288loPI   C1B 4605  10.163   8.791   9.826  0.0847  0.1037 -0.0511
  288loPI   C2B 4606  10.222   8.852   9.366 -0.2564  0.0350 -0.1620
  288loPI   C3B 4607  10.229   8.798   8.905 -0.1612 -0.3020  0.1762
  288loPI   C4B 4608  10.395   8.908   8.499  0.3785  0.2729  0.0080
  289loPI    C1 4609   2.066   9.843  10.434 -0.0120  0.0843 -0.0913
  289loPI    C2 4610   1.889   9.597  10.695  0.2805  0.0658  0.0947
  289loPI    C3 4611   2.087   9.447  10.381  0.2678  0.0725  0.0835
  289loPI   PO4 4612   1.843  10.070  10.363  0.0137 -0.0206  0.0229
  289loPI   GL1 4613   1.539  10.207  10.127 -0.1062  0.0748 -0.0339
  289loPI   GL2 4614   1.794  10.275   9.919 -0.0071  0.2077  0.1200
  289loPI   C1A 4615   1.353  10.380   9.725 -0.0024 -0.0030 -0.1647
  289loPI   C2A 4616   1.151  10.196   9.295  0.0997 -0.2143  0.2257
  289loPI   C3A 4617   1.061  10.025   8.871 -0.1433 -0.0206  0.3185
  289loPI   C4A 4618   0.948   9.889   8.401 -0.1228  0.1717  0.1273
  289loPI   C5A 4619   0.980   9.508   8.174  0.0540  0.0051 -0.2366
  289loPI   C6A 4620   0.721   9.404   7.932 -0.0260 -0.0419 -0.4133
  289loPI   C1B 4621   1.796  10.039   9.573 -0.2654  0.1116 -0.2701
  289loPI   C2B 4622   1.573   9.940   9.263 -0.0922  0.1140  0.1691
  289loPI   C3B 4623   1.632   9.854   8.853 -0.3610  0.1044 -0.0899
  289loPI   C4B 4624   1.498   9.699   8.500  0.0529  0.1400 -0.0065
  290loPI    C1 4625   9.667  16.560  10.587  0.0317 -0.0083  0.0396
  290loPI    C2 4626   9.963  16.802  10.704 -0.0313  0.1245 -0.0725
  290loPI    C3 4627   9.750  16.601  10.976  0.3553 -0.2065 -0.0059
  290loPI   PO4 4628   9.612  16.688  10.309  0.0092  0.3267 -0.1490
  290loPI   GL1 4629   9.400  16.611   9.954 -0.0391  0.0447 -0.0600
  290loPI   GL2 4630   9.012  16.390   9.862 -0.3363  0.1382 -0.1807
  290loPI   C1A 4631   9.339  16.792   9.568  0.4393  0.1807 -0.2180
  290loPI   C2A 4632   9.384  16.817   9.181 -0.2861  0.0376 -0.1115
  290loPI   C3A 4633   9.387  16.828   8.810  0.0180  0.0230 -0.2773
  290loPI   C4A 4634   9.428  16.751   8.496 -0.1637 -0.0332 -0.0239
  290loPI   C5A 4635   9.507  16.699   8.158 -0.0897  0.2176  0.2920
  290loPI   C6A 4636   9.594  16.570   7.727  0.1335  0.3882  0.1216
  290loPI   C1B 4637   9.059  16.435   9.402 -0.1157  0.0984  0.1145
  290loPI   C2B 4638   9.105  16.468   8.993  0.0769 -0.0405  0.0720
  290loPI   C3B 4639   9.036  16.367   8.615 -0.0721  0.1997 -0.0050
  290loPI   C4B 4640   9.136  16.286   8.172  0.0958 -0.1217 -0.0902
  291loPI    C1 4641  11.912   2.847  10.559 -0.0522 -0.0546  0.0147
  291loPI    C2 4642  12.145   2.865  10.883 -0.1314 -0.2770  0.0862
  291loPI    C3 4643  11.936   2.534  10.806 -0.3005 -0.1377 -0.0634
  291loPI   PO4 4644  12.131   2.968  10.382  0.4515 -0.0696  0.1878
  291loPI   GL1 4645  12.242   3.128   9.975 -0.0064 -0.0388  0.1010
  291loPI   GL2 4646  12.365   3.064   9.663 -0.0395 -0.1466  0.0716
  291loPI   C1A 4647  11.758   3.212   9.865  0.2612 -0.2035  0.0356
  291loPI   C2A 4648  11.380   3.008   9.589 -0.0413 -0.2237 -0.0663
  291loPI   C3A 4649  11.327   3.023   9.100  0.1642 -0.1665 -0.0493
  291loPI   C4A 4650  11.206   3.017   8.763 -0.1056 -0.0097 -0.0650
  291loPI   C5A 4651  11.184   3.189   8.345  0.1132  0.1064  0.0987
  291loPI   C6A 4652  11.251   3.504   8.115  0.3909  0.1407  0.3512
  291loPI   C1B 4653  12.185   3.105   9.251 -0.0359  0.0428  0.0232
  291loPI   C2B 4654  12.146   3.212   8.835  0.2513  0.0112  0.1281
  291loPI   C3B 4655  12.320   3.275   8.448 -0.0494  0.0206 -0.1610
  291loPI   C4B 4656  12.087   3.410   8.086 -0.1679 -0.0820 -0.0282
  292loPI    C1 4657   3.843  17.305   9.903 -0.0301  0.2870  0.0526
  292loPI    C2 4658   3.702  17.323  10.277 -0.0464 -0.1403  0.0712
  292loPI    C3 4659   4.097  17.307  10.212 -0.0371  0.1021  0.0605
  292loPI   PO4 4660   3.772  17.535   9.798 -0.1949  0.1150  0.0699
  292loPI   GL1 4661   3.519  17.720   9.544  0.0649 -0.2761 -0.3686
  292loPI   GL2 4662   3.308  17.416   9.560 -0.4216  0.1759 -0.5307
  292loPI   C1A 4663   3.627  17.628   9.134 -0.2287  0.1198  0.0027
  292loPI   C2A 4664   3.604  17.807   8.687 -0.1391  0.1211  0.1259
  292loPI   C3A 4665   3.612  18.063   8.400 -0.2819  0.1155  0.1032
  292loPI   C4A 4666   3.519  18.198   8.030 -0.0201  0.1270  0.1629
  292loPI   C5A 4667   3.399  18.113   7.632  0.1065 -0.0399  0.0760
  292loPI   C6A 4668   3.561  17.859   7.403 -0.0433 -0.1915 -0.2794
  292loPI   C1B 4669   3.133  17.350   9.134  0.1620 -0.3066 -0.1406
  292loPI   C2B 4670   2.790  17.204   8.825  0.0575  0.2637 -0.1443
  292loPI   C3B 4671   2.620  17.038   8.490 -0.1885 -0.0858  0.1582
  292loPI   C4B 4672   2.328  16.908   8.047 -0.1554  0.2711 -0.0349
  293loPI    C1 4673  17.141  16.494  10.045 -0.0860 -0.2570 -0.0254
  293loPI    C2 4674  17.421  16.269  10.221  0.0261  0.1429  0.3245
  293loPI    C3 4675  17.085  16.361  10.418 -0.1612  0.0246  0.0664
  293loPI   PO4 4676  17.268  16.598   9.868 -0.0797  0.1485  0.0643
  293loPI   GL1 4677  17.073  16.807   9.522  0.0396 -0.1268  0.3038
  293loPI   GL2 4678  16.740  16.994   9.432  0.0360  0.1388  0.2648
  293loPI   C1A 4679  17.120  16.748   9.136  0.0799 -0.2566 -0.1316
  293loPI   C2A 4680  16.872  16.867   8.789  0.0021  0.4004  0.3066
  293loPI   C3A 4681  16.848  16.990   8.313 -0.2640 -0.1016 -0.1686
  293loPI   C4A 4682  17.129  17.016   7.836 -0.1549  0.0049 -0.0203
  293loPI   C5A 4683  17.304  16.671   7.644  0.0405 -0.0893 -0.0281
  293loPI   C6A 4684  17.652  16.527   7.523 -0.2182 -0.0399  0.0717
  293loPI   C1B 4685  16.530  17.177   8.995  0.1539  0.0634 -0.0473
  293loPI   C2B 4686  16.418  17.281   8.651 -0.2836 -0.1985 -0.0367
  293loPI   C3B 4687  16.422  17.308   8.270 -0.1119 -0.3463  0.0596
  293loPI   C4B 4688  16.269  17.371   7.823  0.1146 -0.0449  0.1412
  294loPI    C1 4689   3.555   3.722  10.579  0.2832 -0.1776  0.0153
  294loPI    C2 4690   3.877   3.927  10.463  0.1760 -0.0498 -0.0592
  294loPI    C3 4691   3.690   4.024  10.803  0.1700 -0.0727 -0.0560
  294loPI   PO4 4692   3.421   3.661  10.366  0.1275 -0.0523 -0.3771
  294loPI   GL1 4693   3.701   3.530  10.065 -0.1297 -0.1926 -0.1649
  294loPI   GL2 4694   3.771   3.876   9.987 -0.1254 -0.0261 -0.1684
  294loPI   C1A 4695   3.667   3.491   9.684  0.2753  0.1773  0.2308
  294loPI   C2A 4696   3.733   3.507   9.302  0.0128  0.0498 -0.2097
  294loPI   C3A 4697   3.676   3.683   8.950 -0.0911 -0.0037  0.1167
  294loPI   C4A 4698   3.632   4.039   8.614 -0.2074  0.1040  0.0295
  294loPI   C5A 4699   3.381   4.270   8.400  0.1485  0.1773  0.1051
  294loPI   C6A 4700   2.928   4.328   8.206  0.0466  0.0628  0.1107
  294loPI   C1B 4701   3.655   3.933   9.588  0.0293 -0.2470 -0.0306
  294loPI   C2B 4702   3.623   4.139   9.221 -0.1883  0.1272  0.1345
  294loPI   C3B 4703   3.304   4.315   8.925 -0.0711 -0.2493  0.0573
  294loPI   C4B 4704   2.821   4.419   9.043 -0.0818  0.2488  0.1399
  295loPI    C1 4705   2.463   3.304  10.609 -0.0410 -0.0392  0.2451
  295loPI    C2 4706   2.546   3.685  10.694  0.2218 -0.0218 -0.0703
  295loPI    C3 4707   2.660   3.395  10.945  0.1255  0.0965  0.1125
  295loPI   PO4 4708   2.576   3.278  10.363  0.2191 -0.1187 -0.2569
  295loPI   GL1 4709   2.540   3.435   9.941  0.0509 -0.0556 -0.1260
  295loPI   GL2 4710   2.225   3.518   9.819  0.1025 -0.0644  0.3160
  295loPI   C1A 4711   2.749   3.725   9.662  0.1044  0.1012  0.0781
  295loPI   C2A 4712   2.704   3.953   9.380  0.0578  0.0713  0.1118
  295loPI   C3A 4713   2.569   3.839   8.936 -0.3632  0.2082  0.0583
  295loPI   C4A 4714   2.266   3.908   8.692  0.0784 -0.3884 -0.0350
  295loPI   C5A 4715   1.912   3.988   8.990  0.1168  0.1006 -0.1656
  295loPI   C6A 4716   1.557   3.725   9.062 -0.2550 -0.2186 -0.1463
  295loPI   C1B 4717   2.341   3.537   9.342 -0.0135  0.0044  0.0028
  295loPI   C2B 4718   2.096   3.481   8.936  0.1591 -0.0998  0.0734
  295loPI   C3B 4719   1.808   3.414   8.616 -0.1619  0.1420 -0.2275
  295loPI   C4B 4720   1.700   3.025   8.536  0.0154  0.2168  0.3864
  296loPI    C1 4721   8.652   1.876  10.690 -0.5021  0.1051  0.0777
  296loPI    C2 4722   8.496   1.513  10.746 -0.3409  0.0113 -0.0716
  296loPI    C3 4723   8.802   1.635  10.972 -0.3567  0.0313 -0.0611
  296loPI   PO4 4724   8.806   1.940  10.448 -0.0126 -0.1022 -0.0030
  296loPI   GL1 4725   8.826   1.935  10.180  0.2237  0.0580 -0.1082
  296loPI   GL2 4726   9.065   2.105  10.001  0.0272  0.2705  0.2736
  296loPI   C1A 4727   8.584   1.837   9.776  0.0593 -0.3553 -0.1498
  296loPI   C2A 4728   8.703   1.902   9.355  0.2730  0.2017 -0.2559
  296loPI   C3A 4729   8.707   2.033   8.936 -0.0281  0.1077  0.1942
  296loPI   C4A 4730   8.723   2.248   8.534 -0.1740 -0.0507  0.1766
  296loPI   C5A 4731   8.605   2.298   8.233  0.0481  0.1331 -0.0885
  296loPI   C6A 4732   8.306   2.260   7.884 -0.1808  0.0744  0.0821
  296loPI   C1B 4733   9.030   2.183   9.554 -0.2469 -0.3410  0.2176
  296loPI   C2B 4734   9.073   2.372   9.155 -0.0031  0.0927  0.0362
  296loPI   C3B 4735   9.110   2.433   8.782 -0.1351 -0.0629 -0.2257
  296loPI   C4B 4736   8.967   2.638   8.447  0.1010  0.1560 -0.1599
  297loPI    C1 4737   1.361   8.429  10.681  0.2131 -0.0452 -0.2910
  297loPI    C2 4738   1.667   8.364  10.931  0.1268  0.0174 -0.1678
  297loPI    C3 4739   1.449   8.697  10.965 -0.0339 -0.0860 -0.1736
  297loPI   PO4 4740   1.454   8.345  10.441  0.1332  0.2039 -0.3744
  297loPI   GL1 4741   1.828   8.392  10.069  0.0883  0.0511  0.1626
  297loPI   GL2 4742   2.251   8.290  10.047  0.1063  0.1733 -0.0885
  297loPI   C1A 4743   1.740   8.281   9.689 -0.3715  0.0467  0.0395
  297loPI   C2A 4744   1.671   8.143   9.307  0.0695 -0.2996 -0.3488
  297loPI   C3A 4745   1.603   8.175   8.845 -0.4574  0.1626  0.0704
  297loPI   C4A 4746   1.501   8.130   8.437  0.1018 -0.2614  0.0311
  297loPI   C5A 4747   1.608   7.821   8.219 -0.3644 -0.1662  0.0015
  297loPI   C6A 4748   1.816   7.428   8.091  0.0579 -0.2684  0.1194
  297loPI   C1B 4749   2.238   8.156   9.648  0.4979  0.3963  0.1237
  297loPI   C2B 4750   2.174   8.089   9.186 -0.0459 -0.0822 -0.2542
  297loPI   C3B 4751   2.047   8.106   8.701 -0.3645  0.0757  0.4616
  297loPI   C4B 4752   1.963   8.209   8.218  0.2351  0.0118 -0.1360
  298loPI    C1 4753   2.207   0.614  10.282 -0.0739 -0.0554  0.0422
  298loPI    C2 4754   2.009   0.376  10.535 -0.0135  0.0142  0.1553
  298loPI    C3 4755   2.320   0.593  10.665 -0.0131  0.0877  0.0328
  298loPI   PO4 4756   2.406   0.555  10.095 -0.3402  0.0962 -0.0482
  298loPI   GL1 4757   2.348   0.513   9.772 -0.0884 -0.1879 -0.0054
  298loPI   GL2 4758   2.118   0.528   9.553  0.1684  0.1166 -0.1374
  298loPI   C1A 4759   2.660   0.367   9.498  0.2331 -0.1482  0.0763
  298loPI   C2A 4760   2.768   0.158   9.079  0.1591 -0.0800 -0.0895
  298loPI   C3A 4761   2.729  -0.012   8.638 -0.0828  0.1743  0.4262
  298loPI   C4A 4762   2.651   0.159   8.258  0.0980 -0.3316 -0.0930
  298loPI   C5A 4763   2.532   0.173   7.798 -0.0624 -0.1365 -0.0587
  298loPI   C6A 4764   2.241  -0.065   7.457 -0.1563 -0.0068 -0.0608
  298loPI   C1B 4765   2.239   0.317   9.097 -0.1013  0.1624  0.1011
  298loPI   C2B 4766   2.286   0.041   8.856 -0.1920  0.0377 -0.2019
  298loPI   C3B 4767   2.225  -0.071   8.388  0.3198  0.1076 -0.0077
  298loPI   C4B 4768   2.071   0.244   8.070 -0.0022  0.3036 -0.1289
  299loPI    C1 4769   7.217  10.742  10.419 -0.0389  0.0024 -0.0290
  299loPI    C2 4770   6.851  10.780  10.263 -0.0045 -0.0474 -0.1232
  299loPI    C3 4771   6.928  10.919  10.631 -0.0566  0.1755 -0.1949
  299loPI   PO4 4772   7.312  10.700  10.192 -0.2112 -0.1692  0.0968
  299loPI   GL1 4773   7.185  10.929   9.863 -0.0381  0.2008  0.1346
  299loPI   GL2 4774   6.968  11.149   9.813 -0.2154 -0.2257  0.2144
  299loPI   C1A 4775   7.527  10.749   9.537  0.0076  0.2629  0.3410
  299loPI   C2A 4776   7.637  10.742   9.171 -0.0713 -0.2474  0.2407
  299loPI   C3A 4777   7.513  10.663   8.744 -0.2347  0.0276  0.3149
  299loPI   C4A 4778   7.663  10.666   8.348  0.0504 -0.0283 -0.2367
  299loPI   C5A 4779   7.403  10.693   8.034  0.0009 -0.0879  0.0053
  299loPI   C6A 4780   6.984  10.617   8.003 -0.0127  0.1002 -0.1203
  299loPI   C1B 4781   7.096  11.026   9.366  0.1441  0.3222  0.1694
  299loPI   C2B 4782   7.230  10.984   8.990  0.1046  0.2400  0.2078
  299loPI   C3B 4783   7.339  11.105   8.601 -0.1235 -0.2160  0.4870
  299loPI   C4B 4784   7.193  11.086   8.214  0.3568 -0.2465  0.1206
  300loPI    C1 4785   2.870   2.941  10.798 -0.0414  0.0735 -0.1109
  300loPI    C2 4786   2.712   2.575  10.836  0.1430 -0.0167 -0.1949
  300loPI    C3 4787   2.934   2.729  11.131 -0.0138  0.0680 -0.1197
  300loPI   PO4 4788   2.964   2.939  10.503 -0.1439 -0.0940  0.0540
  300loPI   GL1 4789   2.859   2.850   9.955 -0.1311  0.3080 -0.3581
  300loPI   GL2 4790   2.551   2.958   9.983  0.0255  0.1952  0.1462
  300loPI   C1A 4791   2.984   2.788   9.547  0.0578  0.1655 -0.0123
  300loPI   C2A 4792   2.774   2.861   9.243 -0.1374  0.0871  0.1112
  300loPI   C3A 4793   2.515   2.645   8.925 -0.1464 -0.0824 -0.1950
  300loPI   C4A 4794   2.623   2.631   8.502  0.0257  0.2538 -0.1581
  300loPI   C5A 4795   2.528   2.546   8.198  0.3613 -0.1949  0.3626
  300loPI   C6A 4796   2.552   2.559   7.866 -0.1046  0.1820 -0.0625
  300loPI   C1B 4797   2.453   3.132   9.576 -0.0113 -0.0584 -0.1146
  300loPI   C2B 4798   2.238   3.012   9.198 -0.1222  0.0433 -0.1679
  300loPI   C3B 4799   2.151   3.004   8.735 -0.0997  0.1649 -0.0445
  300loPI   C4B 4800   2.273   2.914   8.354  0.1392 -0.0923 -0.1546
  301loPI    C1 4801   0.231   4.966  10.396 -0.0687  0.1006  0.0147
  301loPI    C2 4802  -0.168   4.973  10.371 -0.0608  0.0931 -0.1216
  301loPI    C3 4803   0.009   4.857  10.710 -0.1744  0.1112 -0.0557
  301loPI   PO4 4804   0.318   5.138  10.322  0.1706  0.0391  0.2732
  301loPI   GL1 4805   0.456   5.297   9.982  0.0469 -0.1105  0.1744
  301loPI   GL2 4806   0.057   5.313   9.886  0.1815  0.0477 -0.1796
  301loPI   C1A 4807   0.621   5.187   9.654  0.1268 -0.1398 -0.0460
  301loPI   C2A 4808   0.794   5.077   9.313  0.1763 -0.2469 -0.0741
  301loPI   C3A 4809   0.922   4.851   8.983 -0.0474 -0.2745 -0.0441
  301loPI   C4A 4810   1.012   4.626   8.680  0.0314 -0.0570  0.2706
  301loPI   C5A 4811   1.011   4.523   8.319 -0.3154  0.1254 -0.2795
  301loPI   C6A 4812   1.247   4.214   8.103  0.1715 -0.0445 -0.2706
  301loPI   C1B 4813   0.047   5.387   9.471  0.1140 -0.3365  0.0006
  301loPI   C2B 4814   0.135   5.447   9.010  0.4699  0.0581 -0.4160
  301loPI   C3B 4815   0.217   5.311   8.512 -0.0537  0.0955 -0.0698
  301loPI   C4B 4816   0.503   5.380   8.161  0.1052 -0.0699 -0.2744
  302loPI    C1 4817   2.768  15.191  10.109 -0.1904  0.0642  0.1125
  302loPI    C2 4818   3.097  15.401  10.198  0.0574 -0.1733 -0.2152
  302loPI    C3 4819   2.858  15.271  10.490  0.2116  0.0671  0.0224
  302loPI   PO4 4820   2.860  15.091   9.875 -0.0283 -0.0782 -0.1427
  302loPI   GL1 4821   2.538  15.040   9.654  0.2218 -0.0084  0.0278
  302loPI   GL2 4822   2.270  15.220   9.521 -0.0595  0.2063  0.0425
  302loPI   C1A 4823   2.688  14.792   9.265  0.0811  0.0724  0.0514
  302loPI   C2A 4824   2.775  14.610   8.850  0.0379  0.0446  0.0623
  302loPI   C3A 4825   2.818  14.486   8.460  0.1086 -0.3829 -0.0346
  302loPI   C4A 4826   2.707  14.202   8.213  0.1242 -0.3054 -0.0372
  302loPI   C5A 4827   2.642  13.971   7.947 -0.1546  0.1758 -0.0107
  302loPI   C6A 4828   2.954  14.020   7.612  0.0760  0.1509 -0.2986
  302loPI   C1B 4829   2.418  15.210   9.018 -0.0218  0.1241 -0.1551
  302loPI   C2B 4830   2.497  14.998   8.754 -0.1608  0.0359 -0.1774
  302loPI   C3B 4831   2.675  14.989   8.324  0.2916 -0.0572  0.2366
  302loPI   C4B 4832   2.638  14.673   7.995  0.2448 -0.0654 -0.2027
  303loPI    C1 4833  16.333   4.289  10.588 -0.3092  0.1090 -0.2285
  303loPI    C2 4834  16.427   4.542  10.292  0.1880  0.1644 -0.0327
  303loPI    C3 4835  16.596   4.583  10.652 -0.0491 -0.1924  0.1252
  303loPI   PO4 4836  16.308   4.054  10.442 -0.0544 -0.1391  0.0999
  303loPI   GL1 4837  16.324   4.129  10.043 -0.1783  0.2542 -0.1693
  303loPI   GL2 4838  16.590   4.150   9.719  0.1946  0.1097  0.4050
  303loPI   C1A 4839  16.015   4.379   9.787 -0.0842  0.2262  0.2886
  303loPI   C2A 4840  16.109   4.526   9.366 -0.0649  0.0368  0.3158
  303loPI   C3A 4841  16.031   4.661   9.001  0.1408  0.2213 -0.0203
  303loPI   C4A 4842  16.190   4.815   8.628  0.1257 -0.2005  0.4396
  303loPI   C5A 4843  16.196   5.123   8.265 -0.1729  0.0767 -0.1328
  303loPI   C6A 4844  16.479   5.383   8.038  0.2754  0.4697  0.2421
  303loPI   C1B 4845  16.357   4.059   9.388 -0.1421 -0.1646 -0.1100
  303loPI   C2B 4846  16.187   3.962   8.951  0.4683 -0.0327  0.2106
  303loPI   C3B 4847  16.069   3.821   8.547 -0.1676  0.0562 -0.1972
  303loPI   C4B 4848  16.305   3.749   8.147 -0.1477 -0.0499 -0.1520
  304loPI    C1 4849  12.356   5.094  10.408  0.0864  0.0471  0.0626
  304loPI    C2 4850  12.086   5.086  10.703 -0.0528 -0.2723 -0.0692
  304loPI    C3 4851  12.471   5.154  10.787 -0.1710  0.2058  0.1177
  304loPI   PO4 4852  12.255   5.166  10.214  0.1984 -0.1313  0.0682
  304loPI   GL1 4853  12.206   5.494   9.979  0.5112 -0.2959 -0.0140
  304loPI   GL2 4854  12.445   5.644   9.942 -0.1174  0.3762  0.0129
  304loPI   C1A 4855  12.191   5.457   9.533 -0.1202  0.0518 -0.0585
  304loPI   C2A 4856  12.341   5.413   9.119 -0.1666 -0.3865  0.1282
  304loPI   C3A 4857  12.460   5.286   8.784 -0.0417  0.1020 -0.0754
  304loPI   C4A 4858  12.615   5.258   8.408  0.1333 -0.1504 -0.1077
  304loPI   C5A 4859  12.997   5.513   8.252  0.0046  0.0836 -0.1206
  304loPI   C6A 4860  13.323   5.855   8.261 -0.2015  0.0337 -0.1509
  304loPI   C1B 4861  12.653   5.643   9.603 -0.0361  0.3226  0.0623
  304loPI   C2B 4862  12.862   5.646   9.256  0.0722 -0.1346 -0.0172
  304loPI   C3B 4863  13.203   5.473   9.235  0.0220 -0.0834  0.2945
  304loPI   C4B 4864  13.378   5.234   8.971 -0.0154 -0.0439  0.2396
  305loPI    C1 4865   0.506  12.398  10.548  0.1041  0.0814  0.1137
  305loPI    C2 4866   0.676  12.756  10.598  0.3010  0.0408 -0.2294
  305loPI    C3 4867   0.867  12.425  10.717  0.1906  0.0356 -0.0616
  305loPI   PO4 4868   0.406  12.518  10.275  0.2278  0.2043  0.0841
  305loPI   GL1 4869   0.191  12.701   9.992  0.3666 -0.2952  0.1139
  305loPI   GL2 4870  -0.148  12.576   9.767  0.2302  0.3826 -0.1232
  305loPI   C1A 4871   0.333  12.746   9.530  0.5432 -0.5088  0.1992
  305loPI   C2A 4872   0.503  12.646   9.145  0.1874 -0.1254 -0.0843
  305loPI   C3A 4873   0.531  12.676   8.714  0.4066  0.1554  0.3478
  305loPI   C4A 4874   0.584  12.679   8.305 -0.0754 -0.1171  0.0883
  305loPI   C5A 4875   0.706  12.885   8.020  0.0134  0.1566 -0.0583
  305loPI   C6A 4876   0.900  12.879   7.698 -0.0809  0.2504 -0.0745
  305loPI   C1B 4877  -0.234  12.663   9.319  0.0364 -0.0984  0.0395
  305loPI   C2B 4878   0.001  12.726   8.888  0.0525  0.0726  0.2808
  305loPI   C3B 4879   0.086  12.654   8.419  0.2237 -0.1816  0.0481
  305loPI   C4B 4880  -0.215  12.585   8.076  0.2644  0.0420 -0.2401
  306loPI    C1 4881   3.181   7.409  11.204 -0.1314 -0.1899  0.1253
  306loPI    C2 4882   3.417   7.726  11.148 -0.0789 -0.2330  0.1016
  306loPI    C3 4883   3.162   7.719  11.456 -0.1564 -0.1224  0.0409
  306loPI   PO4 4884   3.056   7.319  10.911  0.1639 -0.2560  0.0494
  306loPI   GL1 4885   2.833   7.242  10.518  0.1482  0.0603 -0.3114
  306loPI   GL2 4886   2.561   7.011  10.447 -0.2201  0.0655 -0.2577
  306loPI   C1A 4887   2.856   7.418  10.047 -0.1906  0.0917  0.0347
  306loPI   C2A 4888   2.900   7.426   9.656 -0.0495 -0.0834  0.0517
  306loPI   C3A 4889   2.867   7.382   9.215 -0.0320 -0.1025 -0.0903
  306loPI   C4A 4890   3.046   7.517   8.926  0.0247 -0.1660 -0.1101
  306loPI   C5A 4891   3.243   7.690   8.569 -0.3350  0.0353 -0.0248
  306loPI   C6A 4892   3.319   7.519   8.106 -0.0188  0.0053  0.1004
  306loPI   C1B 4893   2.446   7.088   9.986  0.1921  0.0445  0.0484
  306loPI   C2B 4894   2.558   7.112   9.547 -0.1544  0.1240 -0.1325
  306loPI   C3B 4895   2.440   7.133   9.066 -0.2057 -0.1596  0.0628
  306loPI   C4B 4896   2.578   7.390   8.797  0.1994 -0.2170  0.3887
  307loPI    C1 4897  12.600  14.861  10.456 -0.0721 -0.0189  0.1384
  307loPI    C2 4898  12.468  15.218  10.333  0.1128  0.1023  0.2872
  307loPI    C3 4899  12.431  15.112  10.717 -0.1972 -0.1557  0.1905
  307loPI   PO4 4900  12.627  14.740  10.205  0.0784  0.0301  0.1404
  307loPI   GL1 4901  13.038  14.579   9.951  0.0565  0.0139  0.0271
  307loPI   GL2 4902  12.891  14.233  10.034 -0.0001 -0.1732 -0.2601
  307loPI   C1A 4903  13.127  14.621   9.481  0.1848 -0.0211  0.1865
  307loPI   C2A 4904  13.187  14.614   9.036 -0.0284 -0.1329  0.2497
  307loPI   C3A 4905  13.448  14.665   8.618  0.0992  0.1296  0.1266
  307loPI   C4A 4906  13.557  14.829   8.201  0.0477 -0.3097 -0.0579
  307loPI   C5A 4907  13.944  15.087   8.076  0.1753 -0.0034 -0.1246
  307loPI   C6A 4908  14.077  15.108   7.720 -0.0193 -0.0152  0.3041
  307loPI   C1B 4909  13.108  14.113   9.680 -0.0089  0.0750  0.1178
  307loPI   C2B 4910  13.151  14.172   9.239  0.1052  0.0126  0.0123
  307loPI   C3B 4911  13.191  14.067   8.783 -0.2770 -0.0922 -0.0358
  307loPI   C4B 4912  13.190  13.978   8.337  0.1094 -0.2612 -0.0186
  308loPI    C1 4913   5.926  15.290  10.617  0.1321  0.0751 -0.0530
  308loPI    C2 4914   5.627  15.037  10.537  0.1039  0.0393  0.1602
  308loPI    C3 4915   5.575  15.329  10.805  0.1476  0.2516 -0.0593
  308loPI   PO4 4916   6.023  15.421  10.343  0.3616 -0.0160 -0.5147
  308loPI   GL1 4917   6.290  15.262  10.049  0.0919 -0.0427 -0.0643
  308loPI   GL2 4918   6.576  15.181   9.996  0.2513 -0.1140 -0.2810
  308loPI   C1A 4919   6.193  15.281   9.629 -0.0032 -0.2019 -0.0964
  308loPI   C2A 4920   6.234  15.306   9.248  0.3311 -0.2773  0.1054
  308loPI   C3A 4921   6.349  15.301   8.822 -0.2924  0.1822  0.0034
  308loPI   C4A 4922   6.649  15.502   8.560  0.0393 -0.0690 -0.0270
  308loPI   C5A 4923   7.068  15.358   8.457  0.0378 -0.3079  0.4796
  308loPI   C6A 4924   7.480  15.188   8.367 -0.1941  0.2818  0.2248
  308loPI   C1B 4925   6.698  15.349   9.566 -0.0379 -0.2931  0.1191
  308loPI   C2B 4926   6.759  15.308   9.188  0.0284 -0.2045 -0.0832
  308loPI   C3B 4927   6.829  15.030   8.838  0.0148  0.0846  0.3125
  308loPI   C4B 4928   6.666  14.931   8.433  0.1101 -0.1919  0.3768
  309loPI    C1 4929  17.355   6.036  10.468  0.1870 -0.2302 -0.0061
  309loPI    C2 4930  17.214   5.705  10.644 -0.0507 -0.0675  0.1141
  309loPI    C3 4931  17.283   6.034  10.862  0.3430 -0.0864  0.0245
  309loPI   PO4 4932  17.538   5.977  10.301  0.1473  0.0573  0.3160
  309loPI   GL1 4933  18.018   6.033  10.221  0.2161 -0.4161 -0.0987
  309loPI   GL2 4934  18.294   5.785   9.966  0.1941 -0.1783  0.0799
  309loPI   C1A 4935  17.953   6.334   9.853  0.0177  0.2229  0.3005
  309loPI   C2A 4936  18.034   6.365   9.425  0.0960  0.0325 -0.2381
  309loPI   C3A 4937  17.963   6.308   9.001 -0.1510  0.0078 -0.1277
  309loPI   C4A 4938  18.117   6.410   8.538  0.3361  0.1961  0.1564
  309loPI   C5A 4939  18.131   6.412   8.032  0.0783  0.3062 -0.2264
  309loPI   C6A 4940  18.352   6.377   7.644 -0.1812 -0.0186 -0.1487
  309loPI   C1B 4941  18.035   5.870   9.661 -0.0760  0.4421  0.0951
  309loPI   C2B 4942  18.067   5.914   9.203 -0.1908 -0.2731  0.1447
  309loPI   C3B 4943  18.131   5.821   8.728  0.0039  0.1731  0.1484
  309loPI   C4B 4944  18.436   6.007   8.386 -0.2152 -0.0357  0.0986
  310loPI    C1 4945   0.184  12.050  10.211 -0.0298 -0.0334 -0.1438
  310loPI    C2 4946  -0.215  12.070  10.193 -0.0267  0.1801 -0.0085
  310loPI    C3 4947  -0.019  12.243  10.496  0.1548 -0.1262  0.0543
  310loPI   PO4 4948   0.209  12.156   9.922  0.0345  0.3272  0.0951
  310loPI   GL1 4949   0.108  11.981   9.542  0.0135 -0.2726 -0.0690
  310loPI   GL2 4950  -0.228  12.109   9.661  0.2249  0.0411  0.4741
  310loPI   C1A 4951   0.139  11.844   9.104  0.1811  0.1832 -0.1236
  310loPI   C2A 4952   0.178  11.719   8.664 -0.3770  0.0209 -0.4628
  310loPI   C3A 4953   0.148  11.828   8.223  0.2055  0.0549  0.0378
  310loPI   C4A 4954   0.046  12.228   8.069 -0.1340  0.2758  0.0779
  310loPI   C5A 4955  -0.015  12.365   7.652  0.0246  0.1787  0.1053
  310loPI   C6A 4956   0.218  12.592   7.229 -0.0107 -0.0439  0.0493
  310loPI   C1B 4957  -0.319  11.963   9.288 -0.2724 -0.1300 -0.0503
  310loPI   C2B 4958  -0.295  11.824   8.872  0.1106 -0.2212  0.0957
  310loPI   C3B 4959  -0.439  11.467   8.603  0.1455  0.2771 -0.1115
  310loPI   C4B 4960  -0.731  11.114   8.370  0.0959  0.1667  0.1772
  311loPI    C1 4961   4.331  10.580  10.464 -0.0219  0.0288  0.0203
  311loPI    C2 4962   4.047  10.763  10.678  0.0511 -0.0094  0.1506
  311loPI    C3 4963   4.432  10.809  10.775  0.0958  0.1043 -0.0728
  311loPI   PO4 4964   4.275  10.638  10.240 -0.1622  0.0391  0.1702
  311loPI   GL1 4965   4.448  10.574   9.927  0.2911 -0.3625 -0.2213
  311loPI   GL2 4966   4.192  10.412   9.743  0.1451 -0.1917 -0.3130
  311loPI   C1A 4967   4.596  10.541   9.469  0.4300  0.1882 -0.0638
  311loPI   C2A 4968   4.709  10.470   9.031 -0.2106  0.0518  0.0213
  311loPI   C3A 4969   4.458  10.609   8.806 -0.1745 -0.0207 -0.1095
  311loPI   C4A 4970   4.198  10.556   8.477 -0.0420 -0.2750 -0.0929
  311loPI   C5A 4971   4.310  10.762   8.035  0.1458 -0.1139 -0.0210
  311loPI   C6A 4972   4.186  11.175   7.944 -0.0969  0.2234 -0.0652
  311loPI   C1B 4973   4.054  10.656   9.453  0.0534  0.1508 -0.0667
  311loPI   C2B 4974   4.084  10.947   9.045 -0.3785  0.3436  0.0885
  311loPI   C3B 4975   4.119  11.029   8.584 -0.0919  0.0077  0.1277
  311loPI   C4B 4976   3.801  11.000   8.268 -0.0108 -0.0695 -0.1945
  312loPI    C1 4977   5.072   4.033  10.412 -0.2323 -0.2150 -0.1245
  312loPI    C2 4978   4.971   4.019  10.799 -0.1394  0.4381 -0.0650
  312loPI    C3 4979   5.356   3.997  10.692 -0.1845 -0.0587 -0.1521
  312loPI   PO4 4980   4.921   3.849  10.300  0.2869  0.0330 -0.3432
  312loPI   GL1 4981   4.947   3.725   9.934 -0.0142 -0.0253 -0.0838
  312loPI   GL2 4982   4.610   3.690   9.931  0.0573 -0.1479  0.0683
  312loPI   C1A 4983   5.001   4.049   9.527  0.2941 -0.0558  0.1239
  312loPI   C2A 4984   4.969   4.022   9.090 -0.0046  0.0997  0.0723
  312loPI   C3A 4985   4.897   3.770   8.665 -0.1077 -0.1552 -0.1905
  312loPI   C4A 4986   4.613   3.781   8.301  0.0987  0.2797  0.1093
  312loPI   C5A 4987   4.416   3.803   7.934  0.1152 -0.1522 -0.1403
  312loPI   C6A 4988   4.071   4.018   7.957  0.1056 -0.1845 -0.0719
  312loPI   C1B 4989   4.636   3.659   9.521  0.1244 -0.1299  0.0557
  312loPI   C2B 4990   4.637   3.677   9.102 -0.0141 -0.2165 -0.0156
  312loPI   C3B 4991   4.535   3.484   8.761  0.1091 -0.3635  0.1245
  312loPI   C4B 4992   4.329   3.280   8.328 -0.0452 -0.0488  0.3125
  313loPI    C1 4993  12.974   6.306  10.542 -0.0738  0.0837 -0.0362
  313loPI    C2 4994  12.950   5.907  10.546  0.1905  0.0648 -0.1323
  313loPI    C3 4995  12.785   6.120  10.841  0.0487 -0.1150 -0.0801
  313loPI   PO4 4996  12.939   6.332  10.281 -0.0255  0.2404  0.3259
  313loPI   GL1 4997  13.094   6.359  10.013 -0.0544 -0.0864  0.2777
  313loPI   GL2 4998  13.442   6.391   9.909  0.2856  0.1450 -0.1804
  313loPI   C1A 4999  13.093   6.505   9.554  0.0522 -0.1320 -0.2067
  313loPI   C2A 5000  13.129   6.444   9.097  0.0312  0.4449 -0.0565
  313loPI   C3A 5001  13.402   6.289   8.764  0.1163  0.0653 -0.1626
  313loPI   C4A 5002  13.661   6.022   8.530  0.1909 -0.0026 -0.0159
  313loPI   C5A 5003  13.789   5.628   8.471  0.4295  0.1440 -0.1970
  313loPI   C6A 5004  14.069   5.644   8.159  0.0263  0.2311  0.1707
  313loPI   C1B 5005  13.550   6.422   9.479 -0.0843  0.2833  0.2018
  313loPI   C2B 5006  13.560   6.636   9.130 -0.2847 -0.0409 -0.3703
  313loPI   C3B 5007  13.378   6.773   8.776  0.2093 -0.1252 -0.1088
  313loPI   C4B 5008  13.361   6.778   8.376 -0.2572 -0.0435  0.3116
  314loPI    C1 5009  15.839   8.014  10.527  0.2280 -0.2138  0.0177
  314loPI    C2 5010  15.851   8.366  10.716 -0.1491 -0.1481 -0.0726
  314loPI    C3 5011  15.865   8.025  10.926  0.4018 -0.0875  0.0040
  314loPI   PO4 5012  16.037   8.067  10.330  0.4043 -0.2620  0.1060
  314loPI   GL1 5013  16.268   7.839  10.098  0.1076  0.1392 -0.1967
  314loPI   GL2 5014  16.187   8.008   9.820 -0.1541 -0.2224  0.1866
  314loPI   C1A 5015  16.218   7.547   9.671 -0.3109 -0.0922 -0.0368
  314loPI   C2A 5016  16.145   7.621   9.233  0.1442 -0.1529  0.1579
  314loPI   C3A 5017  16.113   7.811   8.889  0.0256  0.1678  0.2035
  314loPI   C4A 5018  16.113   7.999   8.447 -0.0652  0.1410 -0.0916
  314loPI   C5A 5019  16.262   8.341   8.129  0.0373  0.2623  0.3296
  314loPI   C6A 5020  16.152   8.547   7.891  0.2198 -0.0798 -0.1028
  314loPI   C1B 5021  16.429   8.206   9.563 -0.0798  0.2777  0.2533
  314loPI   C2B 5022  16.371   8.204   9.124 -0.2638  0.0694  0.0588
  314loPI   C3B 5023  16.610   8.231   8.737  0.1128 -0.1446  0.3128
  314loPI   C4B 5024  16.564   7.997   8.323 -0.1655 -0.2397 -0.1318
  315loPI    C1 5025  12.100  12.240  10.461  0.2996  0.3299 -0.0540
  315loPI    C2 5026  12.461  12.224  10.290  0.2781 -0.2880 -0.0629
  315loPI    C3 5027  12.393  12.028  10.632 -0.0201 -0.0801  0.0004
  315loPI   PO4 5028  11.907  12.181  10.313  0.1910 -0.0486 -0.3288
  315loPI   GL1 5029  11.587  12.391  10.090  0.2565  0.3227 -0.0889
  315loPI   GL2 5030  11.556  12.086   9.950 -0.1079 -0.2224 -0.0770
  315loPI   C1A 5031  11.753  12.558   9.700  0.2776 -0.0867 -0.2091
  315loPI   C2A 5032  11.789  12.535   9.256  0.0698  0.0425  0.0421
  315loPI   C3A 5033  11.715  12.433   8.909  0.1869  0.0275 -0.0011
  315loPI   C4A 5034  11.679  12.435   8.463  0.2057 -0.3521  0.2896
  315loPI   C5A 5035  11.669  12.499   8.043  0.1352  0.2062  0.0669
  315loPI   C6A 5036  11.620  12.804   7.786  0.0807 -0.2476  0.1614
  315loPI   C1B 5037  11.469  12.164   9.468  0.0138  0.0726 -0.0541
  315loPI   C2B 5038  11.333  12.047   9.087 -0.3510  0.0335  0.0794
  315loPI   C3B 5039  11.486  12.076   8.705  0.0737  0.0325 -0.2559
  315loPI   C4B 5040  11.681  11.791   8.343 -0.2887  0.0023  0.1645
  316loPI    C1 5041   7.594  15.530  10.727 -0.0802 -0.0220 -0.0818
  316loPI    C2 5042   7.311  15.813  10.739 -0.0604 -0.0096  0.1490
  316loPI    C3 5043   7.660  15.871  10.926  0.0085 -0.1180  0.0556
  316loPI   PO4 5044   7.518  15.395  10.507  0.1463  0.3636  0.1277
  316loPI   GL1 5045   7.123  15.223  10.208  0.0560  0.0141 -0.0823
  316loPI   GL2 5046   6.985  15.317  10.449  0.1078 -0.0423  0.0605
  316loPI   C1A 5047   7.118  15.206   9.819 -0.0991 -0.0254 -0.1126
  316loPI   C2A 5048   7.151  15.058   9.362  0.2459 -0.1045 -0.2202
  316loPI   C3A 5049   7.291  14.917   8.949 -0.1755 -0.0719  0.1180
  316loPI   C4A 5050   7.097  14.784   8.533 -0.0999 -0.2355 -0.2894
  316loPI   C5A 5051   7.088  14.533   8.261  0.1239 -0.2160 -0.0931
  316loPI   C6A 5052   7.042  14.435   7.915 -0.2071  0.0199 -0.2692
  316loPI   C1B 5053   6.775  15.644  10.215  0.1702  0.1451  0.1218
  316loPI   C2B 5054   6.572  15.766   9.732 -0.1850  0.0231  0.0735
  316loPI   C3B 5055   6.517  15.841   9.296  0.5448  0.3185 -0.0834
  316loPI   C4B 5056   6.794  15.862   8.989  0.1276 -0.0129  0.3839
  317loPI    C1 5057  13.598   2.936  10.413 -0.2372 -0.1896 -0.0614
  317loPI    C2 5058  13.939   2.736  10.473 -0.0388  0.1474 -0.0417
  317loPI    C3 5059  13.734   2.879  10.785 -0.1444  0.0366 -0.0595
  317loPI   PO4 5060  13.642   3.036  10.215  0.2152  0.2772 -0.4446
  317loPI   GL1 5061  13.312   2.859   9.937  0.0553  0.3755  0.3998
  317loPI   GL2 5062  13.252   2.594   9.735 -0.1786  0.1602  0.1228
  317loPI   C1A 5063  13.108   3.029   9.619  0.2791 -0.1769  0.1389
  317loPI   C2A 5064  13.257   3.054   9.236  0.1183  0.1632  0.1255
  317loPI   C3A 5065  13.204   3.063   8.762  0.0697 -0.0144 -0.0754
  317loPI   C4A 5066  13.377   3.262   8.495  0.1477 -0.1411  0.2227
  317loPI   C5A 5067  13.332   3.683   8.235 -0.3393 -0.0129  0.1297
  317loPI   C6A 5068  13.458   4.092   8.044 -0.2347 -0.1808 -0.3107
  317loPI   C1B 5069  13.373   2.580   9.287 -0.0702  0.0844  0.1051
  317loPI   C2B 5070  13.283   2.590   8.820 -0.0657  0.1262  0.0561
  317loPI   C3B 5071  13.535   2.374   8.446 -0.0466 -0.2956  0.0743
  317loPI   C4B 5072  13.697   2.305   8.083  0.1170  0.0833  0.2283
  318loPI    C1 5073   2.488  12.538  10.166 -0.0779 -0.3976  0.1081
  318loPI    C2 5074   2.745  12.602   9.865 -0.1472 -0.0093  0.1254
  318loPI    C3 5075   2.878  12.465  10.217 -0.0151 -0.1281  0.0303
  318loPI   PO4 5076   2.241  12.341   9.974 -0.2182  0.0518  0.0982
  318loPI   GL1 5077   2.062  12.421   9.560  0.0070  0.0748  0.1951
  318loPI   GL2 5078   2.327  12.719   9.639 -0.2068  0.0084 -0.0892
  318loPI   C1A 5079   2.118  12.502   9.116  0.0385  0.5241  0.0981
  318loPI   C2A 5080   2.162  12.382   8.655 -0.0698  0.0136  0.1771
  318loPI   C3A 5081   2.351  12.257   8.288  0.0550  0.1010 -0.3201
  318loPI   C4A 5082   2.721  11.910   8.173  0.4962 -0.2137  0.2598
  318loPI   C5A 5083   3.010  11.558   8.012  0.0832 -0.0609  0.1123
  318loPI   C6A 5084   2.965  11.111   8.079  0.0647 -0.1404 -0.1581
  318loPI   C1B 5085   2.576  12.699   9.251  0.1087  0.0761 -0.0659
  318loPI   C2B 5086   2.466  12.677   8.826 -0.2087 -0.2146 -0.3111
  318loPI   C3B 5087   2.615  12.708   8.404  0.2192 -0.2147  0.0474
  318loPI   C4B 5088   2.766  12.432   8.148 -0.1717 -0.2096  0.2520
  319loPI    C1 5089  11.816  11.343  10.554  0.0128 -0.0515 -0.0214
  319loPI    C2 5090  11.960  11.146  10.237  0.0973  0.1443 -0.1068
  319loPI    C3 5091  12.170  11.159  10.577  0.0792  0.0658 -0.0925
  319loPI   PO4 5092  11.539  11.285  10.506  0.0288  0.1800 -0.0413
  319loPI   GL1 5093  11.414  11.207  10.057 -0.1254  0.2908  0.0471
  319loPI   GL2 5094  11.308  10.935   9.931  0.0516  0.0807 -0.1825
  319loPI   C1A 5095  11.606  11.514   9.837  0.0452 -0.0474  0.1227
  319loPI   C2A 5096  11.542  11.591   9.423 -0.2575 -0.0833  0.0009
  319loPI   C3A 5097  11.411  11.566   9.007 -0.1338  0.1068 -0.0912
  319loPI   C4A 5098  11.760  11.498   8.748  0.2022  0.1199 -0.0149
  319loPI   C5A 5099  11.992  11.382   8.369  0.0651 -0.1019  0.2351
  319loPI   C6A 5100  11.894  11.262   7.922  0.0343  0.1231 -0.1091
  319loPI   C1B 5101  10.966  10.873   9.648 -0.1030 -0.2339  0.2377
  319loPI   C2B 5102  10.891  10.737   9.169 -0.1277 -0.2442 -0.0329
  319loPI   C3B 5103  11.001  10.756   8.715 -0.3677  0.1274 -0.3086
  319loPI   C4B 5104  10.827  10.742   8.305  0.0412 -0.0227  0.0844
  320loPI    C1 5105  18.062   9.920  11.011  0.0832 -0.1152  0.0391
  320loPI    C2 5106  17.870   9.798  11.340  0.0303  0.0765  0.0805
  320loPI    C3 5107  18.154  10.079  11.366 -0.0779  0.2007 -0.0565
  320loPI   PO4 5108  18.054   9.654  10.881 -0.0656  0.0476  0.0331
  320loPI   GL1 5109  18.043   9.480  10.481  0.0257 -0.0250  0.0097
  320loPI   GL2 5110  18.178   9.609  10.210 -0.0530  0.2318 -0.1064
  320loPI   C1A 5111  17.651   9.619  10.156  0.3238  0.0083 -0.0626
  320loPI   C2A 5112  17.520   9.548   9.778 -0.2144  0.1427  0.1444
  320loPI   C3A 5113  17.421   9.534   9.408 -0.0004 -0.1800 -0.0494
  320loPI   C4A 5114  17.298   9.550   9.099  0.5596  0.1706  0.1134
  320loPI   C5A 5115  17.408   9.733   8.738  0.0041 -0.3492  0.1387
  320loPI   C6A 5116  17.306   9.781   8.370  0.1136  0.0288  0.0345
  320loPI   C1B 5117  18.049   9.306   9.897  0.2034  0.0982  0.1189
  320loPI   C2B 5118  17.896   9.369   9.506  0.2179  0.0803  0.0867
  320loPI   C3B 5119  17.757   9.338   9.025 -0.0995 -0.2093 -0.0057
  320loPI   C4B 5120  17.797   9.238   8.632 -0.1376  0.1071 -0.0515
  321loPI    C1 5121  16.358   9.057  10.793 -0.0452  0.3021 -0.0438
  321loPI    C2 5122  16.070   8.788  10.864  0.0956  0.2299  0.2736
  321loPI    C3 5123  15.988   9.179  10.883 -0.0447  0.2112  0.0848
  321loPI   PO4 5124  16.422   8.909  10.496 -0.0835  0.1041  0.1668
  321loPI   GL1 5125  16.236   9.100  10.211 -0.0954 -0.1838  0.1943
  321loPI   GL2 5126  15.944   9.169  10.401 -0.0484 -0.0136 -0.0044
  321loPI   C1A 5127  16.084   9.413   9.890  0.1144 -0.1391  0.1530
  321loPI   C2A 5128  15.853   9.769   9.665  0.1472  0.0697  0.0403
  321loPI   C3A 5129  15.770   9.920   9.295  0.2591  0.1280 -0.5799
  321loPI   C4A 5130  15.702  10.143   9.032 -0.2245  0.0614  0.1010
  321loPI   C5A 5131  15.479  10.280   8.638  0.2914  0.1597 -0.2093
  321loPI   C6A 5132  15.259  10.364   8.335 -0.2571 -0.1948 -0.2393
  321loPI   C1B 5133  15.910   8.940   9.911 -0.1847  0.0567 -0.0011
  321loPI   C2B 5134  15.973   9.037   9.532 -0.1068 -0.0492  0.0564
  321loPI   C3B 5135  15.981   9.205   9.020  0.2875  0.0179  0.0324
  321loPI   C4B 5136  15.891   9.365   8.589  0.1948  0.2528 -0.4162
  322loPI    C1 5137   1.291  12.246  10.474  0.0915  0.0931  0.0849
  322loPI    C2 5138   1.500  11.937  10.619 -0.0216  0.0967  0.2580
  322loPI    C3 5139   1.118  11.988  10.727 -0.1216  0.0749 -0.0771
  322loPI   PO4 5140   1.313  12.201  10.187 -0.2070 -0.0441  0.1115
  322loPI   GL1 5141   1.059  12.069   9.774 -0.0449 -0.2784 -0.1951
  322loPI   GL2 5142   1.003  12.340   9.722  0.1399 -0.1897  0.3209
  322loPI   C1A 5143   1.082  12.138   9.293 -0.1149 -0.2277  0.2486
  322loPI   C2A 5144   1.048  12.072   8.916  0.0264  0.0371  0.0774
  322loPI   C3A 5145   1.338  11.922   8.686  0.0175  0.0227  0.1044
  322loPI   C4A 5146   1.354  11.768   8.322 -0.0671  0.3008  0.3249
  322loPI   C5A 5147   1.076  11.827   7.974 -0.1601  0.4248  0.0385
  322loPI   C6A 5148   0.765  11.636   7.867  0.3379  0.0581  0.1938
  322loPI   C1B 5149   0.596  12.209   9.458 -0.2366  0.1438 -0.0151
  322loPI   C2B 5150   0.528  12.186   9.006 -0.0525 -0.1816  0.1955
  322loPI   C3B 5151   0.392  12.170   8.639 -0.0986  0.3379 -0.0733
  322loPI   C4B 5152  -0.028  12.151   8.601  0.0641  0.0409 -0.1390
  323loPI    C1 5153  16.446   1.179  10.456 -0.3683 -0.3516  0.2956
  323loPI    C2 5154  16.669   1.389  10.713 -0.0283 -0.2619 -0.0636
  323loPI    C3 5155  16.337   1.550  10.558 -0.0810 -0.2103  0.1010
  323loPI   PO4 5156  16.589   1.138  10.231 -0.1013  0.0178  0.1706
  323loPI   GL1 5157  16.478   0.991   9.907 -0.0778 -0.0981  0.2506
  323loPI   GL2 5158  16.169   0.983   9.928 -0.0612 -0.2514  0.1273
  323loPI   C1A 5159  16.430   1.359   9.535 -0.1581  0.1138  0.1544
  323loPI   C2A 5160  16.650   1.543   9.215  0.0850  0.0438 -0.0386
  323loPI   C3A 5161  16.858   1.663   8.891 -0.1331  0.0571 -0.1114
  323loPI   C4A 5162  16.892   1.944   8.610 -0.2098  0.4586  0.2548
  323loPI   C5A 5163  16.888   2.108   8.208 -0.1045  0.1271  0.1265
  323loPI   C6A 5164  16.938   2.323   7.874  0.0573  0.4022  0.1506
  323loPI   C1B 5165  16.014   1.063   9.510 -0.0565 -0.0751 -0.2288
  323loPI   C2B 5166  15.798   1.074   9.134  0.0191 -0.6869 -0.1679
  323loPI   C3B 5167  15.957   1.137   8.708  0.0512  0.0741 -0.2713
  323loPI   C4B 5168  15.971   1.107   8.309  0.0994  0.1557 -0.1007
  324loPI    C1 5169  14.607   5.798  10.935 -0.1203 -0.0701 -0.0653
  324loPI    C2 5170  14.641   5.409  11.019  0.0337 -0.0408  0.0123
  324loPI    C3 5171  14.557   5.669  11.310 -0.1117 -0.0206 -0.0472
  324loPI   PO4 5172  14.586   5.719  10.655 -0.3586 -0.0861  0.0315
  324loPI   GL1 5173  14.430   5.725  10.182  0.2431  0.3612  0.1674
  324loPI   GL2 5174  14.616   5.541  10.143 -0.2819 -0.0576  0.0075
  324loPI   C1A 5175  14.687   5.935   9.879 -0.2405  0.3598 -0.0547
  324loPI   C2A 5176  14.893   6.252   9.654 -0.2259  0.2614 -0.0116
  324loPI   C3A 5177  15.117   6.331   9.397  0.2531 -0.0413 -0.1226
  324loPI   C4A 5178  15.092   6.384   8.947  0.0888 -0.1998 -0.0082
  324loPI   C5A 5179  15.042   6.400   8.468 -0.0669  0.0249 -0.0015
  324loPI   C6A 5180  14.943   6.396   8.053 -0.0834  0.3537 -0.0925
  324loPI   C1B 5181  14.421   5.563   9.739 -0.2063 -0.3025 -0.1349
  324loPI   C2B 5182  14.524   5.726   9.305  0.1949  0.1849  0.0151
  324loPI   C3B 5183  14.516   5.652   8.862 -0.3093 -0.1565 -0.0346
  324loPI   C4B 5184  14.557   5.641   8.364 -0.0663  0.0628  0.0158
  325loPI    C1 5185  14.629   3.592  10.779 -0.1606 -0.1040  0.0950
  325loPI    C2 5186  14.918   3.405  10.983 -0.2838 -0.2306  0.1543
  325loPI    C3 5187  14.830   3.786  11.066  0.0954 -0.0838 -0.0946
  325loPI   PO4 5188  14.610   3.365  10.495  0.2747 -0.3967 -0.0790
  325loPI   GL1 5189  14.404   3.393  10.108  0.1470 -0.1255 -0.0014
  325loPI   GL2 5190  14.451   3.610   9.952 -0.1145  0.0946  0.0781
  325loPI   C1A 5191  14.586   3.130   9.744 -0.0116  0.0918 -0.0223
  325loPI   C2A 5192  14.727   3.038   9.381 -0.0625 -0.1855  0.3779
  325loPI   C3A 5193  14.632   3.156   9.025 -0.1508 -0.1150  0.0769
  325loPI   C4A 5194  14.696   3.283   8.591 -0.1192 -0.2377  0.4468
  325loPI   C5A 5195  14.739   3.532   8.315  0.0907  0.1887  0.2606
  325loPI   C6A 5196  14.926   3.867   7.969 -0.0587  0.0419 -0.1545
  325loPI   C1B 5197  14.562   3.629   9.452  0.2552 -0.0028  0.1282
  325loPI   C2B 5198  14.568   3.651   8.989 -0.3519 -0.1712  0.0532
  325loPI   C3B 5199  14.835   3.740   8.751  0.0098  0.1865 -0.1447
  325loPI   C4B 5200  14.927   4.057   8.414  0.1832  0.0696 -0.2050
  326loPI    C1 5201  13.557   6.481  10.529  0.3090  0.0142 -0.1592
  326loPI    C2 5202  13.856   6.736  10.605  0.3310 -0.0309 -0.0928
  326loPI    C3 5203  13.937   6.365  10.478  0.3099 -0.0993  0.0909
  326loPI   PO4 5204  13.440   6.576  10.342 -0.1699 -0.1603 -0.2370
  326loPI   GL1 5205  13.462   6.977  10.164  0.2947 -0.1980  0.0303
  326loPI   GL2 5206  13.769   7.083  10.008 -0.0535  0.0282  0.1489
  326loPI   C1A 5207  13.442   6.842   9.730 -0.0377 -0.1236 -0.1799
  326loPI   C2A 5208  13.767   6.946   9.458 -0.0380 -0.0721 -0.3855
  326loPI   C3A 5209  13.916   6.981   9.028 -0.3034  0.0985  0.2285
  326loPI   C4A 5210  13.876   6.780   8.635 -0.0623  0.0723 -0.1828
  326loPI   C5A 5211  13.831   6.910   8.225 -0.0431 -0.0731 -0.1145
  326loPI   C6A 5212  13.837   7.305   8.147 -0.1986  0.1863  0.0458
  326loPI   C1B 5213  13.742   7.372   9.648 -0.0198 -0.1313 -0.1927
  326loPI   C2B 5214  13.873   7.411   9.295 -0.1753 -0.1474  0.0253
  326loPI   C3B 5215  13.956   7.453   8.908  0.1086 -0.2478  0.0198
  326loPI   C4B 5216  14.163   7.189   8.562  0.0071 -0.1601 -0.0457
  327loPI    C1 5217  11.438   4.794  10.518 -0.0067  0.0265 -0.0187
  327loPI    C2 5218  11.706   4.792  10.815 -0.0386 -0.1942  0.0103
  327loPI    C3 5219  11.326   4.896  10.888  0.0079 -0.0116 -0.0037
  327loPI   PO4 5220  11.434   4.551  10.466  0.2570 -0.2843  0.0382
  327loPI   GL1 5221  11.377   4.252  10.064 -0.1187  0.0292  0.2776
  327loPI   GL2 5222  11.686   4.478   9.967  0.1891  0.0942  0.1892
  327loPI   C1A 5223  11.448   4.222   9.614  0.1077  0.3097 -0.2218
  327loPI   C2A 5224  11.427   4.276   9.165 -0.0211  0.2272  0.0859
  327loPI   C3A 5225  11.250   4.329   8.748  0.1703  0.1205 -0.0122
  327loPI   C4A 5226  11.353   4.418   8.390 -0.0854  0.2393 -0.1137
  327loPI   C5A 5227  11.601   4.651   8.081  0.1687  0.2702 -0.2226
  327loPI   C6A 5228  11.864   4.902   7.883  0.0527  0.0076  0.0502
  327loPI   C1B 5229  11.654   4.653   9.600 -0.1520 -0.1018 -0.0223
  327loPI   C2B 5230  11.554   4.794   9.174  0.1182 -0.2037  0.0052
  327loPI   C3B 5231  11.360   4.882   8.731  0.1327 -0.0564 -0.2426
  327loPI   C4B 5232  11.190   4.969   8.353 -0.1297  0.0405 -0.2547
  328loPI    C1 5233   1.806   1.628  10.467 -0.1639  0.0942  0.1104
  328loPI    C2 5234   1.544   1.673  10.766 -0.2490  0.0144  0.0481
  328loPI    C3 5235   1.517   1.357  10.522 -0.0350 -0.0465  0.1019
  328loPI   PO4 5236   1.863   1.838  10.304  0.1262  0.1432 -0.0706
  328loPI   GL1 5237   1.744   1.809   9.849 -0.0315 -0.2135 -0.0123
  328loPI   GL2 5238   1.559   1.839   9.670  0.1202 -0.0113  0.2390
  328loPI   C1A 5239   2.002   1.707   9.514  0.1618 -0.0106  0.0633
  328loPI   C2A 5240   2.148   1.681   9.054 -0.0853 -0.0884  0.1297
  328loPI   C3A 5241   2.107   1.711   8.603 -0.1437  0.0585 -0.2442
  328loPI   C4A 5242   2.223   1.586   8.204 -0.0325 -0.0534  0.1623
  328loPI   C5A 5243   2.177   1.589   7.799  0.1285 -0.2275 -0.0287
  328loPI   C6A 5244   2.063   1.470   7.343  0.0310 -0.0428  0.0482
  328loPI   C1B 5245   1.596   1.649   9.228 -0.0445  0.0350 -0.2802
  328loPI   C2B 5246   1.602   1.681   8.800 -0.1624  0.4300  0.1803
  328loPI   C3B 5247   1.598   1.829   8.361 -0.0127  0.1037 -0.1597
  328loPI   C4B 5248   1.436   1.721   7.908  0.1327 -0.1484 -0.1670
  329loPI    C1 5249  17.811  13.068  10.179 -0.0729 -0.0786 -0.0815
  329loPI    C2 5250  17.717  13.456  10.150 -0.1882 -0.1173 -0.2480
  329loPI    C3 5251  17.431  13.186  10.225 -0.1374 -0.1891 -0.3115
  329loPI   PO4 5252  17.986  13.075   9.938 -0.0990  0.0879 -0.3705
  329loPI   GL1 5253  17.896  13.159   9.496 -0.0805 -0.1130  0.0942
  329loPI   GL2 5254  18.011  13.473   9.656  0.4003  0.0698  0.1679
  329loPI   C1A 5255  17.763  13.222   8.995 -0.2408  0.0505  0.1119
  329loPI   C2A 5256  17.506  13.085   8.589  0.1080 -0.0704  0.2221
  329loPI   C3A 5257  17.428  13.254   8.218  0.2038  0.1386  0.3449
  329loPI   C4A 5258  17.117  13.581   8.046 -0.0648 -0.2948  0.1944
  329loPI   C5A 5259  17.106  13.987   7.921  0.1245 -0.2598 -0.1343
  329loPI   C6A 5260  16.979  14.338   8.039  0.1869  0.1894  0.2871
  329loPI   C1B 5261  17.943  13.661   9.210 -0.1100 -0.0416 -0.1307
  329loPI   C2B 5262  18.144  13.778   8.840  0.0987  0.1396 -0.0900
  329loPI   C3B 5263  18.158  13.746   8.414 -0.3404  0.2798  0.1138
  329loPI   C4B 5264  18.206  13.915   8.165  0.0911  0.0387 -0.2634
  330loPI    C1 5265  12.535  14.408  10.622 -0.0151 -0.1026  0.0464
  330loPI    C2 5266  12.357  14.254  10.945  0.1932 -0.2355  0.0999
  330loPI    C3 5267  12.379  14.651  10.899 -0.1721 -0.2167  0.0589
  330loPI   PO4 5268  12.458  14.248  10.447 -0.0627 -0.0870  0.2142
  330loPI   GL1 5269  12.392  14.363   9.981 -0.0065  0.0260 -0.0066
  330loPI   GL2 5270  12.163  14.083   9.834 -0.1049  0.1095  0.2519
  330loPI   C1A 5271  12.634  14.411   9.610  0.0353  0.1770  0.0439
  330loPI   C2A 5272  12.623  14.396   9.219 -0.0425  0.0152  0.1536
  330loPI   C3A 5273  12.738  14.295   8.815 -0.1355  0.3435  0.0350
  330loPI   C4A 5274  13.016  14.432   8.452 -0.2202 -0.3207 -0.0086
  330loPI   C5A 5275  13.059  14.646   8.073 -0.2173  0.3652  0.1501
  330loPI   C6A 5276  13.243  14.946   7.745  0.3067  0.1873  0.1360
  330loPI   C1B 5277  12.197  13.871   9.433  0.1225 -0.0513 -0.1049
  330loPI   C2B 5278  12.148  13.803   8.958  0.1579  0.0418 -0.1427
  330loPI   C3B 5279  12.241  13.836   8.469 -0.1213 -0.0046  0.2499
  330loPI   C4B 5280  12.396  13.940   8.030  0.0579  0.2260  0.0882
  331loPI    C1 5281   6.666   6.275  10.545 -0.1507 -0.0396 -0.0535
  331loPI    C2 5282   6.481   5.920  10.535  0.0726 -0.1626  0.0939
  331loPI    C3 5283   6.520   6.116  10.882 -0.3654  0.1797 -0.0396
  331loPI   PO4 5284   6.620   6.410  10.346 -0.2283  0.0571  0.0790
  331loPI   GL1 5285   6.646   6.577   9.930  0.1605 -0.0634 -0.0311
  331loPI   GL2 5286   6.909   6.824   9.922 -0.0556 -0.3007  0.0704
  331loPI   C1A 5287   6.472   6.731   9.588  0.1166  0.0298  0.0175
  331loPI   C2A 5288   6.383   6.745   9.112 -0.2865 -0.3416 -0.0878
  331loPI   C3A 5289   6.263   6.864   8.680  0.1263  0.0001  0.0066
  331loPI   C4A 5290   6.106   6.635   8.301  0.0603  0.0084 -0.1332
  331loPI   C5A 5291   5.770   6.727   8.081  0.0083  0.1291  0.2654
  331loPI   C6A 5292   5.342   6.611   8.341 -0.0065 -0.0438 -0.2765
  331loPI   C1B 5293   7.042   6.624   9.590  0.0498 -0.0702 -0.1596
  331loPI   C2B 5294   6.775   6.407   9.344 -0.0949  0.2782  0.0333
  331loPI   C3B 5295   6.657   6.175   8.883 -0.0755  0.2240 -0.0662
  331loPI   C4B 5296   6.635   5.829   8.491 -0.0567  0.2239  0.2635
  332loPI    C1 5297   5.059   8.605  10.214  0.0471  0.1680 -0.0301
  332loPI    C2 5298   5.155   8.748  10.575  0.3562  0.4069 -0.2016
  332loPI    C3 5299   5.342   8.425  10.431  0.0871  0.1869 -0.0663
  332loPI   PO4 5300   4.950   8.912  10.130 -0.0312 -0.0810 -0.3182
  332loPI   GL1 5301   4.804   9.026   9.699 -0.0201 -0.0665 -0.1236
  332loPI   GL2 5302   5.250   9.106   9.785  0.1258 -0.0120  0.1148
  332loPI   C1A 5303   4.504   9.218   9.402 -0.0171 -0.2005 -0.0227
  332loPI   C2A 5304   4.237   9.192   9.022  0.0446  0.0820 -0.0851
  332loPI   C3A 5305   3.990   9.490   8.737  0.3230 -0.1074 -0.1935
  332loPI   C4A 5306   3.737   9.704   8.415  0.0336  0.0970 -0.1419
  332loPI   C5A 5307   3.292   9.915   8.192  0.2318 -0.3198  0.1134
  332loPI   C6A 5308   2.885   9.715   8.185 -0.1010  0.1289  0.0705
  332loPI   C1B 5309   5.246   9.022   9.347 -0.2326  0.1329  0.1010
  332loPI   C2B 5310   5.176   9.240   8.967  0.1919 -0.1775 -0.1238
  332loPI   C3B 5311   5.290   9.290   8.542  0.0591 -0.1139 -0.0471
  332loPI   C4B 5312   5.190   9.047   8.145 -0.1496 -0.1860  0.0115
  333loPI    C1 5313   6.847  14.499  10.555  0.0009 -0.2717 -0.0998
  333loPI    C2 5314   6.753  14.271  10.871 -0.1702 -0.0192  0.0353
  333loPI    C3 5315   6.669  14.662  10.874  0.4462  0.1249 -0.0438
  333loPI   PO4 5316   6.645  14.314  10.335  0.2054 -0.0701  0.1272
  333loPI   GL1 5317   6.437  14.342   9.930  0.2201 -0.2349  0.0229
  333loPI   GL2 5318   6.405  14.617   9.968  0.1050 -0.2401 -0.2204
  333loPI   C1A 5319   6.468  14.323   9.470 -0.2977 -0.0045 -0.2306
  333loPI   C2A 5320   6.465  14.300   9.071 -0.0687 -0.1628 -0.0562
  333loPI   C3A 5321   6.315  14.051   8.718  0.0289 -0.2022  0.0691
  333loPI   C4A 5322   6.274  13.873   8.337  0.0235 -0.2430  0.1187
  333loPI   C5A 5323   6.504  13.861   7.971 -0.3766 -0.0639  0.1347
  333loPI   C6A 5324   6.587  14.292   7.781  0.2150 -0.2777 -0.3565
  333loPI   C1B 5325   6.377  14.841   9.536 -0.5468  0.2666 -0.0968
  333loPI   C2B 5326   6.319  14.763   9.046 -0.0391 -0.0453  0.1316
  333loPI   C3B 5327   6.276  14.619   8.641  0.0145 -0.1538  0.2810
  333loPI   C4B 5328   6.198  14.783   8.273  0.0350  0.1035  0.3493
  334loPI    C1 5329   0.667  14.210   9.755 -0.0698 -0.0657  0.0943
  334loPI    C2 5330   0.350  14.342   9.958 -0.1208  0.0085 -0.0323
  334loPI    C3 5331   0.630  14.600   9.836 -0.1469 -0.0198 -0.1526
  334loPI   PO4 5332   0.862  14.038   9.900 -0.0232 -0.0727 -0.0664
  334loPI   GL1 5333   1.276  13.979   9.861 -0.0189 -0.3974 -0.1214
  334loPI   GL2 5334   1.236  14.344   9.741 -0.0855 -0.1505  0.2822
  334loPI   C1A 5335   1.363  13.773   9.537  0.3002 -0.0035 -0.1633
  334loPI   C2A 5336   1.241  13.624   9.243  0.0863 -0.1861 -0.4320
  334loPI   C3A 5337   1.195  13.430   8.882 -0.2859 -0.0317 -0.2809
  334loPI   C4A 5338   1.085  13.546   8.435 -0.0695  0.1084 -0.1036
  334loPI   C5A 5339   1.096  13.297   8.027  0.0151 -0.2015  0.3739
  334loPI   C6A 5340   1.409  13.085   7.658 -0.0106 -0.0405 -0.1426
  334loPI   C1B 5341   1.075  14.179   9.316 -0.1761 -0.0379  0.0492
  334loPI   C2B 5342   1.021  13.995   8.926 -0.2446  0.1651  0.1176
  334loPI   C3B 5343   0.828  13.961   8.568 -0.1637 -0.0257  0.0616
  334loPI   C4B 5344   0.602  14.103   8.211  0.2615  0.0725 -0.1124
  335loPI    C1 5345  15.301   7.937  10.469  0.1899 -0.2599  0.0173
  335loPI    C2 5346  15.098   7.814  10.792 -0.1085  0.0567 -0.0441
  335loPI    C3 5347  15.389   8.087  10.830  0.1796 -0.2525  0.0167
  335loPI   PO4 5348  15.181   7.930  10.289  0.0559  0.1432  0.0267
  335loPI   GL1 5349  15.161   7.851   9.917  0.3509 -0.2268  0.1559
  335loPI   GL2 5350  14.989   7.666   9.674 -0.2344 -0.5035 -0.1558
  335loPI   C1A 5351  14.984   8.204   9.576  0.0761  0.1465  0.1225
  335loPI   C2A 5352  14.879   8.362   9.131 -0.2811 -0.0590 -0.0512
  335loPI   C3A 5353  14.861   8.454   8.718  0.0898  0.0806 -0.1977
  335loPI   C4A 5354  14.817   8.369   8.280 -0.0642 -0.0129 -0.2177
  335loPI   C5A 5355  14.760   8.733   8.068 -0.2298  0.2179  0.2650
  335loPI   C6A 5356  14.630   9.153   8.104  0.0313 -0.0778 -0.0903
  335loPI   C1B 5357  14.867   7.862   9.250  0.1469  0.2642 -0.3785
  335loPI   C2B 5358  14.787   7.996   8.838 -0.0166 -0.0976  0.0719
  335loPI   C3B 5359  14.783   7.830   8.438 -0.2929 -0.4518 -0.1443
  335loPI   C4B 5360  14.882   7.687   8.049 -0.1630 -0.2092  0.1937
  336loPI    C1 5361   6.985  12.843  10.220  0.1781  0.1167  0.3066
  336loPI    C2 5362   7.247  12.864   9.918  0.1484 -0.1933  0.2567
  336loPI    C3 5363   7.283  13.110  10.231  0.0251  0.3131 -0.1154
  336loPI   PO4 5364   6.733  12.809  10.063  0.2090  0.2273 -0.1924
  336loPI   GL1 5365   6.453  13.165   9.781 -0.2038 -0.1061 -0.0471
  336loPI   GL2 5366   6.181  13.101   9.760  0.0453 -0.1956  0.1688
  336loPI   C1A 5367   6.598  13.441   9.522  0.1144  0.0933  0.2078
  336loPI   C2A 5368   6.848  13.578   9.433 -0.1372 -0.1204  0.1661
  336loPI   C3A 5369   7.076  13.451   9.013  0.2213 -0.1550  0.1624
  336loPI   C4A 5370   7.128  13.476   8.627  0.0435  0.0571 -0.1915
  336loPI   C5A 5371   7.310  13.238   8.230  0.1127 -0.2023 -0.1401
  336loPI   C6A 5372   7.537  13.259   7.809  0.2245 -0.1145  0.2621
  336loPI   C1B 5373   6.310  12.940   9.352  0.2631 -0.1531 -0.0090
  336loPI   C2B 5374   6.248  12.982   8.895 -0.0132 -0.0001  0.3456
  336loPI   C3B 5375   6.373  12.774   8.531 -0.0290  0.2210  0.5126
  336loPI   C4B 5376   6.775  12.487   8.373  0.3002 -0.1992 -0.0266
  337loPI    C1 5377  16.771   0.119  10.570  0.1999  0.1935 -0.0952
  337loPI    C2 5378  16.541   0.020  10.883 -0.0228  0.2414 -0.2414
  337loPI    C3 5379  16.892  -0.164  10.826 -0.2285 -0.1546 -0.2645
  337loPI   PO4 5380  16.680   0.037  10.345  0.2614 -0.0059  0.3716
  337loPI   GL1 5381  16.693   0.178   9.911  0.1505 -0.0295 -0.0321
  337loPI   GL2 5382  16.434   0.110   9.754 -0.1580  0.1992 -0.1429
  337loPI   C1A 5383  16.764  -0.068   9.524  0.0518 -0.0093  0.1115
  337loPI   C2A 5384  16.997  -0.388   9.371  0.1474 -0.3561 -0.0989
  337loPI   C3A 5385  17.096  -0.792   9.180 -0.2213 -0.0089 -0.3100
  337loPI   C4A 5386  17.331  -0.937   8.848  0.1004 -0.0856 -0.0854
  337loPI   C5A 5387  17.309  -1.244   8.535 -0.1091 -0.0608 -0.2564
  337loPI   C6A 5388  17.085  -1.564   8.288 -0.0671  0.0885 -0.0093
  337loPI   C1B 5389  16.090   0.036   9.445  0.0039  0.0444 -0.1840
  337loPI   C2B 5390  16.079  -0.027   9.064  0.0476 -0.1057 -0.0664
  337loPI   C3B 5391  16.103   0.109   8.719 -0.0278  0.1410 -0.0173
  337loPI   C4B 5392  15.988   0.197   8.319  0.3218 -0.1329  0.1330
  338loPI    C1 5393  14.713  15.926  10.336  0.2374  0.2926  0.0351
  338loPI    C2 5394  14.599  16.214  10.588  0.0420  0.1648  0.0948
  338loPI    C3 5395  14.959  16.045  10.628 -0.0017  0.1195  0.3128
  338loPI   PO4 5396  14.669  16.045  10.102  0.1391 -0.2368  0.0438
  338loPI   GL1 5397  14.554  16.114   9.725 -0.4355  0.0921 -0.0496
  338loPI   GL2 5398  14.386  16.445   9.656  0.0321 -0.0909 -0.1397
  338loPI   C1A 5399  14.399  16.085   9.310 -0.0016 -0.1563  0.1897
  338loPI   C2A 5400  14.374  15.787   9.026 -0.0829 -0.0744  0.0044
  338loPI   C3A 5401  14.228  16.000   8.735 -0.0403  0.1105 -0.0203
  338loPI   C4A 5402  14.240  16.181   8.286  0.0932 -0.1244  0.1835
  338loPI   C5A 5403  14.199  16.281   7.799 -0.0446 -0.0707  0.0729
  338loPI   C6A 5404  13.799  16.219   7.464 -0.0456 -0.0137  0.0039
  338loPI   C1B 5405  14.415  16.633   9.231  0.0920  0.3299  0.0557
  338loPI   C2B 5406  14.504  16.458   8.780  0.0090 -0.0544 -0.2589
  338loPI   C3B 5407  14.715  16.232   8.562 -0.0949 -0.0871  0.1185
  338loPI   C4B 5408  14.682  15.902   8.186 -0.0484  0.1800 -0.2446
  339POPI    C1 5409   1.822   0.444   9.980 -0.0674 -0.0302  0.0131
  339POPI    C2 5410   1.472   0.355  10.151 -0.0421 -0.0761  0.0413
  339POPI    C3 5411   1.700   0.648  10.302 -0.0626 -0.0545  0.0303
  339POPI   PO4 5412   1.964   0.237  10.009 -0.0276  0.1548  0.0947
  339POPI   GL1 5413   2.065  -0.014   9.733  0.1683 -0.0414  0.1152
  339POPI   GL2 5414   1.860   0.029   9.557 -0.0641 -0.1568 -0.2439
  339POPI   C1A 5415   2.342  -0.087   9.355  0.2400  0.1955  0.2330
  339POPI   D2A 5416   2.619  -0.311   9.080  0.1054  0.1481 -0.0472
  339POPI   C3A 5417   2.609  -0.487   8.682 -0.0194 -0.3102 -0.1286
  339POPI   C4A 5418   2.924  -0.673   8.415  0.0243  0.2234  0.0642
  339POPI   C1B 5419   1.850   0.028   9.115  0.0599  0.0524  0.1334
  339POPI   C2B 5420   1.657  -0.099   8.780  0.1269  0.0055 -0.0004
  339POPI   C3B 5421   1.664   0.040   8.403 -0.2093 -0.2331  0.0545
  339POPI   C4B 5422   1.418   0.057   8.183 -0.1744 -0.1730 -0.1238
  340POPI    C1 5423   9.450  11.464  10.578  0.3688 -0.0202 -0.1941
  340POPI    C2 5424   9.558  11.764  10.820 -0.2849 -0.0465  0.1540
  340POPI    C3 5425   9.629  11.384  10.926  0.0877 -0.0386 -0.0504
  340POPI   PO4 5426   9.248  11.533  10.463  0.0945 -0.0422 -0.1970
  340POPI   GL1 5427   9.147  11.402  10.092 -0.3867  0.2114 -0.0319
  340POPI   GL2 5428   9.099  11.051  10.011 -0.1360  0.0648  0.3590
  340POPI   C1A 5429   9.176  11.432   9.660  0.0704  0.1681 -0.0119
  340POPI   D2A 5430   9.255  11.438   9.267 -0.0534 -0.0639 -0.2647
  340POPI   C3A 5431   9.680  11.321   9.137  0.1319  0.2266 -0.1588
  340POPI   C4A 5432  10.080  11.188   8.843 -0.0760 -0.1853  0.1958
  340POPI   C1B 5433   8.924  10.948   9.646  0.0014 -0.1878 -0.0411
  340POPI   C2B 5434   8.988  10.939   9.246  0.0339  0.3202 -0.0369
  340POPI   C3B 5435   8.936  10.750   8.823 -0.0357 -0.1117 -0.0430
  340POPI   C4B 5436   8.756  10.776   8.430 -0.1052 -0.1584 -0.1026
  341POPI    C1 5437   5.895  13.746  10.276  0.0095  0.2002 -0.0734
  341POPI    C2 5438   6.205  13.953  10.422  0.1174  0.0749 -0.1219
  341POPI    C3 5439   6.099  13.606  10.591  0.1098  0.0338 -0.2103
  341POPI   PO4 5440   5.895  13.970   9.997  0.2608  0.2268  0.0284
  341POPI   GL1 5441   6.116  13.953   9.658 -0.1661 -0.1897  0.3250
  341POPI   GL2 5442   6.176  13.693   9.634 -0.1158  0.4691  0.1590
  341POPI   C1A 5443   6.413  13.806   9.217 -0.0290  0.0551  0.3640
  341POPI   D2A 5444   6.590  13.585   8.996  0.1746  0.1174 -0.1192
  341POPI   C3A 5445   6.570  13.425   8.578 -0.2152 -0.1765 -0.2590
  341POPI   C4A 5446   6.729  13.399   8.234  0.0763  0.0630 -0.1531
  341POPI   C1B 5447   6.048  13.402   9.285 -0.2065  0.3525 -0.1991
  341POPI   C2B 5448   6.121  13.467   8.859 -0.0121  0.0767 -0.1902
  341POPI   C3B 5449   6.094  13.376   8.489  0.0226 -0.1833  0.0901
  341POPI   C4B 5450   6.215  13.388   8.060 -0.2033 -0.1114  0.0623
  342POPI    C1 5451   4.539   4.092  10.596 -0.1322 -0.1030 -0.0614
  342POPI    C2 5452   4.242   4.255  10.809 -0.0082 -0.0674  0.0861
  342POPI    C3 5453   4.478   3.977  10.974  0.0562 -0.0777 -0.0223
  342POPI   PO4 5454   4.661   4.287  10.517 -0.0255 -0.0565 -0.0131
  342POPI   GL1 5455   4.790   4.468  10.178  0.0938  0.3815  0.1392
  342POPI   GL2 5456   4.692   4.214  10.023 -0.0238  0.1696  0.0128
  342POPI   C1A 5457   4.869   4.504   9.704 -0.3338  0.0703  0.1448
  342POPI   D2A 5458   4.914   4.499   9.260 -0.4333 -0.2885  0.3322
  342POPI   C3A 5459   4.911   4.436   8.788 -0.0657  0.0423 -0.1285
  342POPI   C4A 5460   5.031   4.180   8.469  0.0184 -0.2553  0.1318
  342POPI   C1B 5461   4.525   4.129   9.579 -0.1652  0.1234 -0.2374
  342POPI   C2B 5462   4.469   4.163   9.195  0.0057 -0.2286  0.2145
  342POPI   C3B 5463   4.532   4.124   8.681 -0.1669 -0.2550 -0.0412
  342POPI   C4B 5464   4.496   4.267   8.264 -0.0948 -0.2246  0.2948
  343POPI    C1 5465   0.266  15.981  10.338 -0.0731 -0.2800 -0.0558
  343POPI    C2 5466   0.448  15.932  10.691 -0.1775  0.2345  0.0781
  343POPI    C3 5467   0.115  15.727  10.607 -0.0429 -0.0371  0.1944
  343POPI   PO4 5468   0.468  15.873  10.120 -0.0413  0.0949 -0.4195
  343POPI   GL1 5469   0.569  15.852   9.661 -0.2034 -0.0460 -0.0436
  343POPI   GL2 5470   0.262  15.750   9.664  0.0927 -0.0385 -0.0689
  343POPI   C1A 5471   0.389  15.767   9.228 -0.0370  0.0686 -0.0332
  343POPI   D2A 5472   0.282  15.654   8.863  0.0875 -0.0384  0.0679
  343POPI   C3A 5473  -0.052  15.646   8.396 -0.0946  0.0032  0.1227
  343POPI   C4A 5474  -0.151  15.689   7.913 -0.1932  0.1870 -0.2355
  343POPI   C1B 5475  -0.059  15.995   9.466  0.1555 -0.0666 -0.0963
  343POPI   C2B 5476  -0.174  15.983   9.101 -0.2612  0.0490  0.1435
  343POPI   C3B 5477  -0.279  16.072   8.722  0.1011 -0.0077  0.1285
  343POPI   C4B 5478  -0.012  16.163   8.325  0.0506  0.3846  0.0940
  344POPI    C1 5479  14.335   4.721  10.299 -0.1272  0.2495  0.0824
  344POPI    C2 5480  14.076   4.656  10.597 -0.0631  0.1542  0.1178
  344POPI    C3 5481  14.468   4.674  10.673 -0.0349 -0.0175  0.0184
  344POPI   PO4 5482  14.259   4.524  10.094  0.2946  0.0222  0.3502
  344POPI   GL1 5483  14.226   4.566   9.637 -0.1260  0.2436  0.1311
  344POPI   GL2 5484  13.985   4.368   9.666 -0.1316 -0.0575  0.0892
  344POPI   C1A 5485  14.110   4.553   9.130  0.1287  0.4077  0.2883
  344POPI   D2A 5486  13.998   4.394   8.767 -0.3365 -0.0794 -0.2801
  344POPI   C3A 5487  14.228   4.085   8.583  0.0487  0.2969  0.1576
  344POPI   C4A 5488  14.440   3.955   8.268 -0.1767 -0.0718  0.0124
  344POPI   C1B 5489  13.850   4.183   9.346  0.3996  0.1055 -0.0922
  344POPI   C2B 5490  13.631   3.869   9.091 -0.0707 -0.0726  0.1745
  344POPI   C3B 5491  13.559   3.785   8.709  0.0153  0.0607  0.1585
  344POPI   C4B 5492  13.837   3.773   8.408 -0.0577 -0.1644 -0.1605
  345POPI    C1 5493   1.645   3.990  10.451  0.0810 -0.0051 -0.1054
  345POPI    C2 5494   1.369   3.928  10.168  0.1577 -0.1435 -0.1510
  345POPI    C3 5495   1.308   3.792  10.540 -0.0400  0.2252 -0.0436
  345POPI   PO4 5496   1.819   4.126  10.255  0.3144  0.1745  0.1390
  345POPI   GL1 5497   1.821   4.000   9.889 -0.0522 -0.2505  0.0065
  345POPI   GL2 5498   2.165   4.127   9.838  0.4146 -0.1571  0.1877
  345POPI   C1A 5499   1.406   3.958   9.728  0.2270 -0.2244  0.1091
  345POPI   D2A 5500   1.069   3.731   9.433  0.0155  0.1174  0.1578
  345POPI   C3A 5501   1.057   3.745   8.950  0.2168 -0.1296 -0.1273
  345POPI   C4A 5502   1.123   3.743   8.549 -0.0604  0.1351 -0.0513
  345POPI   C1B 5503   2.273   4.042   9.344 -0.1904 -0.0091  0.1371
  345POPI   C2B 5504   2.340   4.321   9.000 -0.0862  0.0483  0.0504
  345POPI   C3B 5505   2.558   4.347   8.625 -0.0292 -0.1386 -0.0896
  345POPI   C4B 5506   2.995   4.598   8.557 -0.0190 -0.3344  0.0551
  346POPI    C1 5507   5.722   7.582  10.270 -0.3104 -0.0879  0.0587
  346POPI    C2 5508   5.483   7.749   9.996 -0.0752 -0.0857 -0.1490
  346POPI    C3 5509   5.602   7.961  10.314 -0.1069  0.0094 -0.2001
  346POPI   PO4 5510   5.935   7.491  10.093  0.0694  0.1722  0.0292
  346POPI   GL1 5511   5.847   7.028  10.054  0.3284 -0.1025 -0.1936
  346POPI   GL2 5512   6.114   7.092   9.846  0.3788 -0.0185 -0.3333
  346POPI   C1A 5513   5.622   7.076   9.621 -0.0578  0.0004 -0.3202
  346POPI   D2A 5514   5.662   7.498   9.470 -0.2986 -0.1702  0.2237
  346POPI   C3A 5515   5.702   7.675   9.076 -0.2719  0.1619  0.3688
  346POPI   C4A 5516   5.494   7.543   8.850 -0.0506 -0.1318  0.2139
  346POPI   C1B 5517   6.072   7.154   9.362 -0.3529 -0.1004  0.1594
  346POPI   C2B 5518   5.951   7.251   8.998 -0.1478 -0.1221  0.0499
  346POPI   C3B 5519   5.758   7.118   8.699 -0.3804 -0.2858 -0.1211
  346POPI   C4B 5520   5.433   6.977   8.620 -0.1781 -0.3228 -0.2962
  347POPI    C1 5521  14.551   2.122  10.425 -0.1204 -0.2321  0.0318
  347POPI    C2 5522  14.234   1.986  10.222 -0.2011  0.0060 -0.0045
  347POPI    C3 5523  14.244   2.366  10.347  0.2192  0.1002 -0.3048
  347POPI   PO4 5524  14.728   2.057  10.272  0.3306 -0.0659 -0.0189
  347POPI   GL1 5525  14.604   1.979   9.910 -0.0941  0.0248 -0.2097
  347POPI   GL2 5526  14.761   1.803   9.729  0.1953 -0.0736  0.1200
  347POPI   C1A 5527  14.276   1.906   9.675 -0.0062  0.0522 -0.1360
  347POPI   D2A 5528  13.915   1.736   9.498  0.0677 -0.1213 -0.1805
  347POPI   C3A 5529  13.898   1.647   9.116 -0.0511  0.2242  0.0164
  347POPI   C4A 5530  13.904   1.554   8.717 -0.2609  0.2874 -0.2373
  347POPI   C1B 5531  14.725   1.993   9.381  0.2170  0.2528 -0.1660
  347POPI   C2B 5532  14.723   2.096   8.973  0.0174  0.0911  0.2245
  347POPI   C3B 5533  14.914   2.264   8.570 -0.1210 -0.1541  0.0349
  347POPI   C4B 5534  15.075   2.120   8.148  0.1144  0.0522  0.0097
  348POPI    C1 5535   8.161  15.419  10.202 -0.0713  0.2174  0.1840
  348POPI    C2 5536   8.098  15.474  10.593  0.0626  0.0981  0.2232
  348POPI    C3 5537   8.338  15.723  10.392 -0.1069  0.2357  0.1882
  348POPI   PO4 5538   7.903  15.187  10.176 -0.2922  0.0533 -0.1360
  348POPI   GL1 5539   7.584  15.367   9.883  0.0960 -0.1253 -0.1802
  348POPI   GL2 5540   7.755  15.644   9.896 -0.1219  0.5939 -0.0460
  348POPI   C1A 5541   7.555  15.302   9.464 -0.4327  0.1489 -0.0729
  348POPI   D2A 5542   7.660  14.855   9.310 -0.0088 -0.1262 -0.0602
  348POPI   C3A 5543   7.806  14.758   8.863  0.1063  0.1134 -0.0426
  348POPI   C4A 5544   7.608  14.669   8.485 -0.0591 -0.1281  0.3002
  348POPI   C1B 5545   7.870  15.716   9.511  0.2249 -0.0574  0.2124
  348POPI   C2B 5546   7.805  15.775   9.063  0.0829  0.2285  0.2760
  348POPI   C3B 5547   7.830  15.732   8.553  0.0108 -0.1951 -0.1897
  348POPI   C4B 5548   7.751  15.741   8.122  0.0925 -0.2349 -0.1076
  349POPI    C1 5549   6.014  11.948  10.238  0.1230 -0.0597  0.4329
  349POPI    C2 5550   5.683  11.983  10.461 -0.2654 -0.2048 -0.0984
  349POPI    C3 5551   5.776  11.631  10.295  0.0408 -0.1112 -0.1324
  349POPI   PO4 5552   6.109  12.175  10.138 -0.1134 -0.4717 -0.1014
  349POPI   GL1 5553   6.175  12.157   9.710 -0.0705 -0.1836  0.0290
  349POPI   GL2 5554   5.924  12.478   9.592  0.1944 -0.0456 -0.1844
  349POPI   C1A 5555   6.211  12.181   9.215 -0.2091  0.2528 -0.0291
  349POPI   D2A 5556   6.413  12.061   8.812  0.1387  0.1172 -0.0225
  349POPI   C3A 5557   6.766  11.661   8.817 -0.0894  0.0173 -0.0092
  349POPI   C4A 5558   7.112  11.472   8.904 -0.2723  0.0271 -0.4196
  349POPI   C1B 5559   5.914  12.598   9.108 -0.0079  0.0211 -0.1534
  349POPI   C2B 5560   6.053  12.442   8.756 -0.1498 -0.1720 -0.1371
  349POPI   C3B 5561   6.173  12.194   8.397  0.2632  0.0216 -0.1434
  349POPI   C4B 5562   6.065  11.854   8.176  0.0049 -0.3611 -0.0096
  350POPI    C1 5563  16.161  16.090  10.129 -0.3033 -0.1614  0.1265
  350POPI    C2 5564  16.039  16.312  10.439  0.1232  0.0697  0.1366
  350POPI    C3 5565  16.176  15.941  10.500  0.0473  0.0523  0.2027
  350POPI   PO4 5566  16.014  16.063   9.986 -0.1021 -0.0860 -0.1864
  350POPI   GL1 5567  15.865  16.142   9.598 -0.0078 -0.0739 -0.0595
  350POPI   GL2 5568  15.455  16.221   9.692 -0.1089 -0.0014 -0.0493
  350POPI   C1A 5569  16.061  16.070   9.169  0.1003 -0.1610  0.1115
  350POPI   D2A 5570  15.962  16.126   8.667 -0.0497 -0.1949 -0.0476
  350POPI   C3A 5571  16.111  15.894   8.273  0.0514  0.1976  0.0068
  350POPI   C4A 5572  16.067  15.404   8.224  0.0985 -0.1905  0.2165
  350POPI   C1B 5573  15.390  16.009   9.292  0.0454  0.0320 -0.2632
  350POPI   C2B 5574  15.499  15.849   8.895 -0.0457  0.0168  0.1593
  350POPI   C3B 5575  15.632  15.797   8.445  0.1410 -0.2145 -0.2437
  350POPI   C4B 5576  15.605  15.552   8.081  0.1596  0.2458 -0.1140
  351POPI    C1 5577   9.194   4.712  10.295 -0.1003 -0.0163 -0.0203
  351POPI    C2 5578   9.486   4.494  10.460 -0.0884  0.1115  0.1308
  351POPI    C3 5579   9.576   4.818  10.243 -0.1232  0.2710  0.3516
  351POPI   PO4 5580   9.002   4.517  10.170  0.0108 -0.0533  0.1923
  351POPI   GL1 5581   8.902   4.231   9.858 -0.1056 -0.3043 -0.1978
  351POPI   GL2 5582   8.760   3.976  10.016  0.1320 -0.1300 -0.3181
  351POPI   C1A 5583   8.684   4.305   9.481  0.2497  0.1471 -0.0425
  351POPI   D2A 5584   8.420   4.295   9.019 -0.0536  0.0185  0.0677
  351POPI   C3A 5585   8.314   4.702   8.867  0.0198 -0.1628  0.3700
  351POPI   C4A 5586   8.073   4.680   8.449 -0.2606 -0.1506  0.0677
  351POPI   C1B 5587   8.922   3.816   9.515 -0.0213  0.1593  0.0487
  351POPI   C2B 5588   8.842   3.974   9.143 -0.0436  0.0809  0.1339
  351POPI   C3B 5589   8.679   3.899   8.713  0.0330 -0.2358  0.0682
  351POPI   C4B 5590   8.556   3.793   8.336 -0.0853  0.2581  0.0375
  352POPI    C1 5591  13.676  13.074  10.653 -0.0636  0.0590  0.2112
  352POPI    C2 5592  13.574  13.460  10.680 -0.2747  0.0042  0.2092
  352POPI    C3 5593  13.668  13.254  11.010 -0.1983  0.0470  0.2144
  352POPI   PO4 5594  13.831  13.055  10.409  0.0170  0.0644  0.0054
  352POPI   GL1 5595  13.738  13.259  10.002 -0.1288  0.3818 -0.1267
  352POPI   GL2 5596  13.815  13.551   9.848 -0.0405 -0.0925  0.1455
  352POPI   C1A 5597  13.878  12.963   9.713 -0.3133  0.2766  0.1095
  352POPI   D2A 5598  13.861  12.827   9.330 -0.0659  0.3825 -0.2230
  352POPI   C3A 5599  13.835  12.656   8.918 -0.0514 -0.2549  0.1445
  352POPI   C4A 5600  13.845  12.549   8.458  0.0123  0.0324  0.1267
  352POPI   C1B 5601  13.773  13.398   9.465 -0.1244 -0.3733 -0.3005
  352POPI   C2B 5602  13.788  13.271   9.073  0.2376  0.1051 -0.0647
  352POPI   C3B 5603  13.692  13.205   8.646  0.1237  0.1316  0.1583
  352POPI   C4B 5604  13.532  13.021   8.250 -0.1291  0.2103  0.1385
  353POPI    C1 5605  13.272  14.279  10.369  0.0637 -0.0080  0.0409
  353POPI    C2 5606  12.944  14.166  10.568 -0.0107  0.2054  0.0427
  353POPI    C3 5607  12.992  14.549  10.464  0.1952  0.1587 -0.0396
  353POPI   PO4 5608  13.382  13.947  10.444  0.0407 -0.1675 -0.1672
  353POPI   GL1 5609  13.528  13.898  10.078 -0.0637  0.1739  0.1396
  353POPI   GL2 5610  13.362  13.596  10.093 -0.1554  0.1826 -0.0678
  353POPI   C1A 5611  13.504  13.836   9.565 -0.1722 -0.0695  0.0828
  353POPI   D2A 5612  13.523  13.888   9.108  0.1793 -0.2876 -0.2931
  353POPI   C3A 5613  13.659  13.760   8.671 -0.3509  0.0036 -0.1108
  353POPI   C4A 5614  13.922  13.711   8.338  0.0311  0.1478  0.0813
  353POPI   C1B 5615  13.286  13.450   9.761  0.4342  0.0992 -0.1236
  353POPI   C2B 5616  13.227  13.497   9.297 -0.1154  0.1001 -0.2774
  353POPI   C3B 5617  13.188  13.542   8.834 -0.0263  0.0471 -0.2044
  353POPI   C4B 5618  13.254  13.433   8.422  0.3237  0.0626  0.0191
  354POPI    C1 5619   0.309  13.927  10.441  0.0416 -0.1296  0.1157
  354POPI    C2 5620   0.526  13.708  10.186  0.4721 -0.1751  0.5075
  354POPI    C3 5621   0.679  14.043  10.343  0.0479  0.0852  0.3808
  354POPI   PO4 5622   0.137  13.928  10.307 -0.2330 -0.2302  0.0328
  354POPI   GL1 5623   0.054  13.906   9.881 -0.0674 -0.0975  0.2542
  354POPI   GL2 5624   0.299  13.786   9.741 -0.2197  0.3110 -0.2055
  354POPI   C1A 5625   0.046  14.215   9.498  0.1786  0.1587  0.2325
  354POPI   D2A 5626   0.005  14.344   9.049 -0.1288  0.0697  0.0197
  354POPI   C3A 5627   0.287  14.652   8.784 -0.0931  0.1233  0.1462
  354POPI   C4A 5628   0.625  14.547   8.477 -0.0214  0.0619  0.1352
  354POPI   C1B 5629   0.320  13.819   9.318  0.1804 -0.0811 -0.0965
  354POPI   C2B 5630   0.481  13.976   8.920  0.0720 -0.3455 -0.0726
  354POPI   C3B 5631   0.349  14.106   8.589 -0.2829  0.1084  0.0000
  354POPI   C4B 5632   0.002  14.345   8.467  0.2352 -0.2292 -0.2461
  355POPI    C1 5633   0.598   4.315  10.636  0.0634  0.0387  0.1874
  355POPI    C2 5634   0.481   4.629  10.854 -0.0367  0.0975  0.0506
  355POPI    C3 5635   0.505   4.267  11.022  0.1423  0.1886  0.2258
  355POPI   PO4 5636   0.410   4.465  10.388  0.2368  0.0909 -0.0276
  355POPI   GL1 5637   0.080   4.528  10.119  0.0452 -0.1413 -0.2661
  355POPI   GL2 5638   0.080   4.841   9.935  0.2339 -0.1226 -0.0588
  355POPI   C1A 5639   0.037   4.327   9.785  0.1083  0.2693  0.3070
  355POPI   D2A 5640   0.103   4.085   9.431 -0.2517 -0.1065 -0.3230
  355POPI   C3A 5641   0.082   4.043   9.077  0.1581 -0.0412  0.0181
  355POPI   C4A 5642   0.282   4.131   8.748 -0.0532 -0.2816 -0.4828
  355POPI   C1B 5643   0.190   4.953   9.614  0.0379  0.1520 -0.1649
  355POPI   C2B 5644   0.324   4.975   9.199  0.1878  0.0077 -0.4252
  355POPI   C3B 5645   0.503   5.046   8.844  0.1647 -0.2409 -0.1849
  355POPI   C4B 5646   0.713   4.985   8.501  0.1686  0.0571  0.1517
  356POPI    C1 5647  15.669   0.620  10.118  0.0969  0.0243 -0.1684
  356POPI    C2 5648  15.675   0.903   9.835  0.1668  0.1473 -0.0448
  356POPI    C3 5649  15.702   1.005  10.221  0.0164 -0.0158  0.0103
  356POPI   PO4 5650  15.495   0.434  10.083 -0.2165 -0.1954  0.1311
  356POPI   GL1 5651  15.324   0.139   9.745  0.0304 -0.2017 -0.0525
  356POPI   GL2 5652  15.503   0.025   9.627 -0.1417  0.3522  0.0566
  356POPI   C1A 5653  15.225   0.234   9.309 -0.3965 -0.1865 -0.2530
  356POPI   D2A 5654  15.142   0.276   8.841 -0.0364  0.0825  0.0894
  356POPI   C3A 5655  14.964   0.555   8.407  0.1916 -0.0042  0.0383
  356POPI   C4A 5656  14.920   0.788   8.081  0.2041  0.1927 -0.3110
  356POPI   C1B 5657  15.674   0.145   9.223  0.0536  0.0448 -0.2576
  356POPI   C2B 5658  15.662   0.278   8.862  0.0746 -0.0246 -0.3805
  356POPI   C3B 5659  15.489   0.266   8.465 -0.1142  0.2755 -0.1563
  356POPI   C4B 5660  15.586   0.093   8.049 -0.0497 -0.2046  0.2910
  357POPI    C1 5661  17.317  11.736  10.322 -0.0512 -0.0857  0.0002
  357POPI    C2 5662  17.274  11.577  10.686 -0.2022 -0.2769 -0.0994
  357POPI    C3 5663  17.185  11.962  10.624  0.1697 -0.1464  0.1448
  357POPI   PO4 5664  17.585  11.601  10.227 -0.2754 -0.0353 -0.1334
  357POPI   GL1 5665  17.726  11.687   9.859 -0.2244  0.0488 -0.1854
  357POPI   GL2 5666  18.088  11.685   9.903  0.1414  0.0784 -0.1641
  357POPI   C1A 5667  17.537  11.565   9.500 -0.1482  0.0320 -0.1264
  357POPI   D2A 5668  17.558  11.453   9.155 -0.0295 -0.0625 -0.0328
  357POPI   C3A 5669  17.569  10.996   8.934 -0.2171 -0.2600  0.3691
  357POPI   C4A 5670  17.909  10.679   8.890  0.2226  0.2406 -0.0170
  357POPI   C1B 5671  18.026  11.479   9.415  0.2028 -0.0150 -0.0881
  357POPI   C2B 5672  18.017  11.367   9.019 -0.0101 -0.1272 -0.0474
  357POPI   C3B 5673  17.998  11.116   8.675  0.0609  0.0224 -0.0002
  357POPI   C4B 5674  17.864  10.984   8.201 -0.0930  0.0311  0.0458
  358POPI    C1 5675  11.391  13.536  10.394 -0.0730 -0.0362 -0.1699
  358POPI    C2 5676  11.524  13.898  10.498 -0.0007 -0.0331 -0.2712
  358POPI    C3 5677  11.522  13.602  10.766 -0.2387  0.0902 -0.1329
  358POPI   PO4 5678  11.487  13.502  10.202 -0.2647  0.0244  0.2140
  358POPI   GL1 5679  11.697  13.821   9.831  0.1253  0.2011 -0.0506
  358POPI   GL2 5680  11.600  14.124   9.870  0.1642 -0.0597 -0.1194
  358POPI   C1A 5681  11.700  13.933   9.423 -0.0745 -0.2474 -0.0348
  358POPI   D2A 5682  11.576  14.219   9.121  0.0827 -0.4769  0.0328
  358POPI   C3A 5683  11.760  14.101   8.755 -0.0278  0.3039 -0.1142
  358POPI   C4A 5684  11.633  13.857   8.403  0.0346  0.1668 -0.1091
  358POPI   C1B 5685  11.247  14.040   9.683  0.0137  0.3168  0.3323
  358POPI   C2B 5686  11.139  14.059   9.320  0.1159 -0.2982 -0.1578
  358POPI   C3B 5687  11.142  14.064   8.833  0.4952  0.1700 -0.0157
  358POPI   C4B 5688  11.318  14.265   8.513 -0.2291  0.5341 -0.0765
  359POPI    C1 5689   5.284   1.695  10.470  0.0217 -0.0068  0.0237
  359POPI    C2 5690   5.257   1.597  10.856 -0.0697  0.0497  0.0321
  359POPI    C3 5691   4.928   1.692  10.652 -0.0155  0.0675 -0.0475
  359POPI   PO4 5692   5.412   1.533  10.376 -0.0861  0.2671 -0.0472
  359POPI   GL1 5693   5.655   1.589   9.993  0.1762 -0.0023  0.2213
  359POPI   GL2 5694   5.889   1.306   9.864 -0.0416  0.1684 -0.0769
  359POPI   C1A 5695   5.804   1.860   9.647 -0.0275  0.0254 -0.2078
  359POPI   D2A 5696   5.971   1.990   9.288  0.0418 -0.3515 -0.0066
  359POPI   C3A 5697   6.008   2.059   8.784  0.0735  0.0753 -0.0789
  359POPI   C4A 5698   6.027   2.219   8.438  0.0160  0.0499 -0.1392
  359POPI   C1B 5699   5.840   1.390   9.353  0.0598  0.2252  0.2196
  359POPI   C2B 5700   5.837   1.514   8.953  0.1309 -0.1440 -0.2616
  359POPI   C3B 5701   6.093   1.566   8.556  0.0019  0.0002  0.2778
  359POPI   C4B 5702   6.417   1.209   8.410 -0.2193  0.0679  0.1440
  360POPI    C1 5703   2.629  13.605   9.934 -0.1804 -0.0755  0.0341
  360POPI    C2 5704   2.420  13.794  10.218 -0.0735  0.0708  0.0165
  360POPI    C3 5705   2.234  13.547   9.964 -0.1883  0.0297  0.1392
  360POPI   PO4 5706   2.805  13.681   9.905  0.0893  0.0544 -0.1396
  360POPI   GL1 5707   3.162  13.648   9.583 -0.0418 -0.2977  0.0503
  360POPI   GL2 5708   3.135  13.872   9.599  0.0260 -0.3067  0.0923
  360POPI   C1A 5709   3.152  13.387   9.196  0.1257  0.1257  0.0323
  360POPI   D2A 5710   3.084  12.884   9.132 -0.3175 -0.1208  0.0632
  360POPI   C3A 5711   3.018  12.681   8.739 -0.0572 -0.1623  0.0567
  360POPI   C4A 5712   3.183  12.365   8.478  0.4196 -0.0977 -0.0493
  360POPI   C1B 5713   2.933  13.809   9.129 -0.0746  0.0408  0.3812
  360POPI   C2B 5714   3.127  13.663   8.775  0.3454 -0.0494  0.4215
  360POPI   C3B 5715   3.214  13.567   8.404 -0.1679 -0.0487  0.0314
  360POPI   C4B 5716   3.067  13.691   8.035 -0.1653  0.1760  0.0627
  361POPI    C1 5717  17.952   5.442  10.344 -0.1138 -0.0174 -0.0429
  361POPI    C2 5718  18.251   5.648  10.512 -0.0891 -0.0597 -0.0347
  361POPI    C3 5719  18.060   5.366  10.721 -0.1466 -0.0207 -0.0342
  361POPI   PO4 5720  17.849   5.592  10.188 -0.0650 -0.1713 -0.1320
  361POPI   GL1 5721  17.542   5.872   9.785  0.1130 -0.0997  0.0117
  361POPI   GL2 5722  17.606   5.566   9.733 -0.1901 -0.1531  0.0201
  361POPI   C1A 5723  17.578   6.051   9.371  0.2414 -0.3166 -0.1946
  361POPI   D2A 5724  17.442   6.274   8.998 -0.0697  0.3000  0.1236
  361POPI   C3A 5725  17.296   6.359   8.570 -0.2491  0.1524  0.0890
  361POPI   C4A 5726  17.358   6.156   8.242 -0.0891  0.0000 -0.0897
  361POPI   C1B 5727  17.715   5.534   9.220  0.1331  0.0400 -0.1236
  361POPI   C2B 5728  17.681   5.795   8.934 -0.2491  0.2988  0.1300
  361POPI   C3B 5729  17.680   5.984   8.604 -0.4180  0.2209 -0.0414
  361POPI   C4B 5730  17.823   6.086   8.161 -0.1320 -0.0373  0.0993
  362POPI    C1 5731   7.005   4.970  10.376 -0.0358  0.1754 -0.0229
  362POPI    C2 5732   7.036   4.898  10.768  0.1264 -0.1167 -0.0865
  362POPI    C3 5733   7.128   5.260  10.623  0.1247 -0.0255  0.1356
  362POPI   PO4 5734   6.984   4.717  10.279 -0.0451  0.1742 -0.0174
  362POPI   GL1 5735   6.904   4.499   9.959 -0.1171  0.2417  0.1761
  362POPI   GL2 5736   6.910   4.140   9.761  0.0879 -0.1270  0.2758
  362POPI   C1A 5737   6.771   4.611   9.655 -0.0997  0.3850  0.1219
  362POPI   D2A 5738   6.733   4.667   9.270 -0.0222  0.0450 -0.1010
  362POPI   C3A 5739   6.870   4.792   8.886 -0.2072 -0.3289 -0.1412
  362POPI   C4A 5740   6.990   4.867   8.427 -0.0146 -0.0695  0.1518
  362POPI   C1B 5741   6.835   4.136   9.304 -0.0449  0.0108  0.2718
  362POPI   C2B 5742   6.809   4.234   8.895 -0.2355 -0.3322 -0.2830
  362POPI   C3B 5743   6.929   4.287   8.494  0.0832 -0.0515  0.1722
  362POPI   C4B 5744   6.710   4.295   8.027 -0.2226  0.1375  0.1809
  363POPI    C1 5745   3.212  10.817  10.121  0.0013  0.0746  0.0206
  363POPI    C2 5746   3.292  10.446  10.249 -0.0196  0.0051 -0.1645
  363POPI    C3 5747   3.145  10.718  10.502  0.3789  0.0070  0.0733
  363POPI   PO4 5748   3.467  10.825   9.937 -0.0943  0.2633  0.2639
  363POPI   GL1 5749   3.406  10.772   9.533  0.0666 -0.0344  0.1063
  363POPI   GL2 5750   3.129  11.032   9.612  0.1097 -0.1063  0.0388
  363POPI   C1A 5751   3.656  10.614   9.170  0.0880  0.3357 -0.1888
  363POPI   D2A 5752   3.765  10.636   8.701  0.1678 -0.3121 -0.2903
  363POPI   C3A 5753   3.746  10.533   8.289 -0.0228  0.0159 -0.0386
  363POPI   C4A 5754   3.868  10.579   7.871 -0.2401  0.0977  0.0403
  363POPI   C1B 5755   3.099  11.016   9.161 -0.0830  0.2931 -0.1705
  363POPI   C2B 5756   3.170  10.691   8.901  0.1090  0.0044  0.1078
  363POPI   C3B 5757   3.295  10.481   8.551 -0.1213  0.1905  0.1670
  363POPI   C4B 5758   3.553  10.130   8.534  0.0444  0.1093  0.2654
  364POPI    C1 5759  13.127  11.554  10.674  0.2366 -0.1789 -0.0350
  364POPI    C2 5760  13.283  11.823  10.926 -0.1918 -0.0680  0.1210
  364POPI    C3 5761  13.172  11.463  11.061 -0.0418 -0.1597  0.0037
  364POPI   PO4 5762  13.248  11.550  10.479 -0.1555  0.2504  0.1500
  364POPI   GL1 5763  13.203  11.776  10.034  0.0413  0.3230  0.0599
  364POPI   GL2 5764  12.907  11.756   9.967 -0.2267  0.1170  0.2130
  364POPI   C1A 5765  13.236  12.041   9.594 -0.0918 -0.0736  0.3356
  364POPI   D2A 5766  13.305  12.151   9.200  0.2686  0.2406  0.0623
  364POPI   C3A 5767  13.154  12.073   8.828  0.2231  0.1010  0.0180
  364POPI   C4A 5768  13.005  12.312   8.510 -0.0660  0.3049 -0.1775
  364POPI   C1B 5769  13.159  11.594   9.554 -0.0457  0.1703 -0.1932
  364POPI   C2B 5770  13.309  11.634   9.142  0.0009  0.1821 -0.1812
  364POPI   C3B 5771  13.401  11.262   8.947  0.1280  0.0467  0.2015
  364POPI   C4B 5772  13.025  11.039   8.825  0.1470 -0.2658  0.1887
  365POPI    C1 5773   3.177   5.032  10.944 -0.0876  0.1151  0.0032
  365POPI    C2 5774   2.814   5.114  11.092 -0.0765  0.0151  0.0870
  365POPI    C3 5775   3.111   5.012  11.338  0.0133  0.1133  0.0201
  365POPI   PO4 5776   3.166   4.919  10.743  0.0892  0.2416 -0.0332
  365POPI   GL1 5777   3.289   4.670  10.415  0.0642  0.2218 -0.0138
  365POPI   GL2 5778   3.530   4.851  10.379  0.0017 -0.0699 -0.1732
  365POPI   C1A 5779   2.971   4.560  10.072  0.0382 -0.2045  0.2330
  365POPI   D2A 5780   2.636   4.716   9.851 -0.0695 -0.1289  0.1936
  365POPI   C3A 5781   2.250   4.955   9.677  0.0107  0.0020  0.2452
  365POPI   C4A 5782   2.034   5.350   9.766 -0.3363 -0.0346 -0.0891
  365POPI   C1B 5783   3.436   4.986   9.929  0.3843 -0.0438  0.0968
  365POPI   C2B 5784   3.471   5.016   9.608  0.0455  0.1586 -0.1638
  365POPI   C3B 5785   3.354   5.103   9.248 -0.1703  0.1288 -0.3835
  365POPI   C4B 5786   3.146   4.823   8.988 -0.0573 -0.2197  0.0563
  366POPI    C1 5787   1.234  10.562  10.175 -0.0239 -0.0429 -0.2986
  366POPI    C2 5788   1.180  10.311  10.482  0.2883  0.1198 -0.1058
  366POPI    C3 5789   1.004  10.238  10.130 -0.0109 -0.1102  0.0871
  366POPI   PO4 5790   1.255  10.867  10.284  0.0627 -0.2005  0.1555
  366POPI   GL1 5791   1.307  11.063   9.977 -0.0989  0.1162  0.3893
  366POPI   GL2 5792   1.531  10.842   9.787 -0.0463  0.0568  0.1713
  366POPI   C1A 5793   1.280  11.431   9.762 -0.1593  0.2965  0.1444
  366POPI   D2A 5794   0.953  11.626   9.603  0.1119 -0.2761  0.0078
  366POPI   C3A 5795   0.879  11.670   9.181 -0.0739 -0.3123 -0.2281
  366POPI   C4A 5796   0.617  11.610   8.807  0.4039 -0.0592  0.1401
  366POPI   C1B 5797   1.437  10.903   9.428  0.1994  0.0287 -0.3014
  366POPI   C2B 5798   1.396  10.929   9.042  0.2013 -0.1196 -0.0958
  366POPI   C3B 5799   1.469  10.921   8.565  0.2506 -0.0708 -0.1231
  366POPI   C4B 5800   1.776  10.750   8.299  0.0958  0.0463  0.1274
  367POPI    C1 5801   9.891  10.229  10.274  0.0809  0.0969 -0.1278
  367POPI    C2 5802  10.246  10.121  10.124  0.1575  0.0093  0.1121
  367POPI    C3 5803   9.975   9.842  10.217  0.1693  0.0520  0.2776
  367POPI   PO4 5804   9.832  10.434  10.102 -0.2089 -0.2043  0.3610
  367POPI   GL1 5805  10.035  10.819   9.940 -0.0276  0.4239  0.0931
  367POPI   GL2 5806  10.333  10.662  10.017 -0.1803 -0.2639  0.1794
  367POPI   C1A 5807  10.189  10.695   9.549 -0.0583 -0.1679 -0.1614
  367POPI   D2A 5808  10.366  10.470   9.225 -0.0579  0.1500  0.0797
  367POPI   C3A 5809  10.212  10.192   8.944  0.1606  0.0842 -0.2721
  367POPI   C4A 5810   9.777  10.149   8.761 -0.2010 -0.1089  0.2429
  367POPI   C1B 5811  10.573  10.473   9.727 -0.2490 -0.1995  0.0108
  367POPI   C2B 5812  10.803  10.311   9.436  0.0547  0.0425 -0.3819
  367POPI   C3B 5813  10.853  10.293   9.018  0.1706  0.2117 -0.1580
  367POPI   C4B 5814  11.055  10.295   8.600  0.1549 -0.1721  0.0912
  368POPI    C1 5815  10.586   9.178  10.345  0.0340 -0.0410  0.0145
  368POPI    C2 5816  10.686   8.798  10.419  0.2711  0.0172 -0.0003
  368POPI    C3 5817  10.308   8.891  10.327  0.1879 -0.1984  0.1168
  368POPI   PO4 5818  10.744   9.264  10.146  0.0026 -0.0472 -0.1051
  368POPI   GL1 5819  10.967   9.370   9.785  0.1091 -0.2271 -0.0868
  368POPI   GL2 5820  11.069   9.117   9.794  0.2349  0.2077 -0.1069
  368POPI   C1A 5821  10.916   9.469   9.275 -0.0394  0.1845  0.0328
  368POPI   D2A 5822  10.917   9.297   8.877 -0.1069 -0.0594 -0.2089
  368POPI   C3A 5823  10.986   8.958   8.620  0.2515  0.1864  0.0406
  368POPI   C4A 5824  11.186   8.656   8.374 -0.0064 -0.0446  0.2521
  368POPI   C1B 5825  10.786   9.005   9.469 -0.2381  0.0315 -0.0287
  368POPI   C2B 5826  10.784   8.745   9.126 -0.1601 -0.1430  0.0321
  368POPI   C3B 5827  11.080   8.495   8.846 -0.0946  0.1011  0.2114
  368POPI   C4B 5828  11.046   8.112   8.814  0.0829 -0.0256  0.0404
  369POPI    C1 5829  11.957   0.786  10.611  0.0409 -0.1166 -0.3406
  369POPI    C2 5830  11.814   1.114  10.790 -0.0735 -0.2744 -0.1389
  369POPI    C3 5831  12.203   1.026  10.816 -0.0410 -0.1506 -0.2014
  369POPI   PO4 5832  11.833   0.821  10.385  0.0509  0.0696  0.1777
  369POPI   GL1 5833  11.807   0.933   9.975  0.0272 -0.6042  0.1039
  369POPI   GL2 5834  11.910   1.185   9.829  0.1278  0.2488 -0.1187
  369POPI   C1A 5835  11.559   1.053   9.505 -0.1307 -0.1423 -0.1297
  369POPI   D2A 5836  11.601   1.229   9.150 -0.0346 -0.3429 -0.1051
  369POPI   C3A 5837  11.412   1.113   8.847  0.0730  0.0235  0.1431
  369POPI   C4A 5838  11.136   1.024   8.475 -0.1336 -0.3776 -0.1941
  369POPI   C1B 5839  12.006   1.205   9.396 -0.4516 -0.0248  0.0759
  369POPI   C2B 5840  12.055   1.290   9.002 -0.0152  0.0980 -0.1792
  369POPI   C3B 5841  12.051   1.282   8.519 -0.2853 -0.1978 -0.1789
  369POPI   C4B 5842  11.664   1.127   8.439  0.0514  0.0465  0.2170
  370POPI    C1 5843  14.667  12.669  10.499  0.0900  0.1038 -0.1633
  370POPI    C2 5844  14.601  12.279  10.439 -0.0971  0.0950  0.0842
  370POPI    C3 5845  14.918  12.398  10.651 -0.1523  0.0671  0.1828
  370POPI   PO4 5846  14.751  12.816  10.267 -0.0144  0.0423 -0.0412
  370POPI   GL1 5847  14.687  13.108   9.944 -0.0885  0.1512  0.1249
  370POPI   GL2 5848  14.404  12.968   9.849 -0.1663 -0.0246  0.0305
  370POPI   C1A 5849  14.718  13.316   9.554 -0.2788  0.0764  0.0130
  370POPI   D2A 5850  14.882  13.359   9.193 -0.0191  0.3491  0.1166
  370POPI   C3A 5851  14.606  13.315   8.849 -0.1549 -0.0938 -0.0229
  370POPI   C4A 5852  14.740  13.152   8.497  0.0192 -0.1826 -0.2118
  370POPI   C1B 5853  14.301  13.026   9.397 -0.0326  0.0803 -0.0982
  370POPI   C2B 5854  14.229  13.053   8.958 -0.1513  0.0863  0.2085
  370POPI   C3B 5855  14.165  12.919   8.593  0.0823  0.3046  0.0833
  370POPI   C4B 5856  14.236  12.735   8.213  0.0431 -0.0635  0.0893
  371POPI    C1 5857   9.643  11.021  10.500 -0.0455  0.0260 -0.0627
  371POPI    C2 5858  10.012  10.902  10.399 -0.0054  0.1239 -0.0325
  371POPI    C3 5859   9.922  10.973  10.783 -0.0943 -0.0305 -0.0236
  371POPI   PO4 5860   9.552  11.151  10.220  0.1208  0.0186 -0.1090
  371POPI   GL1 5861   9.619  11.090   9.832 -0.1197 -0.1474 -0.0142
  371POPI   GL2 5862   9.568  10.785   9.768 -0.0920 -0.1653  0.0965
  371POPI   C1A 5863   9.679  11.503   9.592  0.0117  0.1008 -0.0826
  371POPI   D2A 5864   9.565  11.822   9.275 -0.1439 -0.2920  0.2527
  371POPI   C3A 5865   9.563  11.732   8.830  0.1643  0.3344  0.0068
  371POPI   C4A 5866   9.521  11.992   8.449 -0.1488 -0.3319  0.0065
  371POPI   C1B 5867   9.421  10.973   9.417  0.1138 -0.1245  0.1374
  371POPI   C2B 5868   9.301  11.102   8.927  0.1163  0.1027 -0.0391
  371POPI   C3B 5869   9.600  11.198   8.606 -0.1034 -0.0502  0.1131
  371POPI   C4B 5870   9.876  11.154   8.295  0.3063  0.0176  0.3041
  372POPI    C1 5871   3.287  17.277  10.029  0.1098  0.1828 -0.1391
  372POPI    C2 5872   2.907  17.367   9.942 -0.0206 -0.0276  0.1932
  372POPI    C3 5873   3.047  17.427  10.312  0.2429 -0.0423  0.0982
  372POPI   PO4 5874   3.317  17.031   9.956 -0.0060 -0.0668 -0.1068
  372POPI   GL1 5875   3.509  16.856   9.688  0.2924  0.2164  0.1847
  372POPI   GL2 5876   3.773  17.017   9.494  0.2329 -0.0252 -0.2197
  372POPI   C1A 5877   3.451  16.686   9.260  0.0494  0.0980 -0.0115
  372POPI   D2A 5878   3.472  16.798   8.784  0.2919  0.0465 -0.2347
  372POPI   C3A 5879   3.159  17.027   8.531 -0.1436 -0.1158  0.0976
  372POPI   C4A 5880   3.168  17.036   8.174 -0.0901  0.1993 -0.3441
  372POPI   C1B 5881   3.618  17.139   9.095  0.1069 -0.2969  0.2323
  372POPI   C2B 5882   3.427  17.336   8.734  0.2052 -0.1429 -0.2071
  372POPI   C3B 5883   3.408  17.527   8.353  0.1797  0.1178 -0.0996
  372POPI   C4B 5884   3.557  17.715   7.945  0.1642 -0.4314 -0.0093
  373POPI    C1 5885  16.283   0.299  10.199 -0.0793  0.0956 -0.2509
  373POPI    C2 5886  15.962   0.329  10.436  0.1219  0.1520  0.0196
  373POPI    C3 5887  16.236   0.046  10.505 -0.1048 -0.2129 -0.5040
  373POPI   PO4 5888  16.224   0.521  10.028 -0.0789 -0.2352 -0.0147
  373POPI   GL1 5889  16.012   0.522   9.669  0.1615 -0.1590  0.0936
  373POPI   GL2 5890  15.623   0.499   9.570 -0.1801  0.2630 -0.4917
  373POPI   C1A 5891  16.340   0.390   9.260  0.0975 -0.1049  0.1782
  373POPI   D2A 5892  16.611   0.568   8.965  0.2239 -0.1941  0.0699
  373POPI   C3A 5893  16.469   0.762   8.564  0.0019  0.1489 -0.0846
  373POPI   C4A 5894  16.419   0.988   8.406  0.1906  0.3231  0.1097
  373POPI   C1B 5895  15.861   0.608   9.184 -0.1473 -0.1426 -0.0371
  373POPI   C2B 5896  16.073   0.597   8.815 -0.0171 -0.1105  0.1186
  373POPI   C3B 5897  15.948   0.659   8.481 -0.1557  0.2888 -0.0747
  373POPI   C4B 5898  16.070   0.692   8.033 -0.1820  0.0080  0.0780
  374POPI    C1 5899  16.922   7.286  10.713  0.0219 -0.1519 -0.1217
  374POPI    C2 5900  16.733   7.168  11.046  0.0707 -0.0546 -0.0587
  374POPI    C3 5901  16.615   7.499  10.856  0.2755  0.0940  0.0687
  374POPI   PO4 5902  16.979   7.108  10.558  0.0211  0.1100  0.0005
  374POPI   GL1 5903  16.808   6.934  10.160 -0.0202 -0.1364  0.1218
  374POPI   GL2 5904  16.944   6.610  10.197  0.1429 -0.0508 -0.0127
  374POPI   C1A 5905  16.942   7.165   9.751 -0.0578  0.3967  0.0351
  374POPI   D2A 5906  16.961   7.291   9.367 -0.0702  0.2056 -0.3931
  374POPI   C3A 5907  17.206   7.719   9.300  0.0677  0.1542 -0.1422
  374POPI   C4A 5908  17.492   8.020   9.458 -0.0380 -0.1127  0.0384
  374POPI   C1B 5909  17.065   6.690   9.752  0.0425  0.1104 -0.1142
  374POPI   C2B 5910  16.794   6.842   9.447  0.3133  0.1006  0.0114
  374POPI   C3B 5911  16.723   6.967   9.020 -0.0230  0.0786  0.0994
  374POPI   C4B 5912  16.812   7.236   8.732 -0.0543  0.2513 -0.1360
  375POPI    C1 5913  16.011   3.001  10.317 -0.1663 -0.0537  0.1150
  375POPI    C2 5914  16.361   2.816  10.262 -0.0315  0.3162 -0.3406
  375POPI    C3 5915  16.290   3.013  10.603  0.0990  0.0243 -0.1412
  375POPI   PO4 5916  15.972   3.202  10.122  0.0595  0.1236  0.0045
  375POPI   GL1 5917  15.982   3.470   9.766 -0.0716  0.0313 -0.0713
  375POPI   GL2 5918  16.090   3.830   9.735 -0.0694 -0.1537  0.2180
  375POPI   C1A 5919  16.041   3.213   9.458 -0.1438 -0.2099 -0.0090
  375POPI   D2A 5920  15.602   2.997   9.452 -0.1138  0.1336  0.0736
  375POPI   C3A 5921  15.558   2.576   9.555  0.0235  0.1829  0.0453
  375POPI   C4A 5922  15.193   2.315   9.618 -0.2963  0.1257 -0.1919
  375POPI   C1B 5923  16.014   3.689   9.285  0.1837 -0.3153 -0.1019
  375POPI   C2B 5924  16.014   3.396   8.951 -0.1247 -0.0837 -0.0122
  375POPI   C3B 5925  15.719   3.175   8.744  0.2098  0.1438 -0.1072
  375POPI   C4B 5926  15.530   2.944   8.968  0.1408  0.0362  0.1943
  376POPI    C1 5927  13.806   3.775  10.716  0.0158  0.0409 -0.0041
  376POPI    C2 5928  13.459   3.731  10.909 -0.0396  0.2762 -0.0468
  376POPI    C3 5929  13.788   3.835  11.111  0.1356 -0.4788  0.0875
  376POPI   PO4 5930  13.754   3.834  10.415 -0.2372  0.1500  0.2309
  376POPI   GL1 5931  13.751   4.012   9.999  0.1397 -0.0899  0.0170
  376POPI   GL2 5932  14.091   3.955  10.056  0.1748  0.2081  0.0741
  376POPI   C1A 5933  13.536   3.817   9.624  0.1333 -0.1812 -0.1868
  376POPI   D2A 5934  13.238   3.533   9.388  0.0029  0.3627  0.1553
  376POPI   C3A 5935  13.281   3.514   8.964 -0.1451  0.1051  0.1251
  376POPI   C4A 5936  13.050   3.743   8.659 -0.0154 -0.2491 -0.0458
  376POPI   C1B 5937  14.094   3.866   9.684  0.1327 -0.2403 -0.1810
  376POPI   C2B 5938  14.100   3.774   9.315 -0.2441 -0.0469 -0.2888
  376POPI   C3B 5939  14.062   3.660   8.922 -0.2360  0.0573 -0.0938
  376POPI   C4B 5940  14.266   3.554   8.567  0.2888  0.0394  0.0451
  377POPI    C1 5941   7.007   2.194  10.295  0.1867 -0.1434 -0.1466
  377POPI    C2 5942   6.648   2.206  10.472  0.1874 -0.2495 -0.1375
  377POPI    C3 5943   6.981   2.204  10.694  0.2025  0.1303 -0.1509
  377POPI   PO4 5944   6.956   2.399  10.127 -0.0023  0.3532  0.0654
  377POPI   GL1 5945   6.722   2.516   9.835 -0.0310  0.0932  0.1406
  377POPI   GL2 5946   6.821   2.858  10.038  0.1691 -0.1129  0.2843
  377POPI   C1A 5947   6.513   2.575   9.493 -0.0039  0.1372 -0.2365
  377POPI   D2A 5948   6.607   2.786   9.104  0.2220 -0.0292 -0.2864
  377POPI   C3A 5949   6.530   2.673   8.774 -0.0645 -0.0410 -0.3865
  377POPI   C4A 5950   6.609   2.765   8.381 -0.1330 -0.2536 -0.1750
  377POPI   C1B 5951   6.781   2.971   9.571 -0.0822  0.1122  0.1663
  377POPI   C2B 5952   7.017   3.007   9.228 -0.2661  0.0176  0.0635
  377POPI   C3B 5953   7.010   2.932   8.793  0.1327 -0.0782  0.2221
  377POPI   C4B 5954   7.179   2.936   8.368 -0.0608 -0.0613 -0.0157
  378POPI    C1 5955   3.688  11.479  10.083 -0.1076 -0.0773  0.1048
  378POPI    C2 5956   3.754  11.426  10.474 -0.0379 -0.1102  0.0889
  378POPI    C3 5957   3.422  11.612  10.350  0.0092  0.0293  0.1694
  378POPI   PO4 5958   3.900  11.347   9.978 -0.3471  0.2505  0.0354
  378POPI   GL1 5959   4.011  11.271   9.595 -0.2027 -0.2268  0.0230
  378POPI   GL2 5960   3.556  11.252   9.590 -0.1185 -0.0712  0.2055
  378POPI   C1A 5961   3.875  11.522   9.188  0.2578  0.1992 -0.1110
  378POPI   D2A 5962   3.677  11.614   8.782  0.1039  0.1611 -0.0374
  378POPI   C3A 5963   3.364  11.508   8.463  0.2869  0.3089 -0.1191
  378POPI   C4A 5964   3.423  11.295   8.006 -0.3569 -0.0573  0.1733
  378POPI   C1B 5965   3.636  11.115   9.144  0.1670 -0.0446 -0.1976
  378POPI   C2B 5966   3.558  11.115   8.746 -0.2861 -0.1346 -0.0763
  378POPI   C3B 5967   3.337  10.966   8.389  0.0946 -0.0250 -0.1958
  378POPI   C4B 5968   3.076  10.648   8.138  0.0560 -0.0125  0.1447
  379POPI    C1 5969  12.514   6.466  10.546  0.0653 -0.2066  0.0522
  379POPI    C2 5970  12.767   6.650  10.794 -0.0834  0.2736 -0.1406
  379POPI    C3 5971  12.422   6.503  10.933  0.1205 -0.0354  0.0499
  379POPI   PO4 5972  12.556   6.646  10.318 -0.2439  0.1464 -0.3424
  379POPI   GL1 5973  12.631   6.856   9.932 -0.1936 -0.1215  0.3643
  379POPI   GL2 5974  12.961   6.840   9.868  0.0463 -0.1607  0.0589
  379POPI   C1A 5975  12.593   6.560   9.577 -0.1214  0.1431  0.0373
  379POPI   D2A 5976  12.307   6.363   9.430  0.4842 -0.1242  0.0826
  379POPI   C3A 5977  11.978   6.608   9.273  0.2224  0.0891  0.4038
  379POPI   C4A 5978  11.756   6.944   9.307 -0.3204  0.1597 -0.1566
  379POPI   C1B 5979  12.799   6.974   9.453  0.2210 -0.1443 -0.0923
  379POPI   C2B 5980  12.914   6.894   9.088  0.1022 -0.1584 -0.1724
  379POPI   C3B 5981  12.934   6.727   8.558 -0.1985 -0.1462  0.1447
  379POPI   C4B 5982  12.820   6.962   8.180  0.1476 -0.0601  0.2552
  380POPI    C1 5983  14.398  10.580  10.562  0.0377  0.3284 -0.1226
  380POPI    C2 5984  14.652  10.349  10.768 -0.2264  0.0660 -0.0830
  380POPI    C3 5985  14.496  10.676  10.937 -0.2228  0.0076  0.0337
  380POPI   PO4 5986  14.499  10.608  10.372  0.3663  0.2158 -0.0354
  380POPI   GL1 5987  14.399  10.595   9.946  0.2852 -0.1032 -0.2437
  380POPI   GL2 5988  14.592  10.991  10.045 -0.2000  0.1158  0.0194
  380POPI   C1A 5989  14.127  10.943   9.747  0.1703  0.2789 -0.0319
  380POPI   D2A 5990  13.808  11.169   9.440 -0.1721  0.2971  0.2510
  380POPI   C3A 5991  13.379  11.091   9.438 -0.0504 -0.4039 -0.2601
  380POPI   C4A 5992  13.008  11.185   9.301  0.2177 -0.1218 -0.3173
  380POPI   C1B 5993  14.570  11.118   9.614 -0.1548 -0.2308  0.0105
  380POPI   C2B 5994  14.500  11.146   9.090  0.1384 -0.0894 -0.1866
  380POPI   C3B 5995  14.680  11.066   8.673 -0.0153 -0.0666 -0.3324
  380POPI   C4B 5996  14.688  11.239   8.259  0.0583 -0.1847  0.0210
  381POPI    C1 5997  13.045   9.752  10.697 -0.0590  0.1692  0.0209
  381POPI    C2 5998  13.000   9.752  11.094  0.2765 -0.1394  0.0638
  381POPI    C3 5999  12.723   9.581  10.862  0.1048 -0.0035  0.1660
  381POPI   PO4 6000  13.213   9.677  10.607  0.1246 -0.0782 -0.0106
  381POPI   GL1 6001  13.212   9.635  10.220  0.1078  0.0660 -0.3089
  381POPI   GL2 6002  13.535   9.586  10.240 -0.0021  0.1299 -0.0598
  381POPI   C1A 6003  13.222   9.365   9.881 -0.1170  0.1662  0.0511
  381POPI   D2A 6004  13.251   9.223   9.448  0.0813 -0.0191 -0.0206
  381POPI   C3A 6005  13.210   9.251   8.987  0.1440  0.1512 -0.1771
  381POPI   C4A 6006  13.315   9.243   8.550 -0.1425 -0.1764 -0.1115
  381POPI   C1B 6007  13.726   9.288  10.022  0.1280  0.1275 -0.0249
  381POPI   C2B 6008  13.766   9.346   9.612 -0.0357  0.3437  0.0222
  381POPI   C3B 6009  13.813   9.331   9.189 -0.0058 -0.0550 -0.1167
  381POPI   C4B 6010  13.699   9.504   8.833 -0.0633 -0.0672 -0.2074
  382POPI    C1 6011   1.381  16.829  10.531 -0.0359  0.0206 -0.0298
  382POPI    C2 6012   0.984  16.874  10.513 -0.0269  0.1890  0.1586
  382POPI    C3 6013   1.206  17.137  10.716  0.1907  0.1437 -0.0167
  382POPI   PO4 6014   1.356  16.670  10.240 -0.1393  0.0791  0.3438
  382POPI   GL1 6015   1.216  16.988   9.918  0.1750 -0.0557 -0.0493
  382POPI   GL2 6016   0.944  16.707   9.924  0.2308 -0.3674  0.0102
  382POPI   C1A 6017   1.238  16.871   9.522 -0.0978 -0.2823  0.0023
  382POPI   D2A 6018   1.484  17.055   9.186  0.1581  0.1902  0.0261
  382POPI   C3A 6019   1.488  17.096   8.796 -0.2769  0.3417 -0.2183
  382POPI   C4A 6020   1.328  17.076   8.483 -0.3393 -0.0455 -0.0080
  382POPI   C1B 6021   0.845  16.519   9.579  0.0328  0.0867  0.3160
  382POPI   C2B 6022   0.881  16.582   9.138 -0.0717 -0.3960 -0.0242
  382POPI   C3B 6023   0.755  16.473   8.792  0.0840 -0.3947  0.0331
  382POPI   C4B 6024   0.541  16.420   8.510  0.2535  0.0007 -0.0413
  383POPI    C1 6025   4.880  13.807  10.004  0.1546 -0.2608  0.1340
  383POPI    C2 6026   4.692  13.889  10.347 -0.0052 -0.1885  0.0305
  383POPI    C3 6027   5.057  14.037  10.278 -0.0239 -0.1007  0.1174
  383POPI   PO4 6028   4.865  13.499   9.942 -0.2475 -0.1663 -0.0999
  383POPI   GL1 6029   4.548  13.373   9.728  0.0838 -0.1383  0.0059
  383POPI   GL2 6030   4.568  13.679   9.515  0.1672  0.0417  0.0322
  383POPI   C1A 6031   4.782  13.251   9.241  0.0749  0.1080 -0.1613
  383POPI   D2A 6032   4.697  13.225   8.821  0.3029  0.1117 -0.2073
  383POPI   C3A 6033   4.513  13.247   8.467  0.4655  0.1073  0.0301
  383POPI   C4A 6034   4.432  13.044   8.058  0.0338  0.0447 -0.1699
  383POPI   C1B 6035   4.607  13.833   9.075 -0.2616 -0.0301 -0.0677
  383POPI   C2B 6036   4.507  13.839   8.678 -0.0968 -0.0552 -0.0211
  383POPI   C3B 6037   4.284  13.704   8.310 -0.1060  0.4273 -0.2771
  383POPI   C4B 6038   4.082  13.442   8.043  0.1706  0.0570  0.2305
  384POPI    C1 6039  14.771  13.283  10.471  0.1020 -0.0159  0.1025
  384POPI    C2 6040  14.893  13.360  10.843 -0.1028  0.0570  0.1561
  384POPI    C3 6041  14.563  13.143  10.783  0.0022 -0.0650  0.0149
  384POPI   PO4 6042  14.873  13.506  10.330  0.1737 -0.0988  0.3230
  384POPI   GL1 6043  14.681  13.727  10.005 -0.2275  0.4733  0.2310
  384POPI   GL2 6044  14.423  13.542  10.065  0.1020 -0.1204 -0.0612
  384POPI   C1A 6045  14.806  13.780   9.673  0.0522  0.0572  0.0016
  384POPI   D2A 6046  15.165  13.661   9.431 -0.0361 -0.0043 -0.0028
  384POPI   C3A 6047  15.242  13.575   8.978 -0.0825  0.2789  0.3568
  384POPI   C4A 6048  15.272  13.268   8.775  0.0826 -0.1483 -0.3663
  384POPI   C1B 6049  14.284  13.529   9.675  0.1185 -0.0234  0.2323
  384POPI   C2B 6050  14.224  13.509   9.215 -0.1070 -0.3299 -0.1128
  384POPI   C3B 6051  14.112  13.515   8.751  0.1620 -0.3045  0.0934
  384POPI   C4B 6052  14.391  13.597   8.336  0.2257 -0.2625 -0.2964
  385POPI    C1 6053  12.628   9.997  10.445  0.0859  0.0027 -0.0638
  385POPI    C2 6054  12.792  10.131  10.784  0.0527  0.1115 -0.0906
  385POPI    C3 6055  12.429  10.259  10.673  0.0408  0.0351 -0.1398
  385POPI   PO4 6056  12.731   9.859  10.329  0.2837  0.2871  0.1994
  385POPI   GL1 6057  12.575   9.724   9.969  0.2371 -0.1092 -0.1423
  385POPI   GL2 6058  12.781   9.547   9.946 -0.2768  0.2367  0.0843
  385POPI   C1A 6059  12.450   9.862   9.623  0.1399 -0.0069 -0.0834
  385POPI   D2A 6060  12.478   9.695   9.200 -0.2135 -0.0208  0.0776
  385POPI   C3A 6061  12.370   9.340   9.023 -0.1099  0.2065  0.0575
  385POPI   C4A 6062  12.181   9.046   8.871  0.1508  0.1269  0.1441
  385POPI   C1B 6063  12.901   9.603   9.600  0.1095  0.0346  0.0680
  385POPI   C2B 6064  12.933   9.611   9.140 -0.0325 -0.0703  0.4125
  385POPI   C3B 6065  12.896   9.509   8.678  0.2763  0.1986  0.1089
  385POPI   C4B 6066  12.660   9.505   8.304 -0.0657 -0.2284 -0.0348
  386POPI    C1 6067   2.340  16.557  10.358  0.1247 -0.1259 -0.1229
  386POPI    C2 6068   2.046  16.670  10.604  0.2733 -0.0864  0.0386
  386POPI    C3 6069   2.168  16.289  10.600  0.1595 -0.1222 -0.0937
  386POPI   PO4 6070   2.384  16.851  10.254  0.2813 -0.1564  0.0371
  386POPI   GL1 6071   2.568  16.991   9.895  0.0299  0.1375  0.2639
  386POPI   GL2 6072   2.690  16.738   9.843  0.0059  0.4811 -0.1316
  386POPI   C1A 6073   2.189  17.071   9.651 -0.1324  0.1138 -0.0237
  386POPI   D2A 6074   1.960  17.064   9.221 -0.1195 -0.2364 -0.0513
  386POPI   C3A 6075   1.981  17.094   8.739 -0.0246 -0.0743  0.0637
  386POPI   C4A 6076   1.808  17.087   8.350  0.1369  0.3307  0.0238
  386POPI   C1B 6077   2.470  16.612   9.497  0.0066  0.0390  0.0582
  386POPI   C2B 6078   2.412  16.393   9.091 -0.0181 -0.2234  0.3355
  386POPI   C3B 6079   2.205  16.177   8.663 -0.0312  0.2149  0.0249
  386POPI   C4B 6080   1.967  16.042   8.370  0.0219 -0.2556 -0.2788
  387POPI    C1 6081  15.280  12.791  10.375  0.1270  0.0977  0.0740
  387POPI    C2 6082  15.145  13.102  10.163  0.1147  0.0993  0.0841
  387POPI    C3 6083  15.295  13.160  10.529 -0.2805  0.0423  0.2604
  387POPI   PO4 6084  15.431  12.690  10.248 -0.2767 -0.1334 -0.0506
  387POPI   GL1 6085  15.649  12.795   9.930 -0.0508  0.2689 -0.2536
  387POPI   GL2 6086  15.906  12.628   9.868 -0.3214 -0.1823  0.0047
  387POPI   C1A 6087  15.504  12.785   9.508  0.0516  0.3097  0.1591
  387POPI   D2A 6088  15.451  12.468   9.211 -0.1094 -0.0468 -0.0695
  387POPI   C3A 6089  15.127  12.377   9.315 -0.1486 -0.0554  0.0307
  387POPI   C4A 6090  14.945  12.263   9.642 -0.1837  0.3589 -0.3730
  387POPI   C1B 6091  16.263  12.752   9.642  0.1041 -0.0515  0.0187
  387POPI   C2B 6092  16.311  12.669   9.174 -0.2762  0.2636 -0.0454
  387POPI   C3B 6093  16.301  12.613   8.794 -0.2417 -0.1560  0.1817
  387POPI   C4B 6094  16.308  12.578   8.421  0.1665 -0.1932  0.0710
  388POPI    C1 6095  13.371  15.434  10.334 -0.1172  0.1005  0.1264
  388POPI    C2 6096  13.656  15.542  10.593  0.0237 -0.0996  0.0572
  388POPI    C3 6097  13.462  15.196  10.642  0.0337 -0.1267 -0.0907
  388POPI   PO4 6098  13.554  15.617  10.132  0.0395  0.0401  0.2108
  388POPI   GL1 6099  13.449  15.801   9.750 -0.0868  0.0311  0.0612
  388POPI   GL2 6100  13.175  15.894   9.562  0.0533  0.1051 -0.1718
  388POPI   C1A 6101  13.693  15.411   9.502  0.1316  0.1446  0.1175
  388POPI   D2A 6102  13.708  15.383   9.063  0.1168  0.0880 -0.0911
  388POPI   C3A 6103  14.082  15.546   8.723 -0.3702  0.6007 -0.1333
  388POPI   C4A 6104  14.246  15.663   8.358  0.1026 -0.0727  0.0713
  388POPI   C1B 6105  13.385  15.707   9.254 -0.0289  0.0017 -0.1091
  388POPI   C2B 6106  13.304  15.587   8.911  0.0071 -0.0972  0.0902
  388POPI   C3B 6107  13.235  15.515   8.581 -0.0974 -0.1961 -0.1677
  388POPI   C4B 6108  13.127  15.339   8.108 -0.1001 -0.1052  0.1464
  389POPI    C1 6109   0.190   1.802  10.325  0.1894 -0.2123  0.0965
  389POPI    C2 6110   0.472   2.051  10.191  0.0241 -0.0836 -0.0167
  389POPI    C3 6111   0.243   2.157  10.502  0.0338 -0.1454  0.0116
  389POPI   PO4 6112   0.174   1.558  10.133  0.1315  0.1966 -0.2756
  389POPI   GL1 6113   0.353   1.403   9.644  0.2129 -0.1772  0.3711
  389POPI   GL2 6114   0.078   1.317   9.646 -0.1683 -0.2131  0.2447
  389POPI   C1A 6115   0.542   1.595   9.291  0.1634 -0.0519  0.3886
  389POPI   D2A 6116   0.434   1.564   8.851  0.0752 -0.2752 -0.1859
  389POPI   C3A 6117   0.144   1.699   8.612  0.2370 -0.0070  0.0581
  389POPI   C4A 6118   0.203   1.764   8.147  0.0725 -0.0156  0.0153
  389POPI   C1B 6119   0.088   1.390   9.187  0.0314  0.0037 -0.1832
  389POPI   C2B 6120  -0.029   1.258   8.815 -0.0292  0.0059 -0.2069
  389POPI   C3B 6121   0.093   1.155   8.406  0.0321 -0.2235  0.1502
  389POPI   C4B 6122   0.102   1.318   8.024 -0.0252  0.0635  0.0646
  390POPI    C1 6123  16.039  12.180  10.115  0.1068 -0.3429  0.0077
  390POPI    C2 6124  15.655  12.244  10.207  0.1962  0.0228  0.1418
  390POPI    C3 6125  15.893  12.049  10.463  0.1362 -0.0750  0.1232
  390POPI   PO4 6126  16.050  12.044   9.944  0.2507  0.2659 -0.0712
  390POPI   GL1 6127  16.093  12.147   9.572  0.0132  0.0062  0.0360
  390POPI   GL2 6128  15.972  12.381   9.447  0.0176 -0.1484 -0.2902
  390POPI   C1A 6129  16.195  12.103   9.074 -0.1343 -0.0303  0.2394
  390POPI   D2A 6130  16.257  12.141   8.621  0.2499 -0.1506  0.1837
  390POPI   C3A 6131  15.866  12.113   8.414  0.0937  0.0841  0.0979
  390POPI   C4A 6132  15.554  12.341   8.483 -0.2131 -0.0246 -0.3795
  390POPI   C1B 6133  15.875  12.425   8.967  0.0209 -0.0654 -0.0383
  390POPI   C2B 6134  15.838  12.726   8.643  0.0571  0.2130 -0.0320
  390POPI   C3B 6135  15.978  12.918   8.317 -0.0256 -0.0839 -0.1734
  390POPI   C4B 6136  15.840  13.157   8.037  0.1464  0.5779 -0.0824
  391POPI    C1 6137  16.926  12.388   9.980  0.0163  0.2196  0.1593
  391POPI    C2 6138  16.984  12.440  10.372 -0.1126  0.0033  0.2086
  391POPI    C3 6139  16.930  12.072  10.225 -0.1023  0.0871 -0.0075
  391POPI   PO4 6140  17.054  12.532   9.862 -0.1117  0.0290 -0.3294
  391POPI   GL1 6141  17.192  12.945   9.797  0.1101 -0.1156  0.2467
  391POPI   GL2 6142  17.550  12.843   9.823 -0.0096  0.0945 -0.0068
  391POPI   C1A 6143  17.074  13.268   9.499  0.0450  0.1703  0.0363
  391POPI   D2A 6144  17.189  13.200   8.973  0.2623 -0.1789 -0.1471
  391POPI   C3A 6145  16.905  13.028   8.609 -0.0420  0.3202  0.1011
  391POPI   C4A 6146  16.740  12.726   8.176 -0.3361 -0.1598 -0.1987
  391POPI   C1B 6147  17.461  12.966   9.405  0.1258  0.1242  0.1420
  391POPI   C2B 6148  17.528  12.769   8.971 -0.4643 -0.0579 -0.1398
  391POPI   C3B 6149  17.704  12.616   8.582 -0.1075  0.0231 -0.2836
  391POPI   C4B 6150  17.522  12.305   8.349 -0.1483  0.2693  0.2016
  392POPI    C1 6151  16.863  11.557  10.392  0.1630  0.0728  0.2825
  392POPI    C2 6152  16.503  11.463  10.540  0.1333 -0.3034 -0.0158
  392POPI    C3 6153  16.743  11.712  10.741 -0.2954 -0.0387  0.1807
  392POPI   PO4 6154  16.809  11.586  10.101 -0.2154 -0.3344  0.0525
  392POPI   GL1 6155  16.701  11.312   9.701  0.3178  0.0622 -0.0261
  392POPI   GL2 6156  16.342  11.252   9.619  0.1333  0.0394 -0.0813
  392POPI   C1A 6157  16.790  10.917   9.538 -0.2028 -0.0781  0.0101
  392POPI   D2A 6158  16.665  10.509   9.284 -0.0487  0.0495 -0.4150
  392POPI   C3A 6159  16.682  10.528   8.715  0.2708  0.1655 -0.2631
  392POPI   C4A 6160  16.554  10.515   8.301  0.0626  0.2113  0.1412
  392POPI   C1B 6161  16.405  11.157   9.224  0.1767  0.1659 -0.1033
  392POPI   C2B 6162  16.759  10.918   9.019 -0.2575  0.1236 -0.0864
  392POPI   C3B 6163  17.134  10.803   8.707  0.2504 -0.0699  0.0442
  392POPI   C4B 6164  17.488  10.677   8.504 -0.1092  0.1028 -0.0344
  393POPI    C1 6165   5.086   0.157  10.392  0.0273  0.0268  0.1930
  393POPI    C2 6166   5.474   0.061  10.400 -0.0375 -0.2603  0.0194
  393POPI    C3 6167   5.196  -0.227  10.384 -0.2450 -0.0493 -0.2969
  393POPI   PO4 6168   5.082   0.278  10.207  0.0539 -0.4422  0.1448
  393POPI   GL1 6169   4.985   0.106   9.862 -0.0026 -0.0783  0.0877
  393POPI   GL2 6170   5.275   0.036   9.850 -0.0070  0.0444 -0.1097
  393POPI   C1A 6171   5.146   0.288   9.418 -0.0207 -0.0264 -0.0771
  393POPI   D2A 6172   5.071   0.396   8.948 -0.2429 -0.0040 -0.0197
  393POPI   C3A 6173   5.386   0.385   8.766 -0.1032  0.0681  0.1071
  393POPI   C4A 6174   5.655   0.002   8.622  0.0298  0.0994  0.0427
  393POPI   C1B 6175   5.557  -0.071   9.472  0.2299 -0.1182  0.0052
  393POPI   C2B 6176   5.706   0.055   9.170  0.1203 -0.3215  0.1314
  393POPI   C3B 6177   6.152   0.147   8.962 -0.0617  0.3631 -0.2074
  393POPI   C4B 6178   6.395   0.477   8.761 -0.2441  0.0490  0.2950
  394POPI    C1 6179  16.820   4.222  10.408 -0.1887  0.0730  0.1040
  394POPI    C2 6180  16.930   3.851  10.511  0.0631  0.1397  0.0813
  394POPI    C3 6181  16.725   4.078  10.769 -0.1888 -0.0526  0.0546
  394POPI   PO4 6182  16.900   4.224  10.153  0.1105  0.1323 -0.2181
  394POPI   GL1 6183  17.188   4.079   9.901 -0.0061  0.1389 -0.4972
  394POPI   GL2 6184  17.004   3.809   9.784  0.1823  0.1611  0.0641
  394POPI   C1A 6185  17.064   4.258   9.499 -0.0185 -0.1531  0.0544
  394POPI   D2A 6186  17.039   4.448   9.093  0.0715 -0.1909 -0.0063
  394POPI   C3A 6187  16.526   4.469   9.027  0.0698 -0.0982  0.0426
  394POPI   C4A 6188  16.258   4.342   8.627  0.0301 -0.1812 -0.1328
  394POPI   C1B 6189  16.880   3.810   9.369  0.1842 -0.1225  0.1314
  394POPI   C2B 6190  16.751   3.975   8.994  0.0168 -0.1979 -0.2249
  394POPI   C3B 6191  16.543   3.957   8.597 -0.0462 -0.0111 -0.2019
  394POPI   C4B 6192  16.548   4.224   8.173  0.2601  0.0173  0.0508
  395POPI    C1 6193   8.163   4.068  10.524  0.0107 -0.1504  0.2381
  395POPI    C2 6194   8.440   4.180  10.791 -0.0461  0.1206  0.1859
  395POPI    C3 6195   8.066   4.321  10.819 -0.0820  0.0577  0.0322
  395POPI   PO4 6196   8.170   4.070  10.226  0.1590 -0.3359 -0.1085
  395POPI   GL1 6197   7.884   4.051   9.851  0.0930 -0.0181  0.0754
  395POPI   GL2 6198   7.623   4.222   9.820  0.0886  0.0437 -0.0679
  395POPI   C1A 6199   8.127   4.238   9.449 -0.0171  0.2613 -0.0694
  395POPI   D2A 6200   8.379   4.683   9.366 -0.1563  0.1688  0.1197
  395POPI   C3A 6201   8.744   4.650   9.122  0.0887  0.1923 -0.2354
  395POPI   C4A 6202   9.235   4.811   9.092 -0.0807  0.0401 -0.0033
  395POPI   C1B 6203   7.335   4.473   9.641 -0.2737 -0.4204 -0.4325
  395POPI   C2B 6204   7.262   4.529   9.213  0.3079 -0.2272 -0.1394
  395POPI   C3B 6205   7.362   4.558   8.773  0.0912 -0.1023  0.0630
  395POPI   C4B 6206   7.427   4.481   8.323 -0.0594  0.1657 -0.1554
  396POPI    C1 6207  14.108  15.994  10.583 -0.0166 -0.3937 -0.0044
  396POPI    C2 6208  14.017  15.828  10.936 -0.0615  0.0013  0.1755
  396POPI    C3 6209  14.203  16.182  10.924  0.0604 -0.0712 -0.1997
  396POPI   PO4 6210  14.146  15.756  10.418 -0.2232  0.2947  0.2144
  396POPI   GL1 6211  14.001  15.732   9.967  0.0348 -0.1451 -0.0639
  396POPI   GL2 6212  13.961  15.897   9.722  0.3357 -0.3658 -0.1694
  396POPI   C1A 6213  14.198  15.451   9.696  0.0107 -0.0432 -0.0754
  396POPI   D2A 6214  14.450  15.104   9.683 -0.1300 -0.1322 -0.1010
  396POPI   C3A 6215  14.876  15.203   9.574  0.1970  0.1512 -0.0108
  396POPI   C4A 6216  15.029  14.959   9.320  0.0564 -0.0684  0.0187
  396POPI   C1B 6217  13.975  15.804   9.317 -0.3599 -0.0496  0.1340
  396POPI   C2B 6218  13.826  15.893   8.984 -0.1158 -0.0689 -0.2907
  396POPI   C3B 6219  13.675  15.768   8.609 -0.1791  0.1057 -0.1557
  396POPI   C4B 6220  13.336  15.808   8.217  0.0457  0.1563  0.2727
  397POPI    C1 6221   1.568   5.667  10.442 -0.1208  0.0374 -0.0857
  397POPI    C2 6222   1.774   5.429  10.688  0.0658  0.3439  0.0617
  397POPI    C3 6223   1.968   5.683  10.448 -0.1207  0.1561 -0.2959
  397POPI   PO4 6224   1.477   5.886  10.553 -0.2681 -0.0011  0.1963
  397POPI   GL1 6225   1.565   6.119  10.163  0.0847  0.0936  0.0576
  397POPI   GL2 6226   1.242   6.292  10.189  0.1046  0.0998  0.0081
  397POPI   C1A 6227   1.805   5.891   9.839 -0.1431  0.1832 -0.1098
  397POPI   D2A 6228   2.050   5.966   9.418 -0.2036  0.2052  0.1587
  397POPI   C3A 6229   2.454   5.776   9.427 -0.2117 -0.3734  0.1898
  397POPI   C4A 6230   2.507   5.659   9.050  0.2746 -0.0108 -0.2482
  397POPI   C1B 6231   0.965   6.314   9.916 -0.1743 -0.0628  0.2033
  397POPI   C2B 6232   0.855   6.143   9.560 -0.2014  0.0906  0.3486
  397POPI   C3B 6233   0.857   6.040   9.129 -0.4247 -0.0709  0.0719
  397POPI   C4B 6234   1.086   5.801   8.786  0.0754 -0.0800  0.3213
  398POPI    C1 6235   2.352   5.831  10.792  0.1480  0.3617 -0.1675
  398POPI    C2 6236   2.243   5.833  11.177  0.0058  0.2694 -0.2069
  398POPI    C3 6237   2.566   5.627  11.062 -0.0184  0.2022 -0.1550
  398POPI   PO4 6238   2.268   6.082  10.675 -0.0498  0.0534 -0.0273
  398POPI   GL1 6239   2.194   6.054  10.196 -0.1912  0.0721 -0.3887
  398POPI   GL2 6240   2.397   5.795  10.220 -0.0688  0.0369  0.0746
  398POPI   C1A 6241   2.309   6.132   9.847 -0.1549  0.3341  0.1018
  398POPI   D2A 6242   2.310   6.324   9.553  0.2418 -0.0505  0.1050
  398POPI   C3A 6243   2.394   6.257   9.080 -0.0359 -0.0470 -0.2048
  398POPI   C4A 6244   2.580   6.083   8.681  0.1838 -0.1478 -0.1582
  398POPI   C1B 6245   2.700   5.752   9.810 -0.1612  0.1998 -0.3365
  398POPI   C2B 6246   2.920   5.564   9.389  0.0779  0.2530 -0.1902
  398POPI   C3B 6247   2.908   5.267   9.050  0.0404  0.0286  0.2475
  398POPI   C4B 6248   3.182   5.294   8.664  0.0694  0.0660 -0.3792
  399POPI    C1 6249  12.841  15.599  10.333 -0.0283 -0.0523  0.1268
  399POPI    C2 6250  12.710  15.921  10.531 -0.1258 -0.0682  0.0891
  399POPI    C3 6251  12.802  15.587  10.731  0.0931  0.0216  0.1413
  399POPI   PO4 6252  12.602  15.674  10.086  0.0164 -0.2559 -0.2468
  399POPI   GL1 6253  12.451  15.365   9.830  0.1883  0.0185 -0.0987
  399POPI   GL2 6254  12.558  14.986   9.748  0.0149 -0.0188  0.0933
  399POPI   C1A 6255  12.260  15.231   9.421  0.0243 -0.2883  0.0378
  399POPI   D2A 6256  11.890  15.390   9.121  0.1971 -0.1063 -0.1169
  399POPI   C3A 6257  11.918  15.439   8.641  0.0876 -0.0454 -0.1946
  399POPI   C4A 6258  11.961  15.602   8.245  0.0920  0.3530  0.0016
  399POPI   C1B 6259  12.719  14.885   9.439  0.1522 -0.0372 -0.1011
  399POPI   C2B 6260  12.752  14.832   8.950  0.0779 -0.0325  0.0160
  399POPI   C3B 6261  12.710  14.873   8.501  0.1445  0.1119  0.1641
  399POPI   C4B 6262  12.668  14.998   8.033  0.2062  0.0633  0.0825
  400POPI    C1 6263   7.610   4.353  10.551 -0.1167  0.0419  0.1166
  400POPI    C2 6264   7.405   4.696  10.550  0.2097  0.2423 -0.0611
  400POPI    C3 6265   7.699   4.640  10.814  0.1344  0.0830 -0.0097
  400POPI   PO4 6266   7.709   4.321  10.270  0.1160 -0.0693  0.2345
  400POPI   GL1 6267   7.649   4.727  10.090 -0.2310  0.0884  0.1699
  400POPI   GL2 6268   7.629   5.035   9.796 -0.1481 -0.1951 -0.2504
  400POPI   C1A 6269   7.886   4.624   9.651  0.0906 -0.2430  0.0599
  400POPI   D2A 6270   7.727   4.589   9.237 -0.3919  0.2156 -0.0915
  400POPI   C3A 6271   7.919   4.388   8.903 -0.1304 -0.1892 -0.0074
  400POPI   C4A 6272   7.788   4.265   8.588  0.0083 -0.0173 -0.1930
  400POPI   C1B 6273   7.500   4.993   9.433 -0.0664 -0.0817 -0.1476
  400POPI   C2B 6274   7.374   5.030   9.004  0.1661 -0.1793  0.1143
  400POPI   C3B 6275   7.203   5.299   8.658 -0.1604 -0.2301  0.3418
  400POPI   C4B 6276   7.262   5.682   8.433 -0.0228  0.1282 -0.1328
  401POPI    C1 6277  15.484  10.157  10.611 -0.0803  0.0210  0.0515
  401POPI    C2 6278  15.882  10.182  10.581 -0.0810  0.1190  0.1198
  401POPI    C3 6279  15.681  10.446  10.805 -0.1724 -0.0052  0.1852
  401POPI   PO4 6280  15.397  10.065  10.361 -0.1301 -0.1263 -0.2008
  401POPI   GL1 6281  15.005   9.983  10.108 -0.2174  0.1335  0.0670
  401POPI   GL2 6282  14.674  10.062  10.091 -0.1213  0.0630  0.0933
  401POPI   C1A 6283  15.227   9.902   9.755 -0.1810  0.0513  0.3571
  401POPI   D2A 6284  15.220  10.036   9.309 -0.1733  0.0015 -0.0591
  401POPI   C3A 6285  15.213   9.895   8.877 -0.4582 -0.0599  0.2375
  401POPI   C4A 6286  15.228   9.866   8.335  0.0916 -0.1288 -0.2454
  401POPI   C1B 6287  14.829  10.150   9.580 -0.2569  0.1079  0.1179
  401POPI   C2B 6288  14.815  10.373   9.192 -0.3153 -0.0520  0.2090
  401POPI   C3B 6289  14.891  10.371   8.660  0.3209 -0.0504  0.1805
  401POPI   C4B 6290  14.798  10.172   8.226  0.0994 -0.0691  0.1568
  402POPI    C1 6291   4.241   3.052  10.444  0.1016  0.1350 -0.0414
  402POPI    C2 6292   3.944   3.317  10.476  0.0312  0.0466  0.0461
  402POPI    C3 6293   3.880   2.933  10.569  0.2291  0.0660  0.2719
  402POPI   PO4 6294   4.369   3.130  10.326 -0.0619  0.2608  0.0884
  402POPI   GL1 6295   4.449   3.197   9.892 -0.1439  0.0948 -0.2841
  402POPI   GL2 6296   4.409   2.935   9.865  0.4148  0.2017 -0.0151
  402POPI   C1A 6297   4.212   3.322   9.538  0.1499  0.2595  0.1011
  402POPI   D2A 6298   4.185   3.340   9.112 -0.1224  0.1888  0.2704
  402POPI   C3A 6299   3.980   3.376   8.646  0.1555  0.1859 -0.0517
  402POPI   C4A 6300   3.662   3.535   8.449 -0.1756 -0.1358 -0.0623
  402POPI   C1B 6301   4.342   2.825   9.455  0.1362  0.0864 -0.0996
  402POPI   C2B 6302   4.290   2.760   9.036  0.1660 -0.1877  0.1453
  402POPI   C3B 6303   4.157   2.932   8.706  0.3200 -0.0189  0.2059
  402POPI   C4B 6304   3.882   3.077   8.315  0.0773 -0.0116  0.0590
  403POPI    C1 6305   3.801  13.773   9.974 -0.2043 -0.0649 -0.0057
  403POPI    C2 6306   3.608  14.123   9.955 -0.2223 -0.0663  0.1386
  403POPI    C3 6307   3.643  13.932  10.305  0.0071 -0.0850  0.1070
  403POPI   PO4 6308   3.625  13.509   9.834  0.2219  0.0824  0.2979
  403POPI   GL1 6309   3.840  13.373   9.532 -0.2715 -0.2894 -0.1868
  403POPI   GL2 6310   4.059  13.672   9.547 -0.0776  0.3670 -0.1315
  403POPI   C1A 6311   3.754  13.255   9.084 -0.0571 -0.2006  0.1569
  403POPI   D2A 6312   3.352  13.215   8.775 -0.1346 -0.1308 -0.1825
  403POPI   C3A 6313   3.344  12.850   8.418 -0.0128  0.1178  0.2207
  403POPI   C4A 6314   3.326  12.697   7.995 -0.1077  0.2516 -0.0828
  403POPI   C1B 6315   4.103  13.898   9.148  0.0065 -0.0884  0.2339
  403POPI   C2B 6316   4.106  14.056   8.677 -0.4543 -0.0589  0.0511
  403POPI   C3B 6317   4.206  14.169   8.329  0.0955 -0.3463 -0.1111
  403POPI   C4B 6318   4.492  14.201   7.965  0.0700 -0.2074  0.1018
  404POPI    C1 6319  13.259  16.440  10.292  0.0823 -0.1492 -0.1177
  404POPI    C2 6320  12.914  16.601  10.414  0.1520 -0.0957  0.0105
  404POPI    C3 6321  13.077  16.297  10.617  0.2319 -0.0538  0.0096
  404POPI   PO4 6322  13.176  16.484  10.013 -0.3199 -0.0891  0.1350
  404POPI   GL1 6323  13.409  16.382   9.509  0.0051 -0.1128 -0.0404
  404POPI   GL2 6324  13.609  16.131   9.367 -0.1553 -0.1891  0.1882
  404POPI   C1A 6325  13.487  16.621   9.156  0.1004  0.2177  0.2659
  404POPI   D2A 6326  13.481  16.617   8.760 -0.2079 -0.0430 -0.0863
  404POPI   C3A 6327  13.298  16.681   8.439  0.2052  0.0798  0.1264
  404POPI   C4A 6328  12.853  16.818   8.258  0.2182  0.4436 -0.1199
  404POPI   C1B 6329  13.385  16.112   8.983  0.1080 -0.1321 -0.1246
  404POPI   C2B 6330  13.333  16.161   8.557 -0.0879 -0.2065 -0.3526
  404POPI   C3B 6331  13.088  16.303   8.150  0.3074  0.2232  0.4242
  404POPI   C4B 6332  12.795  16.470   7.848 -0.2763 -0.0072  0.3870
  405POPI    C1 6333   2.982   9.812  10.654  0.2284 -0.2449 -0.0950
  405POPI    C2 6334   3.036  10.027  10.321 -0.3710  0.1568  0.0495
  405POPI    C3 6335   3.117  10.188  10.678  0.0756 -0.2014  0.1191
  405POPI   PO4 6336   2.947   9.530  10.520 -0.1158 -0.1428  0.3543
  405POPI   GL1 6337   2.973   9.495  10.077  0.1338 -0.0879  0.0227
  405POPI   GL2 6338   3.278   9.660  10.082 -0.0929 -0.1062  0.2086
  405POPI   C1A 6339   2.631   9.659   9.871 -0.1808 -0.1972 -0.0144
  405POPI   D2A 6340   2.537   9.527   9.425  0.3366  0.0006  0.2007
  405POPI   C3A 6341   2.588   9.606   9.120 -0.1081 -0.3024 -0.0293
  405POPI   C4A 6342   2.362   9.876   8.889 -0.2745  0.2041 -0.0047
  405POPI   C1B 6343   3.066   9.711   9.639  0.1136  0.0890 -0.0745
  405POPI   C2B 6344   3.041   9.755   9.202 -0.0406  0.2992 -0.1230
  405POPI   C3B 6345   3.283   9.724   8.883  0.0998  0.0384 -0.4427
  405POPI   C4B 6346   3.283   9.506   8.474  0.2446 -0.1185 -0.0025
  406POPI    C1 6347   4.180  12.765  10.208  0.1968 -0.1120  0.1029
  406POPI    C2 6348   4.103  13.092  10.425 -0.1527 -0.0144 -0.1579
  406POPI    C3 6349   4.069  12.730  10.591 -0.0139  0.0704  0.0610
  406POPI   PO4 6350   4.097  12.804   9.941 -0.2912 -0.0489  0.0247
  406POPI   GL1 6351   4.256  13.013   9.594 -0.0974  0.4691  0.0589
  406POPI   GL2 6352   4.459  12.918   9.452  0.1249 -0.0322 -0.0390
  406POPI   C1A 6353   4.280  13.290   9.193 -0.0059 -0.0264  0.0301
  406POPI   D2A 6354   4.119  13.449   8.749 -0.1579 -0.1714  0.0930
  406POPI   C3A 6355   3.765  13.213   8.454 -0.2487  0.0010  0.3204
  406POPI   C4A 6356   3.468  13.248   8.096  0.1195 -0.2553  0.0644
  406POPI   C1B 6357   4.769  12.743   9.196  0.1227  0.0290  0.2842
  406POPI   C2B 6358   4.760  12.769   8.677 -0.2316 -0.1037 -0.1996
  406POPI   C3B 6359   4.818  12.812   8.250  0.0056  0.1620  0.1719
  406POPI   C4B 6360   4.910  12.851   7.809 -0.1422  0.0350 -0.1460
  407POPI    C1 6361  15.606   7.188  10.488 -0.1779  0.0052 -0.0861
  407POPI    C2 6362  15.580   7.217  10.886  0.2517 -0.1146 -0.0442
  407POPI    C3 6363  15.580   7.547  10.661 -0.0575 -0.0492  0.0476
  407POPI   PO4 6364  15.419   6.974  10.384  0.0144 -0.3980  0.0739
  407POPI   GL1 6365  15.164   6.942  10.126 -0.2551  0.0827  0.1483
  407POPI   GL2 6366  15.209   7.092   9.895  0.0426  0.0370 -0.1078
  407POPI   C1A 6367  15.299   6.638   9.730 -0.2044 -0.1337  0.0036
  407POPI   D2A 6368  15.307   6.787   9.192 -0.2473 -0.1116  0.1393
  407POPI   C3A 6369  15.414   6.793   8.813  0.1852 -0.0071  0.1182
  407POPI   C4A 6370  15.526   6.581   8.540 -0.1878  0.0607 -0.4842
  407POPI   C1B 6371  15.211   7.174   9.518 -0.1976  0.0155 -0.2901
  407POPI   C2B 6372  15.073   7.251   9.128  0.1105 -0.0029 -0.0585
  407POPI   C3B 6373  14.950   7.497   8.751 -0.1077  0.0462  0.0561
  407POPI   C4B 6374  15.217   7.590   8.402  0.1031 -0.0520 -0.2219
  408POPI    C1 6375   5.257   9.771  10.440  0.0874 -0.1031  0.0176
  408POPI    C2 6376   5.630   9.697  10.564  0.0095 -0.0415  0.2948
  408POPI    C3 6377   5.326   9.687  10.825 -0.1675  0.0261  0.0942
  408POPI   PO4 6378   5.265  10.005  10.267 -0.2390  0.0703 -0.2720
  408POPI   GL1 6379   5.075  10.077   9.942 -0.1469 -0.0822  0.2655
  408POPI   GL2 6380   5.382  10.266   9.767  0.1755 -0.0425  0.0310
  408POPI   C1A 6381   4.933  10.154   9.520 -0.1583  0.1882  0.0625
  408POPI   D2A 6382   4.893  10.039   9.107  0.0169  0.2747  0.2069
  408POPI   C3A 6383   4.811  10.124   8.689  0.0728 -0.0982  0.3023
  408POPI   C4A 6384   4.742  10.496   8.386  0.1535  0.0201 -0.0941
  408POPI   C1B 6385   5.448  10.291   9.334 -0.0680 -0.2382  0.1395
  408POPI   C2B 6386   5.575  10.197   8.857 -0.4038  0.0433  0.2571
  408POPI   C3B 6387   5.811  10.469   8.557  0.0929  0.1182 -0.1823
  408POPI   C4B 6388   6.038  10.628   8.299  0.1337  0.0267 -0.1518
  409POPI    C1 6389  14.901   7.450  10.242  0.0133 -0.2208  0.1624
  409POPI    C2 6390  15.299   7.462  10.205 -0.0021  0.0171  0.0573
  409POPI    C3 6391  15.134   7.359  10.554  0.1551  0.3979  0.2508
  409POPI   PO4 6392  14.689   7.644  10.073  0.0411 -0.2167 -0.0329
  409POPI   GL1 6393  14.310   7.958   9.996 -0.1005  0.2691  0.1717
  409POPI   GL2 6394  14.513   8.109   9.825 -0.0854  0.1214 -0.0138
  409POPI   C1A 6395  14.276   7.665   9.504 -0.1718  0.0302 -0.1239
  409POPI   D2A 6396  14.427   7.700   9.134  0.3516 -0.0753  0.0982
  409POPI   C3A 6397  14.361   7.705   8.726 -0.1940 -0.4687  0.0167
  409POPI   C4A 6398  14.291   7.591   8.302 -0.0801  0.0699 -0.1701
  409POPI   C1B 6399  14.377   8.120   9.380  0.0120  0.0834  0.2300
  409POPI   C2B 6400  14.358   8.209   8.919 -0.3106 -0.2622  0.1134
  409POPI   C3B 6401  14.389   8.266   8.508  0.0448 -0.2915  0.1277
  409POPI   C4B 6402  14.461   8.028   8.030  0.0396  0.0834 -0.1839
  410POPI    C1 6403  10.337   2.584  10.841 -0.1475 -0.1168  0.0157
  410POPI    C2 6404  10.347   2.184  10.844 -0.2098 -0.1187  0.2847
  410POPI    C3 6405  10.562   2.391  11.110 -0.1429  0.0295  0.1178
  410POPI   PO4 6406  10.379   2.701  10.513  0.1533 -0.2253 -0.0410
  410POPI   GL1 6407  10.372   2.934  10.107  0.0625  0.0418  0.2318
  410POPI   GL2 6408  10.163   3.048   9.925  0.0731  0.1198 -0.0641
  410POPI   C1A 6409  10.325   2.640   9.702  0.2404  0.2104 -0.1487
  410POPI   D2A 6410  10.459   2.480   9.384 -0.0315 -0.1667 -0.3182
  410POPI   C3A 6411  10.417   2.546   8.962 -0.0046 -0.1255 -0.0284
  410POPI   C4A 6412  10.467   2.380   8.582  0.0979 -0.1568  0.0021
  410POPI   C1B 6413  10.353   3.279   9.675 -0.0148  0.0990 -0.1129
  410POPI   C2B 6414  10.583   3.374   9.268  0.0809  0.1102  0.1645
  410POPI   C3B 6415  10.633   3.329   8.763 -0.1857 -0.2775 -0.0407
  410POPI   C4B 6416  10.635   3.284   8.308  0.2400  0.0781 -0.2863
  411POPI    C1 6417   0.692  10.269  10.734 -0.0381  0.0311 -0.1158
  411POPI    C2 6418   0.342  10.251  10.926 -0.0880 -0.1871 -0.2236
  411POPI    C3 6419   0.675  10.345  11.126 -0.2044  0.0056 -0.1173
  411POPI   PO4 6420   0.633  10.116  10.522  0.1758  0.2408 -0.3047
  411POPI   GL1 6421   0.568   9.930  10.178 -0.1466 -0.1480  0.0692
  411POPI   GL2 6422   0.500  10.240  10.065  0.1270  0.1469  0.1271
  411POPI   C1A 6423   0.357   9.758   9.837  0.1049 -0.0916 -0.1482
  411POPI   D2A 6424   0.307   9.441   9.582  0.0276  0.0021  0.0300
  411POPI   C3A 6425   0.559   9.290   9.267  0.0844  0.0382 -0.2302
  411POPI   C4A 6426   0.595   9.330   8.874 -0.1723  0.2642 -0.1283
  411POPI   C1B 6427   0.328  10.222   9.632  0.0967 -0.1126 -0.2371
  411POPI   C2B 6428   0.283   9.886   9.312 -0.1293  0.0725 -0.1456
  411POPI   C3B 6429   0.123   9.509   9.042  0.0449 -0.2818  0.1410
  411POPI   C4B 6430   0.137   9.082   8.755 -0.2434 -0.2223 -0.1724
  412POPI    C1 6431   2.624  12.043  10.175  0.0632 -0.0446  0.1662
  412POPI    C2 6432   2.289  11.844  10.085  0.0491  0.1118 -0.1412
  412POPI    C3 6433   2.295  12.095  10.396 -0.0452 -0.0744  0.0133
  412POPI   PO4 6434   2.701  12.094   9.920  0.0815  0.0146  0.1887
  412POPI   GL1 6435   2.523  12.282   9.567  0.0915  0.0667  0.2538
  412POPI   GL2 6436   2.311  11.959   9.618 -0.2076 -0.2234  0.0501
  412POPI   C1A 6437   2.515  12.212   9.228 -0.1368  0.0690  0.2015
  412POPI   D2A 6438   2.417  11.888   9.048 -0.0954  0.0318 -0.0320
  412POPI   C3A 6439   2.417  11.812   8.610 -0.0779 -0.0501  0.1167
  412POPI   C4A 6440   2.214  11.684   8.169  0.1337  0.3741 -0.0480
  412POPI   C1B 6441   1.991  12.048   9.254 -0.0092 -0.4391 -0.3424
  412POPI   C2B 6442   1.833  11.971   8.919 -0.0413 -0.0541  0.1326
  412POPI   C3B 6443   1.807  11.981   8.411 -0.1646 -0.0838 -0.2092
  412POPI   C4B 6444   1.869  12.388   8.214  0.0490  0.2289 -0.2321
  413POPI    C1 6445  16.021  10.884  10.731 -0.2066  0.0645  0.0447
  413POPI    C2 6446  16.084  11.183  10.988 -0.0208  0.0265  0.0449
  413POPI    C3 6447  16.182  10.809  11.090  0.1740  0.0287 -0.1282
  413POPI   PO4 6448  16.091  11.035  10.465  0.0572 -0.0095  0.0583
  413POPI   GL1 6449  15.842  11.145  10.104  0.1312  0.1238 -0.1442
  413POPI   GL2 6450  15.908  11.193   9.845  0.0023 -0.2336 -0.0519
  413POPI   C1A 6451  15.498  10.877   9.759 -0.5234 -0.2564 -0.0312
  413POPI   D2A 6452  15.289  10.978   9.293  0.1226  0.0241  0.2309
  413POPI   C3A 6453  14.886  10.874   9.180 -0.1553  0.0127 -0.0961
  413POPI   C4A 6454  14.493  10.659   8.924  0.1691  0.0538  0.1275
  413POPI   C1B 6455  15.844  11.113   9.361 -0.0423 -0.0241  0.0306
  413POPI   C2B 6456  16.017  11.075   8.976  0.0275 -0.0998  0.0777
  413POPI   C3B 6457  16.314  11.015   8.645 -0.0141 -0.2170  0.1624
  413POPI   C4B 6458  16.567  11.076   8.241 -0.0983  0.0290  0.0452
  414POPI    C1 6459   2.719  10.707  10.247  0.1471 -0.0155  0.0083
  414POPI    C2 6460   2.732  11.019  10.496  0.0174  0.0590 -0.0769
  414POPI    C3 6461   2.804  11.072  10.106  0.1313 -0.0418 -0.0701
  414POPI   PO4 6462   2.793  10.480  10.314 -0.2473 -0.1061 -0.2369
  414POPI   GL1 6463   2.720  10.162   9.933  0.1661  0.1970  0.0757
  414POPI   GL2 6464   2.523  10.376   9.870  0.0477 -0.0842  0.2815
  414POPI   C1A 6465   2.716  10.082   9.455 -0.2512 -0.2771  0.0318
  414POPI   D2A 6466   2.288   9.987   9.401  0.0284  0.2697  0.0235
  414POPI   C3A 6467   1.975  10.179   9.088  0.1628 -0.2337 -0.4087
  414POPI   C4A 6468   1.956  10.626   8.988  0.3551  0.1158  0.2048
  414POPI   C1B 6469   2.330  10.476   9.458 -0.0820  0.3478 -0.1643
  414POPI   C2B 6470   2.474  10.391   9.092  0.1361 -0.2277 -0.1734
  414POPI   C3B 6471   2.870  10.275   9.001 -0.2345  0.0414  0.1496
  414POPI   C4B 6472   3.314  10.234   8.988  0.0670  0.0870  0.0641
  415POPI    C1 6473  10.313   7.649  10.661 -0.2145  0.0532  0.2029
  415POPI    C2 6474  10.477   7.825  10.981  0.0151  0.2062  0.0039
  415POPI    C3 6475  10.642   7.872  10.619 -0.2973  0.1144 -0.1543
  415POPI   PO4 6476  10.178   7.345  10.714 -0.1655  0.2625 -0.1004
  415POPI   GL1 6477  10.065   7.153  10.372 -0.1184  0.0181  0.1079
  415POPI   GL2 6478  10.031   7.492  10.161 -0.3089 -0.1233 -0.0602
  415POPI   C1A 6479  10.495   7.126  10.193 -0.0414  0.0963 -0.0764
  415POPI   D2A 6480  10.844   7.074   9.943 -0.3392 -0.2384  0.0677
  415POPI   C3A 6481  10.748   6.818   9.638 -0.1204  0.1700 -0.2921
  415POPI   C4A 6482  10.701   6.614   9.242  0.0527  0.1032  0.0375
  415POPI   C1B 6483  10.315   7.426   9.789  0.1603  0.0374 -0.3485
  415POPI   C2B 6484  10.345   7.460   9.456  0.0017 -0.0872  0.2627
  415POPI   C3B 6485  10.245   7.433   9.088 -0.0566  0.0854 -0.1228
  415POPI   C4B 6486  10.272   7.501   8.679 -0.1356  0.1296  0.1083
  416POPI    C1 6487   1.436  11.478  10.430 -0.0344 -0.1086  0.1049
  416POPI    C2 6488   1.498  11.707  10.107 -0.1354 -0.3293 -0.0739
  416POPI    C3 6489   1.151  11.729  10.306 -0.0176 -0.0870  0.1100
  416POPI   PO4 6490   1.659  11.295  10.277  0.0120 -0.0149 -0.2085
  416POPI   GL1 6491   1.952  11.113   9.930 -0.0744 -0.2613  0.1615
  416POPI   GL2 6492   1.899  11.478   9.851  0.0960 -0.1955  0.0321
  416POPI   C1A 6493   2.163  11.027   9.531 -0.0593  0.2083  0.2735
  416POPI   D2A 6494   2.214  11.021   9.112  0.3137  0.1474 -0.0202
  416POPI   C3A 6495   2.483  11.259   8.815  0.0500 -0.1753 -0.0367
  416POPI   C4A 6496   2.667  11.436   8.403 -0.0830  0.3292  0.2797
  416POPI   C1B 6497   1.703  11.284   9.534 -0.3652 -0.0126  0.2001
  416POPI   C2B 6498   1.753  11.214   9.151 -0.1410 -0.2836  0.1164
  416POPI   C3B 6499   1.911  11.087   8.715  0.0568  0.1027 -0.1083
  416POPI   C4B 6500   2.122  11.272   8.401  0.1720 -0.0721 -0.0261
  417POPI    C1 6501  17.431   2.450  10.155  0.0089  0.1225 -0.0202
  417POPI    C2 6502  17.249   2.743  10.358 -0.0005  0.0094  0.1372
  417POPI    C3 6503  17.360   2.409  10.547  0.1459 -0.0267 -0.0100
  417POPI   PO4 6504  17.224   2.452   9.940 -0.0562 -0.0124  0.0542
  417POPI   GL1 6505  17.142   2.423   9.507 -0.1349  0.2777 -0.0737
  417POPI   GL2 6506  17.414   2.493   9.429 -0.2898 -0.1023  0.4755
  417POPI   C1A 6507  17.042   2.788   9.134  0.0187  0.1810 -0.0036
  417POPI   D2A 6508  17.177   2.805   8.802 -0.0942 -0.0747  0.3879
  417POPI   C3A 6509  17.379   3.113   8.643  0.0078  0.0963  0.0212
  417POPI   C4A 6510  17.217   3.406   8.309 -0.1052 -0.1116 -0.4475
  417POPI   C1B 6511  17.746   2.282   9.198 -0.1299  0.1755  0.1085
  417POPI   C2B 6512  17.870   2.225   8.751 -0.1455  0.1724  0.1491
  417POPI   C3B 6513  17.842   2.296   8.332  0.1271 -0.1930  0.0331
  417POPI   C4B 6514  18.132   2.232   7.995 -0.1901 -0.0686 -0.2611
  418POPI    C1 6515   3.174  16.505   9.862  0.0700 -0.0338  0.0599
  418POPI    C2 6516   3.553  16.399   9.936  0.0477 -0.0379  0.1699
  418POPI    C3 6517   3.342  16.596  10.213  0.0355  0.1488  0.0306
  418POPI   PO4 6518   3.082  16.284   9.736 -0.2635  0.1580  0.0265
  418POPI   GL1 6519   3.355  16.164   9.401 -0.1483  0.1106 -0.0993
  418POPI   GL2 6520   3.116  15.883   9.354 -0.1608 -0.1663 -0.1923
  418POPI   C1A 6521   3.471  16.255   9.010  0.0154 -0.0412 -0.0193
  418POPI   D2A 6522   3.439  16.251   8.627  0.2198  0.1499 -0.1429
  418POPI   C3A 6523   3.254  16.286   8.186 -0.1102  0.0333  0.1305
  418POPI   C4A 6524   3.123  16.470   7.912  0.0700  0.0901 -0.2371
  418POPI   C1B 6525   3.295  15.801   8.960  0.0597 -0.1413 -0.0914
  418POPI   C2B 6526   3.321  15.707   8.590 -0.1349 -0.1525 -0.0187
  418POPI   C3B 6527   3.311  15.772   8.121 -0.0435  0.0061 -0.4131
  418POPI   C4B 6528   3.561  15.650   7.756  0.0226  0.0818 -0.2471
  419POPI    C1 6529   8.315   7.560  10.726  0.1424  0.0877 -0.0918
  419POPI    C2 6530   8.039   7.839  10.803  0.1858  0.1719 -0.2378
  419POPI    C3 6531   8.256   7.686  11.101  0.1012  0.2304 -0.1456
  419POPI   PO4 6532   8.374   7.557  10.470  0.2773 -0.0999  0.4053
  419POPI   GL1 6533   8.644   7.510  10.085  0.0603  0.0921 -0.1759
  419POPI   GL2 6534   8.998   7.583  10.010  0.0554  0.0059 -0.0835
  419POPI   C1A 6535   8.626   7.164   9.866  0.0834 -0.1039 -0.2521
  419POPI   D2A 6536   8.458   6.969   9.501 -0.1458  0.0740 -0.0403
  419POPI   C3A 6537   8.649   7.049   9.127  0.2012  0.2287  0.3263
  419POPI   C4A 6538   8.843   6.985   8.693 -0.0374 -0.1067 -0.1226
  419POPI   C1B 6539   9.220   7.668   9.715  0.0040  0.0583  0.0979
  419POPI   C2B 6540   9.316   7.773   9.257  0.0853 -0.0354  0.0508
  419POPI   C3B 6541   9.225   7.836   8.945 -0.1363 -0.2942  0.1213
  419POPI   C4B 6542   9.096   7.893   8.608 -0.0778 -0.2293  0.1093
  420POPI    C1 6543   8.675   0.520  10.419  0.1398  0.2166  0.2387
  420POPI    C2 6544   8.775   0.260  10.706 -0.1749  0.0359  0.1894
  420POPI    C3 6545   8.790   0.653  10.778  0.0547  0.0000  0.3483
  420POPI   PO4 6546   8.535   0.353  10.236 -0.0322 -0.0006 -0.0722
  420POPI   GL1 6547   8.367   0.308   9.857  0.0576 -0.0718  0.0679
  420POPI   GL2 6548   8.128   0.458   9.910 -0.3978 -0.0861  0.1757
  420POPI   C1A 6549   8.461   0.352   9.432  0.1410  0.0115  0.1119
  420POPI   D2A 6550   8.308   0.544   9.063 -0.2286  0.3066 -0.3718
  420POPI   C3A 6551   8.269   0.359   8.597  0.0057  0.2486 -0.1192
  420POPI   C4A 6552   8.102   0.334   8.175  0.1874 -0.0708 -0.0012
  420POPI   C1B 6553   8.078   0.637   9.548 -0.2380 -0.0258  0.0590
  420POPI   C2B 6554   7.857   0.642   9.280 -0.2506  0.0149  0.1817
  420POPI   C3B 6555   7.924   0.714   8.738 -0.2832  0.1096 -0.2370
  420POPI   C4B 6556   7.993   0.946   8.349  0.2461  0.0295 -0.0458
  421POPI    C1 6557   0.341   8.124  10.784 -0.1488 -0.1373  0.0436
  421POPI    C2 6558   0.522   8.029  11.129 -0.2154 -0.0855  0.0931
  421POPI    C3 6559   0.716   8.245  10.854 -0.1132 -0.2443  0.0391
  421POPI   PO4 6560   0.167   7.859  10.716  0.2414 -0.1023  0.0290
  421POPI   GL1 6561   0.047   7.656  10.316 -0.0702 -0.0271 -0.1579
  421POPI   GL2 6562   0.357   7.669  10.278 -0.2490  0.0557 -0.1227
  421POPI   C1A 6563  -0.102   7.397   9.973 -0.2238  0.0253  0.0277
  421POPI   D2A 6564  -0.048   7.153   9.617  0.0720  0.1740  0.1278
  421POPI   C3A 6565   0.009   7.161   9.199 -0.0180 -0.0211  0.2274
  421POPI   C4A 6566   0.161   7.159   8.884  0.1595  0.1331 -0.2623
  421POPI   C1B 6567   0.415   7.410   9.944 -0.1142  0.1777 -0.0201
  421POPI   C2B 6568   0.470   7.176   9.506 -0.3181  0.0468  0.1197
  421POPI   C3B 6569   0.635   7.018   9.139  0.0277  0.0016  0.2257
  421POPI   C4B 6570   0.645   7.072   8.741  0.1065 -0.1306 -0.0438
  422POPI    C1 6571   1.949  14.546  10.357 -0.1358 -0.1913  0.1269
  422POPI    C2 6572   1.834  14.901  10.502  0.0159 -0.0543 -0.0829
  422POPI    C3 6573   2.105  14.683  10.699  0.1043  0.0590 -0.0783
  422POPI   PO4 6574   2.003  14.578  10.074  0.1475 -0.3243  0.1354
  422POPI   GL1 6575   1.952  14.756   9.609 -0.0577  0.5551  0.0767
  422POPI   GL2 6576   1.645  14.763   9.564  0.1370 -0.0153  0.2152
  422POPI   C1A 6577   2.201  14.660   9.323 -0.0719 -0.4206  0.0623
  422POPI   D2A 6578   2.213  14.624   8.939 -0.0094  0.1046 -0.1559
  422POPI   C3A 6579   2.327  14.353   8.612  0.1334  0.1801  0.0645
  422POPI   C4A 6580   2.224  14.115   8.276  0.2811  0.0135 -0.2449
  422POPI   C1B 6581   1.665  14.752   9.113 -0.2779  0.3824  0.1719
  422POPI   C2B 6582   1.539  14.717   8.665 -0.1646 -0.1361 -0.2241
  422POPI   C3B 6583   1.592  14.844   8.300 -0.0755  0.1529  0.0460
  422POPI   C4B 6584   1.633  14.672   7.872  0.0456 -0.1336 -0.0252
  423DPPI    C1 6585  12.148   2.380  10.389  0.0211  0.2967 -0.1792
  423DPPI    C2 6586  12.529   2.263  10.356 -0.0004  0.1909 -0.0603
  423DPPI    C3 6587  12.419   2.505  10.655 -0.0523  0.1109 -0.0143
  423DPPI   PO4 6588  12.075   2.455  10.199  0.3756  0.0338  0.4484
  423DPPI   GL1 6589  12.117   2.676   9.897  0.0652  0.4279  0.0488
  423DPPI   GL2 6590  12.198   2.441   9.681  0.2505 -0.0482  0.0508
  423DPPI   C1A 6591  11.877   2.830   9.625 -0.1559  0.1124 -0.0403
  423DPPI   C2A 6592  11.738   2.820   9.242 -0.1561  0.1095 -0.1167
  423DPPI   C3A 6593  11.684   2.893   8.802  0.0134  0.0087  0.1184
  423DPPI   C4A 6594  11.649   2.907   8.391 -0.0129  0.1104  0.1015
  423DPPI   C1B 6595  12.188   2.591   9.293  0.1065 -0.1281  0.2234
  423DPPI   C2B 6596  12.144   2.735   8.945 -0.1769  0.2306  0.2266
  423DPPI   C3B 6597  12.105   2.819   8.518  0.1096  0.1931  0.0892
  423DPPI   C4B 6598  12.101   2.930   8.067  0.0427 -0.1331 -0.2189
  424DPPI    C1 6599   1.009   5.609  10.643  0.3327  0.0022 -0.1758
  424DPPI    C2 6600   0.964   5.965  10.466  0.2876  0.1200  0.0685
  424DPPI    C3 6601   1.047   5.945  10.856 -0.1596 -0.1425  0.1575
  424DPPI   PO4 6602   1.162   5.339  10.543 -0.4411 -0.2776  0.0198
  424DPPI   GL1 6603   1.325   5.204  10.211  0.0483 -0.1184 -0.0179
  424DPPI   GL2 6604   0.933   5.298  10.042 -0.1623 -0.1483 -0.1588
  424DPPI   C1A 6605   1.497   5.456   9.869  0.0309  0.0054  0.0405
  424DPPI   C2A 6606   1.608   5.505   9.428  0.0297 -0.1840 -0.2736
  424DPPI   C3A 6607   1.997   5.410   9.268 -0.1522  0.1794  0.0370
  424DPPI   C4A 6608   2.232   5.271   8.808  0.0991  0.1427  0.1848
  424DPPI   C1B 6609   1.048   5.398   9.649 -0.4996 -0.1779 -0.2152
  424DPPI   C2B 6610   1.084   5.523   9.222 -0.1236  0.4224 -0.3370
  424DPPI   C3B 6611   1.033   5.339   8.876  0.0901 -0.2169 -0.0971
  424DPPI   C4B 6612   1.286   5.031   8.550  0.1572 -0.1773  0.1147
  425DPPI    C1 6613   9.699  13.058  10.654  0.1111 -0.1326 -0.1243
  425DPPI    C2 6614   9.349  13.171  10.813  0.1448 -0.0967 -0.0752
  425DPPI    C3 6615   9.671  13.405  10.852  0.1948 -0.1698 -0.0466
  425DPPI   PO4 6616   9.549  12.961  10.394 -0.0469 -0.0759  0.0002
  425DPPI   GL1 6617   9.481  12.637  10.024 -0.0291 -0.2034 -0.1282
  425DPPI   GL2 6618   9.488  12.294   9.976  0.0323  0.1668 -0.1427
  425DPPI   C1A 6619   9.149  12.671   9.755 -0.0575  0.0588 -0.2501
  425DPPI   C2A 6620   9.049  12.619   9.299 -0.1167  0.2719 -0.1383
  425DPPI   C3A 6621   9.187  12.729   8.930  0.3781 -0.0281  0.0980
  425DPPI   C4A 6622   9.281  12.792   8.492  0.1950  0.1697 -0.2020
  425DPPI   C1B 6623   9.692  12.295   9.654  0.4574 -0.1455 -0.0620
  425DPPI   C2B 6624   9.854  12.266   9.286 -0.0602  0.1957  0.2076
  425DPPI   C3B 6625   9.905  12.181   8.917 -0.0532 -0.0818 -0.0192
  425DPPI   C4B 6626  10.011  12.156   8.475  0.1136  0.1121 -0.2848
  426DPPI    C1 6627   7.510  16.293  10.633 -0.0246  0.1476 -0.0742
  426DPPI    C2 6628   7.888  16.370  10.530 -0.0069  0.3671  0.1471
  426DPPI    C3 6629   7.760  16.454  10.900 -0.1944  0.0232  0.1646
  426DPPI   PO4 6630   7.354  16.339  10.408  0.2352 -0.3357  0.1286
  426DPPI   GL1 6631   7.445  16.176  10.083  0.0325 -0.0492 -0.0257
  426DPPI   GL2 6632   7.695  16.285  10.085  0.0712 -0.2808  0.2270
  426DPPI   C1A 6633   7.088  16.224   9.696  0.0711 -0.2296 -0.1304
  426DPPI   C2A 6634   7.083  16.141   9.287  0.2569  0.0909  0.1127
  426DPPI   C3A 6635   7.268  15.929   8.877 -0.0320 -0.1086 -0.1997
  426DPPI   C4A 6636   7.403  15.834   8.488  0.2921 -0.2083  0.1184
  426DPPI   C1B 6637   7.645  16.122   9.675  0.3254 -0.0699 -0.1089
  426DPPI   C2B 6638   7.604  16.169   9.235  0.0765 -0.0539 -0.0851
  426DPPI   C3B 6639   7.701  16.190   8.824 -0.0901  0.0486  0.0027
  426DPPI   C4B 6640   7.717  16.202   8.368  0.0762 -0.2805 -0.0435
  427DPPI    C1 6641  11.511  12.067  10.633  0.1664 -0.0836  0.1935
  427DPPI    C2 6642  11.515  11.730  10.848  0.0622 -0.0343  0.2731
  427DPPI    C3 6643  11.432  12.079  11.025 -0.1701 -0.0128  0.1267
  427DPPI   PO4 6644  11.319  12.009  10.389 -0.0274 -0.3001  0.1977
  427DPPI   GL1 6645  11.062  11.852  10.090 -0.0071 -0.2812 -0.0362
  427DPPI   GL2 6646  11.053  11.619  10.140  0.1029  0.1304  0.1335
  427DPPI   C1A 6647  11.176  11.804   9.704  0.0398 -0.1227  0.1006
  427DPPI   C2A 6648  11.073  11.746   9.399  0.1857  0.0886  0.0578
  427DPPI   C3A 6649  10.945  11.782   8.960  0.1754 -0.1218 -0.1774
  427DPPI   C4A 6650  11.209  11.675   8.593  0.2365 -0.0015  0.2853
  427DPPI   C1B 6651  10.956  11.328   9.744 -0.0303 -0.1056 -0.0730
  427DPPI   C2B 6652  11.142  11.274   9.345 -0.1688  0.2779  0.0879
  427DPPI   C3B 6653  10.971  11.176   8.944  0.0845 -0.1392 -0.0412
  427DPPI   C4B 6654  10.976  11.262   8.457  0.0057 -0.1781 -0.0493
  428DPPI    C1 6655   1.493   9.684  10.420 -0.1508 -0.0016 -0.0448
  428DPPI    C2 6656   1.504   9.940  10.727  0.0671 -0.0584 -0.0040
  428DPPI    C3 6657   1.285   9.606  10.753 -0.1178  0.0611 -0.0094
  428DPPI   PO4 6658   1.484   9.724  10.225 -0.0295  0.0859 -0.3127
  428DPPI   GL1 6659   1.272   9.860   9.879 -0.1355 -0.1204  0.1907
  428DPPI   GL2 6660   0.971   9.731   9.935 -0.1680  0.2736 -0.2320
  428DPPI   C1A 6661   1.382   9.673   9.581  0.0468 -0.2229 -0.0354
  428DPPI   C2A 6662   1.231   9.589   9.104 -0.0573  0.1466  0.0327
  428DPPI   C3A 6663   1.045   9.516   8.663 -0.0550 -0.0581 -0.1678
  428DPPI   C4A 6664   0.949   9.033   8.464 -0.1535 -0.2642  0.0638
  428DPPI   C1B 6665   0.826   9.808   9.476  0.1523 -0.4987 -0.0070
  428DPPI   C2B 6666   0.684   9.793   9.083 -0.2588 -0.1533  0.0762
  428DPPI   C3B 6667   0.504   9.810   8.688  0.1040  0.0966  0.0526
  428DPPI   C4B 6668   0.480   9.733   8.293  0.0450  0.1971  0.3670
  429DPPI    C1 6669   6.154  10.063  10.218 -0.1080 -0.1138  0.1856
  429DPPI    C2 6670   5.756  10.038  10.188 -0.1050  0.0315  0.0065
  429DPPI    C3 6671   5.924  10.357  10.361 -0.0625  0.0324 -0.0363
  429DPPI   PO4 6672   6.229   9.919  10.016 -0.0724 -0.3429 -0.1846
  429DPPI   GL1 6673   6.089   9.864   9.645  0.1716  0.2632 -0.1340
  429DPPI   GL2 6674   5.827  10.036   9.646  0.0124  0.2810  0.0793
  429DPPI   C1A 6675   6.043   9.574   9.352  0.1276  0.0901  0.2489
  429DPPI   C2A 6676   5.996   9.398   9.010  0.1259  0.0561 -0.1899
  429DPPI   C3A 6677   6.090   9.230   8.639 -0.1079  0.0015  0.1215
  429DPPI   C4A 6678   6.095   9.410   8.289 -0.1324 -0.0324  0.0668
  429DPPI   C1B 6679   5.841  10.034   9.265  0.0731  0.1679 -0.2962
  429DPPI   C2B 6680   6.021   9.968   8.975  0.0972  0.0858  0.1036
  429DPPI   C3B 6681   6.021   9.898   8.574  0.0646 -0.0428  0.2944
  429DPPI   C4B 6682   6.035   9.894   8.125 -0.0242 -0.3180 -0.3260
  430DPPI    C1 6683  15.615  10.716  10.406 -0.0645 -0.2810 -0.0405
  430DPPI    C2 6684  15.364  11.016  10.324  0.1526 -0.0588  0.0960
  430DPPI    C3 6685  15.372  10.856  10.691  0.3508  0.0729  0.1507
  430DPPI   PO4 6686  15.570  10.569  10.296  0.0066 -0.3311 -0.2078
  430DPPI   GL1 6687  15.263  10.418   9.954  0.1751 -0.0804 -0.1588
  430DPPI   GL2 6688  15.048  10.695   9.964 -0.0166 -0.0291  0.0188
  430DPPI   C1A 6689  15.227  10.524   9.498  0.1245 -0.0387 -0.0547
  430DPPI   C2A 6690  15.264  10.503   9.047 -0.1852  0.0669  0.2122
  430DPPI   C3A 6691  15.160  10.874   8.733 -0.3172  0.0047 -0.0815
  430DPPI   C4A 6692  15.266  11.251   8.544  0.1038  0.1772  0.0678
  430DPPI   C1B 6693  14.776  10.648   9.644 -0.2040 -0.2919 -0.2115
  430DPPI   C2B 6694  14.452  10.607   9.414 -0.2164 -0.2642 -0.0358
  430DPPI   C3B 6695  14.147  10.808   9.254  0.1421 -0.1210  0.1723
  430DPPI   C4B 6696  14.032  10.924   8.852 -0.0531  0.0935 -0.3090
  431DPPI    C1 6697   0.427   6.098  10.862 -0.2200  0.0388  0.2250
  431DPPI    C2 6698   0.703   6.259  11.103  0.1142 -0.0291 -0.1020
  431DPPI    C3 6699   0.482   5.950  11.230  0.1355  0.0714  0.1881
  431DPPI   PO4 6700   0.470   6.268  10.624  0.0763  0.0438 -0.0419
  431DPPI   GL1 6701   0.443   6.284  10.154  0.1262 -0.1480 -0.1160
  431DPPI   GL2 6702   0.195   6.498  10.248 -0.1497 -0.0361  0.1755
  431DPPI   C1A 6703   0.318   6.237   9.789 -0.1399 -0.2593  0.0450
  431DPPI   C2A 6704   0.380   6.262   9.258  0.0280  0.2386  0.0388
  431DPPI   C3A 6705   0.433   6.102   8.829  0.0411  0.0823 -0.0097
  431DPPI   C4A 6706   0.842   6.093   8.448 -0.0483 -0.0585  0.1992
  431DPPI   C1B 6707   0.102   6.758   9.851 -0.1640  0.1636  0.1521
  431DPPI   C2B 6708   0.218   6.754   9.337  0.4109  0.1862  0.2840
  431DPPI   C3B 6709   0.299   6.655   8.913 -0.0023  0.0151  0.1981
  431DPPI   C4B 6710   0.520   6.478   8.548 -0.2233 -0.0571  0.4808
  432DPPI    C1 6711   0.650  14.713  10.317  0.0009 -0.1681 -0.0413
  432DPPI    C2 6712   1.027  14.604  10.242 -0.0591 -0.3179 -0.1310
  432DPPI    C3 6713   0.840  14.468  10.569 -0.0365 -0.2440 -0.0868
  432DPPI   PO4 6714   0.730  15.009  10.163 -0.4367 -0.0206 -0.3854
  432DPPI   GL1 6715   0.909  15.026   9.711 -0.1149  0.0017  0.1635
  432DPPI   GL2 6716   1.117  14.867   9.813 -0.0112  0.1103  0.0815
  432DPPI   C1A 6717   0.779  14.854   9.387  0.1068 -0.0069 -0.1508
  432DPPI   C2A 6718   0.763  14.937   8.887 -0.0912 -0.0476 -0.1466
  432DPPI   C3A 6719   0.702  15.013   8.408  0.0866 -0.3012 -0.1577
  432DPPI   C4A 6720   0.746  14.775   8.002  0.1410  0.0902 -0.0862
  432DPPI   C1B 6721   1.200  14.668   9.378  0.2378 -0.1407  0.0628
  432DPPI   C2B 6722   1.141  14.693   9.030 -0.1022 -0.4005  0.0082
  432DPPI   C3B 6723   1.094  14.691   8.556  0.0329 -0.0868 -0.0365
  432DPPI   C4B 6724   1.238  14.471   8.144  0.0604  0.2316 -0.2253
  433DPPI    C1 6725   7.188   7.679  10.408  0.0748 -0.1270 -0.0717
  433DPPI    C2 6726   7.086   7.737  10.790  0.0392 -0.1489 -0.0778
  433DPPI    C3 6727   7.461   7.634  10.697  0.0566 -0.1094 -0.0517
  433DPPI   PO4 6728   6.926   7.792  10.239  0.1053  0.0812  0.2682
  433DPPI   GL1 6729   6.829   7.804   9.877  0.0640  0.2277  0.3060
  433DPPI   GL2 6730   7.109   7.606   9.801 -0.2275  0.1441 -0.1604
  433DPPI   C1A 6731   6.788   7.597   9.368  0.0820  0.1569 -0.0163
  433DPPI   C2A 6732   6.747   7.690   8.921 -0.0343 -0.2153  0.3499
  433DPPI   C3A 6733   6.777   7.736   8.462 -0.0370  0.1558  0.0819
  433DPPI   C4A 6734   6.632   7.441   8.108 -0.1488 -0.1185  0.1991
  433DPPI   C1B 6735   7.055   7.215   9.511 -0.2391 -0.0277  0.2722
  433DPPI   C2B 6736   7.087   6.931   9.159 -0.1673  0.3499  0.1142
  433DPPI   C3B 6737   6.913   6.683   8.881  0.2582 -0.5575 -0.0517
  433DPPI   C4B 6738   6.635   6.528   8.510  0.1305 -0.2091  0.0512
  434DPPI    C1 6739  11.094   9.075  10.500 -0.0513  0.1278 -0.0018
  434DPPI    C2 6740  11.452   9.025  10.672 -0.0661  0.1859  0.0463
  434DPPI    C3 6741  11.264   9.378  10.699 -0.1600  0.1333  0.0840
  434DPPI   PO4 6742  11.174   8.919  10.247  0.1114  0.0296 -0.4819
  434DPPI   GL1 6743  11.187   8.582  10.109 -0.2118 -0.3225  0.0704
  434DPPI   GL2 6744  11.317   8.282  10.148 -0.3456  0.4742  0.3065
  434DPPI   C1A 6745  10.867   8.343   9.931  0.0999  0.1390  0.1207
  434DPPI   C2A 6746  10.719   8.033   9.657 -0.2376  0.4198 -0.0611
  434DPPI   C3A 6747  10.564   7.810   9.184 -0.0554 -0.2847  0.0100
  434DPPI   C4A 6748  10.661   7.821   8.793  0.0036 -0.1685  0.2479
  434DPPI   C1B 6749  11.451   8.299   9.626 -0.3346  0.0963 -0.1270
  434DPPI   C2B 6750  11.453   8.518   9.203  0.3832  0.1010 -0.3153
  434DPPI   C3B 6751  11.592   8.373   8.731 -0.1597 -0.0061  0.0689
  434DPPI   C4B 6752  11.346   8.206   8.319 -0.0393 -0.1437 -0.0633
  435DPPI    C1 6753   0.432  11.524  10.560  0.0577  0.0512 -0.1021
  435DPPI    C2 6754   0.088  11.727  10.573  0.1368  0.1907 -0.1547
  435DPPI    C3 6755   0.263  11.608  10.913 -0.0134  0.0315 -0.1314
  435DPPI   PO4 6756   0.577  11.645  10.325 -0.3062  0.2402  0.0591
  435DPPI   GL1 6757   0.552  11.777   9.922 -0.1786  0.1052  0.0851
  435DPPI   GL2 6758   0.470  11.379   9.927  0.1542 -0.2015 -0.1791
  435DPPI   C1A 6759   0.417  11.582   9.448  0.1715  0.1654  0.2467
  435DPPI   C2A 6760   0.411  11.287   9.135  0.0675 -0.2639  0.0429
  435DPPI   C3A 6761   0.375  11.212   8.701  0.0696 -0.2368 -0.0128
  435DPPI   C4A 6762   0.316  11.057   8.293 -0.1197 -0.1132 -0.0366
  435DPPI   C1B 6763   0.645  11.173   9.644 -0.2961  0.0313 -0.2301
  435DPPI   C2B 6764   1.028  11.178   9.397  0.3055 -0.0340  0.3042
  435DPPI   C3B 6765   0.868  11.160   9.025  0.0223  0.2855  0.0419
  435DPPI   C4B 6766   0.884  11.014   8.649  0.2965 -0.3212 -0.0564
  436DPPI    C1 6767  17.018  15.879  10.507  0.0672  0.2153 -0.0314
  436DPPI    C2 6768  17.124  15.619  10.792 -0.1027  0.2113  0.0291
  436DPPI    C3 6769  17.306  15.974  10.767  0.0482  0.1339  0.0200
  436DPPI   PO4 6770  16.990  15.850  10.189  0.1802 -0.0434  0.0348
  436DPPI   GL1 6771  17.291  15.900   9.847  0.1358  0.0792  0.3207
  436DPPI   GL2 6772  17.470  16.122   9.774 -0.0179 -0.0259 -0.2117
  436DPPI   C1A 6773  17.250  15.845   9.432 -0.1428  0.1321 -0.0816
  436DPPI   C2A 6774  16.974  15.805   9.073 -0.0007  0.1950 -0.0103
  436DPPI   C3A 6775  16.908  15.933   8.624  0.1075  0.3151 -0.1707
  436DPPI   C4A 6776  16.572  16.152   8.363 -0.1266 -0.1401  0.0207
  436DPPI   C1B 6777  17.547  16.222   9.328 -0.0485  0.1021  0.0610
  436DPPI   C2B 6778  17.384  16.094   8.998 -0.2129 -0.2754 -0.0825
  436DPPI   C3B 6779  17.494  15.711   8.752  0.1398 -0.0584  0.0808
  436DPPI   C4B 6780  17.605  15.380   8.439 -0.1189  0.1818 -0.2204
  437DPPI    C1 6781   7.081   0.619  10.597 -0.0089  0.1090  0.0307
  437DPPI    C2 6782   7.146   0.375  10.907 -0.1088  0.1237  0.0635
  437DPPI    C3 6783   7.435   0.624  10.785 -0.0569  0.0925  0.1220
  437DPPI   PO4 6784   6.915   0.437  10.434 -0.0951  0.3056  0.1493
  437DPPI   GL1 6785   6.839   0.414   9.970 -0.2545 -0.0058 -0.1221
  437DPPI   GL2 6786   7.138   0.596  10.013 -0.0091  0.0624  0.1363
  437DPPI   C1A 6787   6.993   0.261   9.629  0.2560  0.1715 -0.0839
  437DPPI   C2A 6788   7.111  -0.065   9.419 -0.0021  0.2185 -0.2159
  437DPPI   C3A 6789   7.113  -0.246   8.927  0.0562  0.3837 -0.1505
  437DPPI   C4A 6790   6.964  -0.450   8.562 -0.0360 -0.1904  0.0899
  437DPPI   C1B 6791   7.207   0.672   9.539  0.1092  0.3950  0.2237
  437DPPI   C2B 6792   7.311   0.688   9.114 -0.1000  0.1941 -0.0051
  437DPPI   C3B 6793   7.438   0.575   8.709 -0.2173 -0.1675  0.2390
  437DPPI   C4B 6794   7.633   0.457   8.288  0.0442 -0.0168 -0.1766
  438DPPI    C1 6795   4.440   3.548  10.671 -0.0722 -0.0179 -0.2711
  438DPPI    C2 6796   4.839   3.572  10.696 -0.1000  0.2383 -0.0179
  438DPPI    C3 6797   4.653   3.230  10.787  0.0804  0.0175 -0.4478
  438DPPI   PO4 6798   4.381   3.593  10.442 -0.0720 -0.0953 -0.0776
  438DPPI   GL1 6799   4.149   3.616  10.046 -0.1550  0.1869  0.0066
  438DPPI   GL2 6800   4.269   3.984  10.136 -0.0996  0.2439  0.0560
  438DPPI   C1A 6801   4.133   3.834   9.643  0.2597  0.0290 -0.1322
  438DPPI   C2A 6802   4.115   3.823   9.301 -0.2236 -0.0727 -0.3367
  438DPPI   C3A 6803   4.183   3.914   8.859  0.1342 -0.2050 -0.2815
  438DPPI   C4A 6804   4.113   3.850   8.476 -0.0820  0.2079  0.0313
  438DPPI   C1B 6805   4.001   4.280   9.888  0.2271  0.0569 -0.2385
  438DPPI   C2B 6806   4.015   4.337   9.444  0.1133  0.0870  0.0765
  438DPPI   C3B 6807   3.964   4.407   8.979 -0.1866 -0.0946 -0.0801
  438DPPI   C4B 6808   4.094   4.327   8.539  0.1051  0.0795  0.1277
  439DPPI    C1 6809  11.914   8.130  10.758 -0.0022 -0.0411 -0.0074
  439DPPI    C2 6810  12.297   8.149  10.870 -0.0002 -0.3425  0.0463
  439DPPI    C3 6811  12.012   8.305  11.103  0.1190  0.2448 -0.1837
  439DPPI   PO4 6812  11.928   8.147  10.466  0.0588 -0.0435  0.2961
  439DPPI   GL1 6813  11.873   8.192  10.050  0.0360  0.1699  0.2491
  439DPPI   GL2 6814  11.899   7.978   9.841 -0.4407  0.0905 -0.1398
  439DPPI   C1A 6815  11.794   8.604   9.870 -0.3102 -0.1742 -0.1433
  439DPPI   C2A 6816  11.428   8.769   9.692  0.3755 -0.0672  0.0150
  439DPPI   C3A 6817  11.033   8.592   9.574  0.1032  0.0297  0.1948
  439DPPI   C4A 6818  11.041   8.256   9.341  0.0792  0.2180  0.1296
  439DPPI   C1B 6819  11.689   7.914   9.456 -0.2448 -0.0612  0.3182
  439DPPI   C2B 6820  11.449   7.991   9.098 -0.1703  0.2015 -0.1935
  439DPPI   C3B 6821  11.691   7.869   8.727 -0.0895  0.3719 -0.0466
  439DPPI   C4B 6822  11.961   7.924   8.490  0.1537 -0.0322  0.1634
  440DPPI    C1 6823   8.659   9.472  10.313  0.0968  0.0241 -0.2118
  440DPPI    C2 6824   8.372   9.495  10.035 -0.2155  0.0049  0.1014
  440DPPI    C3 6825   8.318   9.666  10.392  0.1508 -0.0331  0.1789
  440DPPI   PO4 6826   8.701   9.207  10.262  0.0575  0.0386  0.0070
  440DPPI   GL1 6827   8.563   9.049   9.895 -0.1196 -0.0287  0.0799
  440DPPI   GL2 6828   8.578   8.709  10.040 -0.1893  0.0790 -0.1745
  440DPPI   C1A 6829   8.940   8.997   9.700 -0.1027  0.4549 -0.0876
  440DPPI   C2A 6830   9.028   8.797   9.420 -0.0822 -0.1010 -0.1301
  440DPPI   C3A 6831   9.065   8.792   9.011 -0.0656  0.1127  0.1850
  440DPPI   C4A 6832   8.839   8.767   8.678 -0.3708 -0.1603  0.0368
  440DPPI   C1B 6833   8.555   8.622   9.613 -0.2064 -0.3716  0.2072
  440DPPI   C2B 6834   8.617   8.589   9.158  0.1118  0.2669  0.0823
  440DPPI   C3B 6835   8.271   8.461   8.880  0.1005 -0.2286  0.1295
  440DPPI   C4B 6836   7.900   8.309   8.625  0.2361 -0.1009 -0.1005
  441DPPI    C1 6837  16.827   2.120   9.934 -0.2692  0.1347  0.1900
  441DPPI    C2 6838  16.791   2.400  10.217 -0.0504  0.2198  0.1353
  441DPPI    C3 6839  17.022   2.080  10.281 -0.0054  0.2363  0.0566
  441DPPI   PO4 6840  16.559   2.058   9.868  0.4153 -0.0516  0.0389
  441DPPI   GL1 6841  16.419   1.825   9.527 -0.1413 -0.2756 -0.2745
  441DPPI   GL2 6842  16.058   1.950   9.606  0.2421  0.0448  0.1863
  441DPPI   C1A 6843  16.275   2.006   9.177 -0.0728 -0.1659  0.1550
  441DPPI   C2A 6844  16.409   1.915   8.826 -0.0196 -0.1682 -0.1070
  441DPPI   C3A 6845  16.370   2.071   8.492 -0.0888  0.3422 -0.1660
  441DPPI   C4A 6846  15.984   2.046   8.168  0.0270 -0.0094  0.2482
  441DPPI   C1B 6847  15.778   2.183   9.342  0.0052 -0.0455  0.0329
  441DPPI   C2B 6848  15.683   2.472   9.037 -0.0433 -0.1931  0.0729
  441DPPI   C3B 6849  15.821   2.675   8.645  0.0537 -0.1409 -0.0153
  441DPPI   C4B 6850  16.112   2.555   8.437 -0.1626  0.1708  0.0117
  442DPPI    C1 6851  10.575   0.701  10.303 -0.1234 -0.0394 -0.0468
  442DPPI    C2 6852  10.353   1.032  10.338 -0.0642 -0.0004 -0.0393
  442DPPI    C3 6853  10.293   0.723  10.586 -0.0973  0.0173 -0.0251
  442DPPI   PO4 6854  10.885   0.832  10.207  0.0408  0.2521  0.0680
  442DPPI   GL1 6855  11.013   0.771   9.837  0.4500 -0.0291 -0.3205
  442DPPI   GL2 6856  10.733   0.514   9.793 -0.0346  0.0878 -0.0828
  442DPPI   C1A 6857  11.282   0.606   9.517  0.1345 -0.1595  0.2466
  442DPPI   C2A 6858  11.324   0.677   9.078  0.1771  0.0712  0.1334
  442DPPI   C3A 6859  11.247   0.638   8.778 -0.1478 -0.0910 -0.0428
  442DPPI   C4A 6860  10.836   0.682   8.536  0.0119  0.0070 -0.0828
  442DPPI   C1B 6861  10.702   0.826   9.454  0.2759  0.1154  0.1116
  442DPPI   C2B 6862  10.505   1.041   9.105  0.1161 -0.0882 -0.1948
  442DPPI   C3B 6863  10.340   1.037   8.694  0.3179 -0.6087  0.2896
  442DPPI   C4B 6864  10.028   1.012   8.368 -0.1964 -0.2291  0.0293
  443DPPI    C1 6865   0.656  13.489  10.618  0.0606 -0.0824 -0.0021
  443DPPI    C2 6866   0.296  13.512  10.791  0.1089 -0.0445  0.0938
  443DPPI    C3 6867   0.628  13.532  11.015  0.1760  0.2649 -0.0281
  443DPPI   PO4 6868   0.557  13.270  10.426 -0.2718  0.3987  0.2438
  443DPPI   GL1 6869   0.739  13.276   9.933  0.3553  0.2673 -0.0959
  443DPPI   GL2 6870   0.746  13.543   9.740 -0.1766  0.0745  0.3157
  443DPPI   C1A 6871   0.754  13.053   9.517  0.2255  0.4400  0.0286
  443DPPI   C2A 6872   0.873  13.026   9.095  0.0045 -0.1729 -0.6234
  443DPPI   C3A 6873   0.817  13.143   8.701  0.0018 -0.1723  0.2141
  443DPPI   C4A 6874   0.516  13.178   8.338  0.2020  0.0956 -0.0168
  443DPPI   C1B 6875   0.779  13.759   9.383  0.1419  0.0951 -0.1116
  443DPPI   C2B 6876   0.734  13.538   9.088 -0.1790  0.0286 -0.2491
  443DPPI   C3B 6877   0.543  13.567   8.668  0.2674  0.0430  0.1080
  443DPPI   C4B 6878   0.629  13.631   8.250 -0.0115 -0.2516  0.1707
  444DPPI    C1 6879   7.947   9.211  10.604 -0.0644 -0.3872 -0.0660
  444DPPI    C2 6880   8.202   9.091  10.320 -0.1305 -0.0605 -0.2682
  444DPPI    C3 6881   8.341   9.239  10.664 -0.0481 -0.1327 -0.2703
  444DPPI   PO4 6882   7.794   9.398  10.486  0.1689 -0.1023  0.0817
  444DPPI   GL1 6883   7.606   9.259  10.131  0.2443  0.2043  0.2545
  444DPPI   GL2 6884   7.823   9.389   9.987 -0.1630 -0.0483  0.2934
  444DPPI   C1A 6885   7.543   9.102   9.732  0.2180  0.1509  0.1154
  444DPPI   C2A 6886   7.616   9.057   9.379 -0.0630  0.0155 -0.3325
  444DPPI   C3A 6887   7.424   8.932   9.031  0.0148  0.0853  0.1825
  444DPPI   C4A 6888   7.139   8.884   8.735  0.1469  0.0226 -0.1596
  444DPPI   C1B 6889   8.151   9.353   9.586 -0.5008  0.0246  0.2556
  444DPPI   C2B 6890   8.051   9.267   9.251 -0.2191  0.3119  0.0606
  444DPPI   C3B 6891   7.830   9.207   8.919 -0.2180  0.2223  0.0734
  444DPPI   C4B 6892   7.450   9.230   8.555 -0.0975 -0.0540  0.0806
  445DPPI    C1 6893  11.590  14.954  10.506 -0.2570 -0.1275  0.0550
  445DPPI    C2 6894  11.911  14.903  10.740 -0.1257  0.1249 -0.0656
  445DPPI    C3 6895  11.577  15.066  10.889 -0.0978  0.1343 -0.0131
  445DPPI   PO4 6896  11.610  14.760  10.369 -0.2503  0.0743 -0.0736
  445DPPI   GL1 6897  11.843  14.659   9.934 -0.2437  0.2477 -0.2884
  445DPPI   GL2 6898  12.101  14.827   9.900  0.0178 -0.0011  0.0211
  445DPPI   C1A 6899  11.794  14.467   9.553 -0.5711 -0.0441 -0.2936
  445DPPI   C2A 6900  12.029  14.317   9.329 -0.1935 -0.1065  0.1297
  445DPPI   C3A 6901  12.175  14.326   8.899 -0.2061  0.3102  0.0909
  445DPPI   C4A 6902  12.275  14.574   8.674 -0.1525  0.1523 -0.2417
  445DPPI   C1B 6903  12.270  14.725   9.461  0.1696  0.1300  0.0992
  445DPPI   C2B 6904  12.265  14.853   9.069 -0.0352  0.1795 -0.2743
  445DPPI   C3B 6905  12.361  15.127   8.783 -0.0146 -0.0456 -0.3394
  445DPPI   C4B 6906  12.271  15.179   8.373  0.0794 -0.1680  0.0450
  446DPPI    C1 6907  16.032   2.564  10.049  0.1659  0.1502 -0.1064
  446DPPI    C2 6908  15.915   2.407  10.398  0.0881 -0.0229 -0.2090
  446DPPI    C3 6909  15.671   2.651  10.196  0.0375 -0.1140 -0.2583
  446DPPI   PO4 6910  16.185   2.395   9.933  0.0540 -0.1913 -0.1526
  446DPPI   GL1 6911  16.294   2.430   9.540  0.1948 -0.0622 -0.6634
  446DPPI   GL2 6912  16.686   2.535   9.643  0.0192 -0.3316 -0.0430
  446DPPI   C1A 6913  16.003   2.671   9.343  0.2964 -0.1568 -0.2159
  446DPPI   C2A 6914  16.137   2.908   9.014 -0.1976 -0.0304 -0.0540
  446DPPI   C3A 6915  16.249   3.013   8.555  0.1311  0.1234  0.0262
  446DPPI   C4A 6916  16.524   3.143   8.140 -0.0189 -0.0558  0.1283
  446DPPI   C1B 6917  16.534   2.762   9.291  0.0183  0.1190  0.2147
  446DPPI   C2B 6918  16.586   3.088   8.988 -0.3094 -0.2447  0.1557
  446DPPI   C3B 6919  16.852   3.111   8.556  0.3614  0.0681  0.1863
  446DPPI   C4B 6920  17.121   2.944   8.270 -0.3025  0.1547  0.1806
  447DPPI    C1 6921   1.294   8.947  10.576  0.2515  0.0092  0.2667
  447DPPI    C2 6922   1.017   8.751  10.787  0.1172 -0.0875  0.0043
  447DPPI    C3 6923   1.031   9.150  10.798 -0.0655 -0.0794 -0.0190
  447DPPI   PO4 6924   1.259   8.896  10.386  0.1039  0.3760  0.0881
  447DPPI   GL1 6925   1.376   8.652  10.092 -0.0375  0.0421 -0.0501
  447DPPI   GL2 6926   1.221   8.376   9.978 -0.3316  0.0797 -0.0164
  447DPPI   C1A 6927   1.461   8.736   9.715 -0.1135 -0.0543 -0.1930
  447DPPI   C2A 6928   1.426   8.837   9.315  0.0861  0.3397 -0.1986
  447DPPI   C3A 6929   1.537   9.195   9.172  0.0186 -0.2934  0.0465
  447DPPI   C4A 6930   1.491   9.274   8.792  0.0122  0.1869  0.2407
  447DPPI   C1B 6931   1.185   8.358   9.556  0.3418  0.0826 -0.0645
  447DPPI   C2B 6932   1.198   8.373   9.179 -0.0276  0.2095  0.2074
  447DPPI   C3B 6933   1.049   8.244   8.850  0.0053 -0.1917  0.2415
  447DPPI   C4B 6934   0.605   8.242   8.697 -0.0982  0.1242 -0.1816
  448DPPI    C1 6935   7.564   6.277  10.745 -0.2262  0.0495 -0.0086
  448DPPI    C2 6936   7.455   5.970  10.977  0.0292 -0.0337  0.0035
  448DPPI    C3 6937   7.811   5.967  10.795  0.0437  0.2655  0.0214
  448DPPI   PO4 6938   7.223   6.319  10.505  0.0892 -0.0269 -0.0718
  448DPPI   GL1 6939   7.096   6.347  10.097 -0.3473 -0.0552 -0.4911
  448DPPI   GL2 6940   7.398   6.386   9.820 -0.1621  0.0773  0.0201
  448DPPI   C1A 6941   6.895   6.141   9.758  0.1359 -0.0641  0.3073
  448DPPI   C2A 6942   6.832   5.734   9.590 -0.1099 -0.3301  0.1292
  448DPPI   C3A 6943   6.802   5.854   9.218 -0.1367  0.0457  0.3592
  448DPPI   C4A 6944   6.985   5.734   8.812  0.0088  0.1174 -0.0785
  448DPPI   C1B 6945   7.472   6.427   9.352 -0.1780  0.0350 -0.2720
  448DPPI   C2B 6946   7.391   6.560   8.908  0.0797 -0.1665  0.1803
  448DPPI   C3B 6947   7.253   6.632   8.461  0.2401  0.1948 -0.1046
  448DPPI   C4B 6948   7.014   6.736   8.075 -0.0140  0.0042  0.1019
  449DPPI    C1 6949   1.995  15.068  10.003 -0.2208 -0.1804  0.1163
  449DPPI    C2 6950   2.301  15.324  10.026 -0.3449  0.0159 -0.3158
  449DPPI    C3 6951   2.360  14.935  10.098 -0.0936  0.1174  0.0546
  449DPPI   PO4 6952   1.813  15.191   9.768  0.1224 -0.1891  0.0137
  449DPPI   GL1 6953   1.744  15.217   9.307  0.0666  0.0904  0.2172
  449DPPI   GL2 6954   1.929  15.129   9.149 -0.2012 -0.1257  0.0185
  449DPPI   C1A 6955   1.726  15.538   8.998 -0.2825  0.0402  0.0138
  449DPPI   C2A 6956   1.694  15.631   8.565 -0.1885  0.0047  0.0026
  449DPPI   C3A 6957   1.686  15.333   8.281  0.1063 -0.3391 -0.1539
  449DPPI   C4A 6958   1.844  15.109   7.906 -0.0889 -0.0168 -0.0891
  449DPPI   C1B 6959   1.964  15.164   8.754 -0.2529  0.0715 -0.0202
  449DPPI   C2B 6960   2.135  15.053   8.380 -0.1990  0.0387  0.1458
  449DPPI   C3B 6961   2.088  14.709   8.233  0.1267  0.0989 -0.2876
  449DPPI   C4B 6962   2.106  14.382   7.829  0.2799  0.1734  0.1565
  450DPPI    C1 6963   9.121   6.052  10.642 -0.1154  0.0185  0.2998
  450DPPI    C2 6964   8.968   6.404  10.755 -0.0456  0.1198  0.0836
  450DPPI    C3 6965   9.324   6.286  10.895  0.0387  0.2430 -0.0244
  450DPPI   PO4 6966   9.016   6.001  10.358  0.1757  0.1001  0.1968
  450DPPI   GL1 6967   9.044   5.781  10.034 -0.1554 -0.2303  0.2635
  450DPPI   GL2 6968   9.259   5.568   9.981  0.1180 -0.2637  0.0873
  450DPPI   C1A 6969   8.837   5.951   9.651 -0.0836 -0.0213 -0.2020
  450DPPI   C2A 6970   8.752   6.069   9.226 -0.1545  0.0377 -0.2580
  450DPPI   C3A 6971   8.410   6.074   8.837  0.0521 -0.1463 -0.1776
  450DPPI   C4A 6972   8.222   6.328   8.428 -0.0066  0.3417 -0.1607
  450DPPI   C1B 6973   9.305   5.831   9.607 -0.1500 -0.0228 -0.0597
  450DPPI   C2B 6974   9.195   5.845   9.219 -0.0376 -0.0302 -0.1185
  450DPPI   C3B 6975   9.466   5.863   8.823 -0.2882 -0.1847 -0.0783
  450DPPI   C4B 6976   9.625   5.784   8.446 -0.1561 -0.1684 -0.0021
  451DPPI    C1 6977   4.312   2.508  10.233  0.1804 -0.2623 -0.0515
  451DPPI    C2 6978   4.149   2.390  10.579  0.3593 -0.0184  0.1190
  451DPPI    C3 6979   3.921   2.425  10.253  0.1671 -0.1412  0.2383
  451DPPI   PO4 6980   4.533   2.332  10.150  0.0756 -0.6613 -0.0883
  451DPPI   GL1 6981   4.907   2.325   9.882  0.1666 -0.0521  0.2497
  451DPPI   GL2 6982   4.858   2.585   9.739 -0.2784 -0.0929 -0.0077
  451DPPI   C1A 6983   4.652   2.178   9.560  0.0274 -0.0549  0.1538
  451DPPI   C2A 6984   4.614   2.050   9.085  0.4549  0.0077  0.1578
  451DPPI   C3A 6985   4.694   2.091   8.680 -0.0303  0.0535 -0.0468
  451DPPI   C4A 6986   4.801   2.134   8.232  0.0166  0.3666 -0.1763
  451DPPI   C1B 6987   4.752   2.641   9.255  0.0267  0.3217 -0.5091
  451DPPI   C2B 6988   4.672   2.533   8.868  0.3343  0.1582 -0.3034
  451DPPI   C3B 6989   4.582   2.526   8.427  0.5186 -0.0022  0.0649
  451DPPI   C4B 6990   4.304   2.761   8.213 -0.0475  0.0889 -0.3236
  452DPPI    C1 6991   4.440   1.818  10.486  0.0663 -0.0848  0.0485
  452DPPI    C2 6992   4.208   1.913  10.797  0.1440  0.0121  0.0776
  452DPPI    C3 6993   4.417   1.572  10.801 -0.1300 -0.1604 -0.0238
  452DPPI   PO4 6994   4.281   1.887  10.300  0.1488 -0.1216 -0.1711
  452DPPI   GL1 6995   4.124   2.094   9.914  0.1355  0.0156  0.0527
  452DPPI   GL2 6996   4.259   2.395   9.730  0.2249 -0.0373 -0.1100
  452DPPI   C1A 6997   4.241   1.900   9.537  0.0155 -0.1253  0.0020
  452DPPI   C2A 6998   4.295   1.702   9.149 -0.0826 -0.3086 -0.2248
  452DPPI   C3A 6999   4.472   1.667   8.772 -0.0326  0.1298  0.0273
  452DPPI   C4A 7000   4.485   1.718   8.300 -0.1582  0.1320  0.4354
  452DPPI   C1B 7001   4.206   2.331   9.268  0.1733  0.3743 -0.0523
  452DPPI   C2B 7002   4.199   2.191   8.797 -0.0597  0.0174 -0.3764
  452DPPI   C3B 7003   4.247   2.169   8.366 -0.2815 -0.1850  0.0278
  452DPPI   C4B 7004   4.313   2.292   8.014  0.0667  0.0251  0.1422
  453DPPI    C1 7005  14.384  17.907  10.266 -0.2185 -0.1387  0.1087
  453DPPI    C2 7006  14.496  17.523  10.255  0.2671 -0.0077  0.2370
  453DPPI    C3 7007  14.187  17.635  10.483  0.1474 -0.3136  0.2301
  453DPPI   PO4 7008  14.414  17.945  10.015  0.3247  0.1575 -0.1117
  453DPPI   GL1 7009  14.311  17.924   9.680  0.2219 -0.0060 -0.4471
  453DPPI   GL2 7010  14.358  17.639   9.643  0.0815  0.1295 -0.0496
  453DPPI   C1A 7011  14.579  18.156   9.349 -0.0413  0.0803 -0.1489
  453DPPI   C2A 7012  14.840  18.038   9.039  0.1439 -0.3189 -0.0453
  453DPPI   C3A 7013  14.700  18.241   8.750  0.2844 -0.0692 -0.0398
  453DPPI   C4A 7014  14.606  18.339   8.246  0.0638  0.0148  0.1295
  453DPPI   C1B 7015  14.271  17.746   9.163  0.3188  0.2626 -0.2296
  453DPPI   C2B 7016  14.462  17.741   8.793 -0.0332  0.2048  0.0636
  453DPPI   C3B 7017  14.619  17.770   8.364  0.1086 -0.0220  0.0494
  453DPPI   C4B 7018  14.775  17.621   8.025 -0.1842 -0.1167 -0.2968
  454DPPI    C1 7019   7.419   1.875  10.669  0.2617 -0.0502 -0.0330
  454DPPI    C2 7020   7.072   1.725  10.539  0.0901  0.2013  0.1251
  454DPPI    C3 7021   7.138   1.765  10.932  0.2356  0.3000  0.0915
  454DPPI   PO4 7022   7.462   1.980  10.428  0.1726  0.0540  0.3466
  454DPPI   GL1 7023   7.491   1.851  10.050  0.0496 -0.0193 -0.1124
  454DPPI   GL2 7024   7.189   1.671  10.002  0.2557 -0.3714 -0.3414
  454DPPI   C1A 7025   7.688   1.850   9.699 -0.0146 -0.0110 -0.1614
  454DPPI   C2A 7026   7.832   1.533   9.372 -0.0332 -0.1419  0.0997
  454DPPI   C3A 7027   7.868   1.586   8.901 -0.1563  0.2856  0.0567
  454DPPI   C4A 7028   7.970   1.437   8.400  0.3371 -0.2091 -0.3075
  454DPPI   C1B 7029   7.304   1.579   9.548  0.0608 -0.1482  0.0077
  454DPPI   C2B 7030   7.415   1.455   9.087 -0.0409  0.3931 -0.2169
  454DPPI   C3B 7031   7.413   1.583   8.668  0.0573  0.4278 -0.0086
  454DPPI   C4B 7032   7.360   1.593   8.260 -0.1305 -0.0695 -0.1168
  455DPPI    C1 7033  12.066  15.706  10.236 -0.0892 -0.0826 -0.0475
  455DPPI    C2 7034  12.242  16.032  10.386 -0.0343 -0.0500 -0.1809
  455DPPI    C3 7035  12.281  15.680  10.572 -0.1015  0.0206 -0.0313
  455DPPI   PO4 7036  11.846  15.792  10.172 -0.1186  0.0379  0.1448
  455DPPI   GL1 7037  11.681  15.774   9.739 -0.0182  0.0536  0.0554
  455DPPI   GL2 7038  11.501  16.053   9.858  0.1572  0.0078  0.0122
  455DPPI   C1A 7039  11.559  15.838   9.235  0.0738 -0.0017 -0.1054
  455DPPI   C2A 7040  11.690  15.822   8.827  0.1626  0.1743 -0.1275
  455DPPI   C3A 7041  11.932  15.986   8.552 -0.3187  0.3573 -0.1997
  455DPPI   C4A 7042  12.016  16.091   8.093 -0.1167  0.1923  0.2746
  455DPPI   C1B 7043  11.148  15.957   9.605 -0.1034  0.1746 -0.0052
  455DPPI   C2B 7044  11.087  15.832   9.140  0.0848  0.2067 -0.0168
  455DPPI   C3B 7045  11.293  15.519   8.909 -0.0701  0.2629 -0.2259
  455DPPI   C4B 7046  11.386  14.998   9.043 -0.2904  0.0504 -0.3031
  456DPPI    C1 7047   4.962   0.673  10.530  0.0068  0.1446  0.4128
  456DPPI    C2 7048   4.628   0.698  10.748 -0.0441 -0.0050  0.3536
  456DPPI    C3 7049   4.862   0.376  10.778 -0.0968 -0.0669  0.1235
  456DPPI   PO4 7050   4.887   0.805  10.289  0.0489  0.1360  0.0734
  456DPPI   GL1 7051   4.867   1.041   9.937 -0.1028 -0.1402  0.0563
  456DPPI   GL2 7052   4.567   1.255   9.820 -0.0466 -0.3362  0.0141
  456DPPI   C1A 7053   4.908   1.196   9.487  0.2133 -0.0408 -0.0406
  456DPPI   C2A 7054   4.799   1.338   9.045 -0.0821 -0.0101 -0.3554
  456DPPI   C3A 7055   4.862   1.340   8.624  0.0583 -0.0722 -0.2023
  456DPPI   C4A 7056   5.211   1.221   8.336  0.1732 -0.0350  0.0842
  456DPPI   C1B 7057   4.374   1.286   9.444 -0.2450 -0.0273  0.1380
  456DPPI   C2B 7058   4.271   1.234   9.007  0.0021 -0.1634  0.2441
  456DPPI   C3B 7059   4.372   1.246   8.567 -0.1810 -0.0845 -0.2249
  456DPPI   C4B 7060   4.674   1.257   8.215  0.0100  0.0110 -0.0353
  457DPPI    C1 7061   3.078   0.783  10.443  0.1298 -0.0590  0.2088
  457DPPI    C2 7062   3.189   0.816  10.826  0.1613 -0.3805  0.2305
  457DPPI    C3 7063   3.460   0.856  10.534  0.0585  0.3243  0.2146
  457DPPI   PO4 7064   2.817   0.787  10.452 -0.0277  0.1746 -0.0647
  457DPPI   GL1 7065   2.756   0.935   9.960 -0.1916 -0.0075 -0.0466
  457DPPI   GL2 7066   3.032   0.972   9.891 -0.0212  0.0812  0.3617
  457DPPI   C1A 7067   2.559   0.932   9.538 -0.2307  0.1523  0.1271
  457DPPI   C2A 7068   2.200   0.776   9.160  0.0106  0.0986  0.2169
  457DPPI   C3A 7069   2.150   0.818   8.753  0.0082  0.0534 -0.0445
  457DPPI   C4A 7070   2.153   0.866   8.316 -0.2104 -0.0679  0.0667
  457DPPI   C1B 7071   3.026   0.853   9.413 -0.0836  0.0522 -0.4827
  457DPPI   C2B 7072   2.733   0.667   9.105 -0.2616 -0.0861  0.2790
  457DPPI   C3B 7073   2.594   0.485   8.753 -0.0311 -0.4221  0.0384
  457DPPI   C4B 7074   2.279   0.407   8.493  0.1412  0.1058 -0.0082
  458DPPI    C1 7075  11.169  17.930  10.366  0.0324  0.1032 -0.2600
  458DPPI    C2 7076  11.398  17.986  10.688  0.0075 -0.3418 -0.1577
  458DPPI    C3 7077  11.114  17.705  10.692 -0.3186 -0.0244 -0.4022
  458DPPI   PO4 7078  11.375  17.908  10.138  0.1148 -0.0733 -0.0030
  458DPPI   GL1 7079  11.575  17.956   9.823 -0.0023  0.0402 -0.0121
  458DPPI   GL2 7080  11.744  17.705   9.602  0.2752 -0.3024  0.1496
  458DPPI   C1A 7081  11.459  18.243   9.473 -0.0097 -0.0347 -0.0326
  458DPPI   C2A 7082  11.530  18.227   8.973  0.2254  0.0983  0.0243
  458DPPI   C3A 7083  11.465  18.380   8.557 -0.0949  0.2319  0.2538
  458DPPI   C4A 7084  11.511  18.700   8.294  0.2445 -0.0944  0.4491
  458DPPI   C1B 7085  11.719  17.742   9.129 -0.0873 -0.0120 -0.0598
  458DPPI   C2B 7086  11.728  17.857   8.632 -0.2359  0.0141  0.2353
  458DPPI   C3B 7087  11.643  17.880   8.202 -0.1214  0.2879  0.0902
  458DPPI   C4B 7088  11.284  18.010   7.976  0.1432 -0.0391 -0.0216
  459DPPI    C1 7089   4.772  12.636  10.228  0.1039  0.0252 -0.0368
  459DPPI    C2 7090   4.564  12.867   9.976 -0.1506  0.2482  0.3677
  459DPPI    C3 7091   4.868  13.022  10.184  0.0976  0.0497  0.1591
  459DPPI   PO4 7092   4.876  12.340  10.061  0.0202  0.0742  0.1135
  459DPPI   GL1 7093   5.039  12.424   9.618  0.1966  0.3347  0.0297
  459DPPI   GL2 7094   5.309  12.317   9.693 -0.0389 -0.1329 -0.1031
  459DPPI   C1A 7095   5.022  12.342   9.252 -0.0846 -0.3496  0.0030
  459DPPI   C2A 7096   5.027  12.411   8.850 -0.1259  0.2350  0.0315
  459DPPI   C3A 7097   5.040  12.375   8.408 -0.1402 -0.5133 -0.1018
  459DPPI   C4A 7098   4.960  12.352   8.032 -0.0013 -0.0882  0.2365
  459DPPI   C1B 7099   5.511  12.347   9.295  0.0851  0.0888  0.1767
  459DPPI   C2B 7100   5.520  12.393   8.829  0.1404 -0.0983 -0.1676
  459DPPI   C3B 7101   5.622  12.513   8.324  0.1772  0.1273  0.2914
  459DPPI   C4B 7102   5.798  12.310   7.994 -0.1290  0.1589  0.1108
  460DPPI    C1 7103   4.904  11.320  10.484  0.0724 -0.2157 -0.0569
  460DPPI    C2 7104   4.715  11.637  10.637  0.2834 -0.0537 -0.1273
  460DPPI    C3 7105   4.552  11.273  10.668 -0.0239  0.0781 -0.1616
  460DPPI   PO4 7106   4.937  11.374  10.218 -0.2556 -0.0296  0.2392
  460DPPI   GL1 7107   4.770  11.484   9.725 -0.0593 -0.1393  0.2766
  460DPPI   GL2 7108   4.395  11.608   9.694 -0.0089  0.0700  0.2516
  460DPPI   C1A 7109   4.999  11.427   9.404 -0.0821 -0.1231  0.1036
  460DPPI   C2A 7110   4.928  11.424   8.966  0.1877 -0.0730  0.0335
  460DPPI   C3A 7111   4.756  11.508   8.507 -0.0403  0.1004 -0.0725
  460DPPI   C4A 7112   4.455  11.579   8.267 -0.2081 -0.2346  0.1343
  460DPPI   C1B 7113   4.457  11.434   9.366  0.2512 -0.3276 -0.0773
  460DPPI   C2B 7114   4.342  11.441   9.037 -0.0890 -0.1531  0.2799
  460DPPI   C3B 7115   4.149  11.539   8.680 -0.0469  0.0737  0.3913
  460DPPI   C4B 7116   3.953  11.558   8.277 -0.2527 -0.1439 -0.1444
  461DPPI    C1 7117  10.823   4.840  10.434  0.0586 -0.0570  0.2574
  461DPPI    C2 7118  10.938   4.620  10.747  0.0432 -0.4088  0.0221
  461DPPI    C3 7119  10.591   4.541  10.564 -0.0191 -0.1090  0.0051
  461DPPI   PO4 7120  11.003   4.814  10.309 -0.3901  0.1989 -0.0038
  461DPPI   GL1 7121  11.134   4.579   9.792  0.2378  0.3307 -0.1231
  461DPPI   GL2 7122  10.877   4.457   9.886  0.2640 -0.2342 -0.0153
  461DPPI   C1A 7123  11.038   4.581   9.350  0.4556  0.1404 -0.3977
  461DPPI   C2A 7124  10.918   4.689   8.873 -0.1535 -0.2501  0.2444
  461DPPI   C3A 7125  10.840   4.564   8.447 -0.2414 -0.0881 -0.1215
  461DPPI   C4A 7126  11.087   4.592   8.004  0.1815 -0.0572  0.0666
  461DPPI   C1B 7127  10.584   4.309   9.530  0.0471  0.1927  0.1792
  461DPPI   C2B 7128  10.704   4.337   9.134  0.3506 -0.0188  0.2136
  461DPPI   C3B 7129  10.808   4.129   8.741 -0.1698 -0.0544 -0.0734
  461DPPI   C4B 7130  10.967   4.088   8.277 -0.0418 -0.0297 -0.3238
  462DPPI    C1 7131  16.773   5.692  10.318 -0.1099  0.1761 -0.2165
  462DPPI    C2 7132  16.753   5.648  10.715  0.1732  0.4136 -0.1725
  462DPPI    C3 7133  16.427   5.587  10.491  0.0689  0.0462  0.0697
  462DPPI   PO4 7134  16.941   5.786  10.228  0.0456 -0.0744 -0.0135
  462DPPI   GL1 7135  17.174   6.153   9.942  0.2373  0.2446 -0.1986
  462DPPI   GL2 7136  17.443   6.440   9.914 -0.0157 -0.1754 -0.0796
  462DPPI   C1A 7137  17.131   6.303   9.452  0.0905  0.1425 -0.0140
  462DPPI   C2A 7138  17.145   6.648   9.185  0.0756  0.1461 -0.0987
  462DPPI   C3A 7139  17.114   6.780   8.749 -0.1180  0.0321  0.2948
  462DPPI   C4A 7140  17.463   7.092   8.483  0.5907  0.1099  0.0727
  462DPPI   C1B 7141  17.590   6.515   9.554 -0.1712  0.0420 -0.0507
  462DPPI   C2B 7142  17.765   6.785   9.282  0.2209 -0.0594  0.0859
  462DPPI   C3B 7143  17.667   6.670   8.808  0.1261  0.1618  0.0451
  462DPPI   C4B 7144  17.660   6.629   8.389  0.0577  0.1886  0.1453
  463DPPI    C1 7145  17.982  17.673  10.386  0.2388  0.2683  0.1892
  463DPPI    C2 7146  17.809  17.558  10.728 -0.0972 -0.0727 -0.0867
  463DPPI    C3 7147  17.678  17.885  10.537 -0.0338  0.0113  0.0123
  463DPPI   PO4 7148  18.006  17.471  10.320 -0.1019  0.2725 -0.0123
  463DPPI   GL1 7149  18.045  17.275   9.977  0.0315 -0.1961 -0.0349
  463DPPI   GL2 7150  18.362  17.408   9.927  0.3436  0.1485  0.2553
  463DPPI   C1A 7151  17.844  17.119   9.645 -0.1580 -0.0532 -0.2371
  463DPPI   C2A 7152  17.587  16.880   9.247 -0.1761  0.0093  0.1153
  463DPPI   C3A 7153  17.567  16.588   8.915  0.1454  0.3152  0.0240
  463DPPI   C4A 7154  17.699  16.482   8.457 -0.2314 -0.2048  0.1808
  463DPPI   C1B 7155  18.798  17.316   9.864 -0.0733 -0.1286 -0.4372
  463DPPI   C2B 7156  18.832  17.046   9.516 -0.1299  0.0660 -0.1104
  463DPPI   C3B 7157  18.559  16.908   9.115 -0.2563 -0.2857 -0.1170
  463DPPI   C4B 7158  18.570  16.895   8.759  0.0828 -0.0434 -0.1082
  464DPPI    C1 7159   7.946  14.165  10.510 -0.1284  0.0722 -0.0838
  464DPPI    C2 7160   8.146  14.471  10.673  0.0224 -0.0371 -0.0615
  464DPPI    C3 7161   7.746  14.464  10.686  0.0199  0.1343 -0.0190
  464DPPI   PO4 7162   8.098  14.111  10.302 -0.0106  0.1064 -0.0046
  464DPPI   GL1 7163   8.256  14.352   9.868  0.1127 -0.1338 -0.3012
  464DPPI   GL2 7164   8.100  14.662   9.700 -0.1037 -0.0587  0.2193
  464DPPI   C1A 7165   8.275  14.253   9.431  0.0381 -0.0300  0.3654
  464DPPI   C2A 7166   8.351  14.274   9.012 -0.3110  0.1290  0.0880
  464DPPI   C3A 7167   8.449  14.043   8.664 -0.3011  0.3721 -0.3714
  464DPPI   C4A 7168   8.400  13.955   8.246  0.2053  0.0669  0.1905
  464DPPI   C1B 7169   8.171  14.692   9.227 -0.1443 -0.1467 -0.1825
  464DPPI   C2B 7170   8.422  14.746   8.837  0.1886 -0.1691  0.4077
  464DPPI   C3B 7171   8.303  14.879   8.466 -0.0061  0.1270  0.0225
  464DPPI   C4B 7172   8.397  14.935   8.071 -0.0038 -0.2225  0.2577
  465DPPI    C1 7173   3.882   1.165  10.351 -0.1406 -0.1588 -0.0192
  465DPPI    C2 7174   3.876   1.525  10.177 -0.0572 -0.2416 -0.1963
  465DPPI    C3 7175   4.027   1.483  10.545  0.1918 -0.1422 -0.2850
  465DPPI   PO4 7176   3.979   1.069  10.191  0.0707 -0.0661 -0.2122
  465DPPI   GL1 7177   3.989   1.172   9.727  0.0453  0.1686 -0.0945
  465DPPI   GL2 7178   4.103   0.852   9.734  0.0935 -0.2404  0.1332
  465DPPI   C1A 7179   3.897   1.372   9.345  0.0971 -0.0079  0.0877
  465DPPI   C2A 7180   3.811   1.460   8.910  0.3194  0.3822 -0.1183
  465DPPI   C3A 7181   3.982   1.609   8.501  0.1305 -0.4786  0.0912
  465DPPI   C4A 7182   4.044   1.784   8.135  0.0716  0.0308 -0.1036
  465DPPI   C1B 7183   4.032   0.888   9.304 -0.1385  0.1991  0.0466
  465DPPI   C2B 7184   3.875   0.959   8.915 -0.0989 -0.1117  0.0182
  465DPPI   C3B 7185   3.730   1.088   8.578 -0.2595 -0.0290 -0.0464
  465DPPI   C4B 7186   3.580   1.156   8.079 -0.1944  0.0576  0.0803
  466DPPI    C1 7187   4.118  15.737  10.056 -0.1915  0.0550 -0.0890
  466DPPI    C2 7188   4.309  15.447   9.857 -0.0862  0.0381  0.0354
  466DPPI    C3 7189   4.238  15.407  10.249 -0.1151  0.1586  0.0428
  466DPPI   PO4 7190   3.932  15.839   9.828 -0.2426  0.0163  0.1776
  466DPPI   GL1 7191   3.847  16.239   9.528 -0.1264  0.2729 -0.0276
  466DPPI   GL2 7192   3.825  16.520   9.467 -0.1627 -0.2308  0.0867
  466DPPI   C1A 7193   3.971  16.220   9.108  0.3602 -0.1198  0.1062
  466DPPI   C2A 7194   4.048  16.277   8.727 -0.0280  0.1349 -0.1862
  466DPPI   C3A 7195   3.854  16.485   8.313  0.1493  0.1371 -0.0153
  466DPPI   C4A 7196   3.482  16.678   8.258  0.0841 -0.1338 -0.1669
  466DPPI   C1B 7197   3.966  16.671   9.003 -0.0416  0.0623 -0.1943
  466DPPI   C2B 7198   3.927  16.846   8.636  0.1243  0.0161 -0.0265
  466DPPI   C3B 7199   3.719  17.089   8.304 -0.0334  0.0403  0.0994
  466DPPI   C4B 7200   3.529  17.259   7.968 -0.0442  0.1221  0.1802
  467DPPI    C1 7201  17.903   2.276  10.221 -0.0130 -0.1779  0.0178
  467DPPI    C2 7202  17.896   2.529  10.531 -0.2387  0.0414 -0.1626
  467DPPI    C3 7203  17.879   2.135  10.595 -0.1625  0.0796  0.1080
  467DPPI   PO4 7204  18.081   2.348  10.065 -0.0256  0.0566  0.2409
  467DPPI   GL1 7205  18.300   2.444   9.612  0.0452  0.2317 -0.2428
  467DPPI   GL2 7206  18.079   2.568   9.459  0.0388  0.1765  0.1013
  467DPPI   C1A 7207  18.598   2.491   9.245 -0.1801  0.1383  0.2088
  467DPPI   C2A 7208  18.689   2.496   8.809  0.0637  0.1311 -0.2408
  467DPPI   C3A 7209  18.643   2.729   8.437  0.2190  0.1595  0.0548
  467DPPI   C4A 7210  18.603   2.650   8.086 -0.0543 -0.1733 -0.3363
  467DPPI   C1B 7211  18.145   2.548   9.068  0.1475 -0.0204  0.0479
  467DPPI   C2B 7212  18.202   2.619   8.628  0.1353  0.1900  0.0637
  467DPPI   C3B 7213  18.127   2.712   8.274  0.4934 -0.3011 -0.1784
  467DPPI   C4B 7214  17.997   3.060   7.989  0.1526  0.0439 -0.1492
  468DPPI    C1 7215   1.085   7.912  10.785 -0.2159  0.1654 -0.0298
  468DPPI    C2 7216   1.184   7.525  10.791 -0.1357  0.1853 -0.0550
  468DPPI    C3 7217   0.951   7.676  11.080 -0.2672  0.0924 -0.1111
  468DPPI   PO4 7218   1.095   7.932  10.501 -0.0586 -0.0939  0.1031
  468DPPI   GL1 7219   1.041   7.968  10.148  0.2556  0.0633  0.0325
  468DPPI   GL2 7220   0.840   7.683  10.087  0.3183  0.4035  0.0487
  468DPPI   C1A 7221   0.797   8.196   9.821 -0.0073  0.1614  0.1900
  468DPPI   C2A 7222   0.751   8.159   9.410 -0.4776  0.2164 -0.0608
  468DPPI   C3A 7223   0.763   7.925   9.071  0.1450 -0.0658 -0.0604
  468DPPI   C4A 7224   0.715   7.723   8.577 -0.1446 -0.1136  0.1108
  468DPPI   C1B 7225   0.863   7.632   9.690 -0.1286  0.0056  0.0825
  468DPPI   C2B 7226   0.912   7.486   9.271 -0.3673  0.0061  0.1236
  468DPPI   C3B 7227   1.056   7.279   8.838  0.0342 -0.0319  0.0305
  468DPPI   C4B 7228   0.964   7.300   8.413 -0.0597  0.0584 -0.2238
  469DPPI    C1 7229   0.252  18.034  10.497 -0.0712 -0.0426 -0.1187
  469DPPI    C2 7230   0.173  17.755  10.772 -0.0875 -0.2273 -0.3076
  469DPPI    C3 7231  -0.059  18.081  10.744  0.0181 -0.1207  0.0097
  469DPPI   PO4 7232   0.270  17.927  10.213 -0.0595 -0.1813  0.3956
  469DPPI   GL1 7233   0.144  18.199   9.789 -0.0157 -0.3311 -0.0425
  469DPPI   GL2 7234  -0.190  18.168   9.639  0.2704 -0.1337 -0.0968
  469DPPI   C1A 7235   0.225  18.018   9.300  0.1836 -0.0114 -0.0037
  469DPPI   C2A 7236   0.315  17.867   8.887 -0.2762 -0.3350  0.0039
  469DPPI   C3A 7237   0.244  17.915   8.444  0.0357  0.1260  0.0575
  469DPPI   C4A 7238  -0.066  18.029   8.141 -0.0382  0.0496  0.2374
  469DPPI   C1B 7239  -0.271  18.107   9.290  0.0823  0.0118 -0.0710
  469DPPI   C2B 7240  -0.122  18.225   8.966 -0.1772  0.0025  0.0020
  469DPPI   C3B 7241   0.127  18.444   8.612  0.3775  0.2493  0.0148
  469DPPI   C4B 7242   0.231  18.532   8.205 -0.1639  0.0739  0.0073
  470DPPI    C1 7243  13.775   6.160  10.896 -0.0741 -0.1559 -0.3940
  470DPPI    C2 7244  13.383   6.236  10.922  0.0253  0.2357  0.1217
  470DPPI    C3 7245  13.648   6.506  11.052  0.4581 -0.1826  0.1350
  470DPPI   PO4 7246  13.754   5.956  10.695 -0.1192  0.1371  0.1918
  470DPPI   GL1 7247  13.854   5.924  10.186  0.4527  0.2324  0.2231
  470DPPI   GL2 7248  13.547   5.881   9.958 -0.0166  0.0267 -0.1914
  470DPPI   C1A 7249  14.001   5.918   9.808 -0.1880  0.0572 -0.1845
  470DPPI   C2A 7250  14.201   6.011   9.476 -0.1077 -0.1415  0.2157
  470DPPI   C3A 7251  14.114   5.928   9.109  0.1283  0.1214  0.3103
  470DPPI   C4A 7252  14.169   5.915   8.594 -0.0297 -0.1933 -0.3005
  470DPPI   C1B 7253  13.642   5.893   9.458  0.2184  0.1313 -0.1758
  470DPPI   C2B 7254  13.632   5.911   9.023  0.2098  0.0583  0.3731
  470DPPI   C3B 7255  13.402   5.698   8.825  0.2292  0.2610 -0.0413
  470DPPI   C4B 7256  12.937   5.496   8.738 -0.0103 -0.1990 -0.1805
  471DPPI    C1 7257   5.587   8.894  10.430  0.2180  0.1008 -0.4451
  471DPPI    C2 7258   5.753   9.254  10.487  0.1506  0.0904 -0.1678
  471DPPI    C3 7259   5.954   8.923  10.587  0.1143  0.0616 -0.1903
  471DPPI   PO4 7260   5.496   8.833  10.171 -0.2313 -0.0208  0.3694
  471DPPI   GL1 7261   5.313   8.620   9.763  0.0150  0.0253  0.2484
  471DPPI   GL2 7262   5.514   8.349   9.909 -0.1656 -0.0629  0.2425
  471DPPI   C1A 7263   5.268   8.421   9.384  0.1595  0.2057  0.0441
  471DPPI   C2A 7264   5.466   8.129   9.037 -0.1455 -0.1248 -0.2042
  471DPPI   C3A 7265   5.495   8.002   8.627  0.0651  0.1618 -0.1368
  471DPPI   C4A 7266   5.437   8.100   8.171 -0.1675 -0.3794  0.0665
  471DPPI   C1B 7267   5.463   7.983   9.550  0.4114 -0.0566 -0.0086
  471DPPI   C2B 7268   5.249   7.752   9.227 -0.3732 -0.0727  0.2246
  471DPPI   C3B 7269   5.027   7.894   8.821  0.0844 -0.2492  0.1698
  471DPPI   C4B 7270   4.980   7.975   8.433  0.0090  0.1870  0.0097
  472DPPI    C1 7271   2.405  13.058  10.138  0.0324  0.2637 -0.1582
  472DPPI    C2 7272   2.771  12.952  10.260 -0.0783  0.1457  0.0778
  472DPPI    C3 7273   2.460  12.921  10.510 -0.3397 -0.2534 -0.2817
  472DPPI   PO4 7274   2.506  13.090   9.891 -0.4022 -0.0739  0.0362
  472DPPI   GL1 7275   2.282  13.207   9.535  0.3245 -0.3410  0.1593
  472DPPI   GL2 7276   2.184  13.494   9.490 -0.1583  0.1755  0.3080
  472DPPI   C1A 7277   2.242  13.028   9.183  0.1019 -0.2400 -0.1129
  472DPPI   C2A 7278   2.199  13.130   8.735  0.3275  0.1339  0.2464
  472DPPI   C3A 7279   2.319  13.069   8.264  0.5223  0.1689 -0.0972
  472DPPI   C4A 7280   2.260  12.716   8.021  0.1252 -0.0604  0.1180
  472DPPI   C1B 7281   1.866  13.751   9.275  0.1678  0.0425 -0.1569
  472DPPI   C2B 7282   1.554  13.860   8.893 -0.0822  0.1661  0.2448
  472DPPI   C3B 7283   1.590  13.757   8.447 -0.1145  0.1208  0.1138
  472DPPI   C4B 7284   1.469  13.563   8.054 -0.2078  0.3649  0.0368
  473PYPI    C1 7285  14.774  14.924  10.650  0.0229  0.1311 -0.1599
  473PYPI    C2 7286  14.968  14.614  10.812 -0.0803  0.0769 -0.1394
  473PYPI    C3 7287  14.996  14.977  10.978 -0.0911  0.0452 -0.0681
  473PYPI   PO4 7288  14.654  14.810  10.486 -0.2492 -0.0128  0.1338
  473PYPI   GL1 7289  14.644  14.663   9.962 -0.1501 -0.0582  0.3987
  473PYPI   GL2 7290  14.684  14.296   9.947 -0.2036 -0.1587  0.1194
  473PYPI   C1A 7291  14.712  14.577   9.478 -0.0349  0.1214 -0.0819
  473PYPI   C2A 7292  14.544  14.864   9.215 -0.2355 -0.0506 -0.0313
  473PYPI   D3A 7293  14.594  14.811   8.827  0.1355  0.0934 -0.2137
  473PYPI   C4A 7294  15.027  14.951   8.759  0.2723  0.4453 -0.2203
  473PYPI   C1B 7295  15.071  14.214   9.633  0.1014 -0.2718  0.0919
  473PYPI   C2B 7296  15.018  14.068   9.177  0.0189 -0.1462  0.2405
  473PYPI   C3B 7297  15.120  14.097   8.715 -0.0367  0.0938  0.0252
  473PYPI   C4B 7298  14.940  14.279   8.285  0.0055 -0.0144 -0.0141
  474PYPI    C1 7299  17.226   1.582  10.103  0.1293 -0.5315 -0.1829
  474PYPI    C2 7300  17.227   1.464  10.485  0.1892 -0.1284 -0.0543
  474PYPI    C3 7301  16.881   1.548  10.303  0.1794 -0.0534 -0.0020
  474PYPI   PO4 7302  17.378   1.475   9.979  0.0857  0.0223  0.4437
  474PYPI   GL1 7303  17.358   1.310   9.562 -0.0131  0.0657 -0.0813
  474PYPI   GL2 7304  17.640   1.233   9.578 -0.0010 -0.0466  0.2121
  474PYPI   C1A 7305  17.206   1.467   9.193 -0.0841  0.2436 -0.1021
  474PYPI   C2A 7306  17.320   1.495   8.707  0.1528  0.2822 -0.1461
  474PYPI   D3A 7307  17.246   1.644   8.292  0.0766  0.1911 -0.3643
  474PYPI   C4A 7308  17.384   2.020   8.171 -0.0159 -0.2231 -0.0300
  474PYPI   C1B 7309  17.708   1.525   9.232  0.2317  0.0551 -0.1137
  474PYPI   C2B 7310  17.797   1.661   8.820 -0.0841 -0.1847 -0.1106
  474PYPI   C3B 7311  17.752   1.790   8.430 -0.3298 -0.0050  0.0597
  474PYPI   C4B 7312  17.815   1.610   8.003 -0.0343 -0.1891  0.1987
  475PYPI    C1 7313  16.506  13.545  10.167 -0.0584 -0.0885 -0.0601
  475PYPI    C2 7314  16.528  13.371  10.526  0.0809 -0.0156 -0.0327
  475PYPI    C3 7315  16.527  13.770  10.497 -0.1761 -0.0195 -0.0988
  475PYPI   PO4 7316  16.661  13.247  10.037  0.1945 -0.0315  0.1381
  475PYPI   GL1 7317  16.510  13.213   9.602  0.1319 -0.1903 -0.0872
  475PYPI   GL2 7318  16.475  13.564   9.627 -0.1208 -0.1395  0.0422
  475PYPI   C1A 7319  16.273  13.299   9.219  0.1687  0.0625 -0.0515
  475PYPI   C2A 7320  16.183  13.091   8.831  0.1148  0.0024 -0.1021
  475PYPI   D3A 7321  16.452  13.087   8.456  0.0319 -0.2471  0.2758
  475PYPI   C4A 7322  16.634  13.468   8.271  0.2533  0.1243 -0.0195
  475PYPI   C1B 7323  16.592  13.693   9.270 -0.0975 -0.0513 -0.1564
  475PYPI   C2B 7324  16.874  14.024   9.064 -0.1903 -0.0482  0.1260
  475PYPI   C3B 7325  17.129  14.120   8.709  0.0736 -0.0067  0.0598
  475PYPI   C4B 7326  17.315  14.115   8.339  0.0852 -0.0309 -0.2854
  476PYPI    C1 7327   7.501  17.706  10.480  0.2299 -0.0643  0.1683
  476PYPI    C2 7328   7.184  17.492  10.363  0.3859 -0.1586 -0.0923
  476PYPI    C3 7329   7.264  17.534  10.753  0.0126 -0.0699 -0.0209
  476PYPI   PO4 7330   7.483  17.908  10.303  0.0177 -0.1565 -0.0633
  476PYPI   GL1 7331   7.284  17.690   9.940 -0.1579 -0.0663  0.0018
  476PYPI   GL2 7332   7.508  17.384   9.850  0.0326 -0.2532  0.2595
  476PYPI   C1A 7333   7.219  17.531   9.418  0.2380 -0.0911 -0.0647
  476PYPI   C2A 7334   7.133  17.400   9.039 -0.2456  0.2431  0.0825
  476PYPI   D3A 7335   7.325  17.308   8.689  0.0959  0.2271 -0.0061
  476PYPI   C4A 7336   7.309  17.327   8.226 -0.0044 -0.1384  0.2180
  476PYPI   C1B 7337   7.711  17.360   9.463 -0.0659 -0.1482  0.1169
  476PYPI   C2B 7338   7.699  17.343   9.033 -0.0725 -0.0910  0.2961
  476PYPI   C3B 7339   7.809  17.250   8.633 -0.0223 -0.3434  0.2488
  476PYPI   C4B 7340   7.739  17.068   8.193  0.1843  0.0550  0.0123
  477PYPI    C1 7341  16.938  11.147  10.153 -0.1228 -0.0789  0.0228
  477PYPI    C2 7342  17.035  10.869  10.424 -0.0587 -0.0320  0.0481
  477PYPI    C3 7343  17.277  11.183  10.364 -0.0671 -0.0482 -0.0711
  477PYPI   PO4 7344  16.641  11.101  10.157 -0.3490 -0.0428 -0.0011
  477PYPI   GL1 7345  16.301  10.861   9.983  0.1508 -0.0490 -0.2831
  477PYPI   GL2 7346  16.062  10.683  10.047 -0.0478 -0.0767  0.0264
  477PYPI   C1A 7347  16.326  10.739   9.498  0.2057  0.1034 -0.0783
  477PYPI   C2A 7348  16.251  10.671   9.010 -0.2112  0.0518 -0.5452
  477PYPI   D3A 7349  16.082  10.583   8.658  0.0636  0.1641  0.4017
  477PYPI   C4A 7350  16.091  10.767   8.280 -0.1881  0.0424  0.0465
  477PYPI   C1B 7351  15.875  10.499   9.698 -0.0134 -0.0941 -0.0707
  477PYPI   C2B 7352  15.729  10.616   9.249  0.0515  0.1273  0.1570
  477PYPI   C3B 7353  15.655  10.797   8.812  0.1759  0.2196 -0.1880
  477PYPI   C4B 7354  15.568  10.782   8.385 -0.0815 -0.2892 -0.1873
  478PYPI    C1 7355  17.092   5.254  10.633 -0.0821  0.1176  0.0248
  478PYPI    C2 7356  16.979   4.900  10.780 -0.0834  0.0856 -0.0526
  478PYPI    C3 7357  17.024   5.213  11.025 -0.2093  0.0652 -0.0022
  478PYPI   PO4 7358  16.921   5.232  10.403 -0.1486 -0.1448 -0.0504
  478PYPI   GL1 7359  16.674   5.318   9.954  0.3164 -0.2995 -0.2809
  478PYPI   GL2 7360  16.998   5.057   9.904 -0.0235  0.1990  0.0196
  478PYPI   C1A 7361  16.751   5.312   9.550 -0.0939 -0.1534 -0.0565
  478PYPI   C2A 7362  16.843   5.302   9.140  0.1137 -0.2339  0.1224
  478PYPI   D3A 7363  16.852   5.427   8.743 -0.0495  0.2307  0.4416
  478PYPI   C4A 7364  16.739   5.112   8.452  0.0655  0.4201  0.0434
  478PYPI   C1B 7365  17.214   5.196   9.491 -0.0286  0.0329  0.1946
  478PYPI   C2B 7366  17.309   5.294   9.077 -0.1915  0.2158 -0.0026
  478PYPI   C3B 7367  17.271   5.442   8.512 -0.0727  0.2661  0.3396
  478PYPI   C4B 7368  17.470   5.689   8.162  0.1907  0.2454 -0.0604
  479PYPI    C1 7369   1.768  13.323   9.986  0.0814  0.4211  0.0918
  479PYPI    C2 7370   1.960  13.119  10.272  0.0167 -0.0651 -0.2000
  479PYPI    C3 7371   1.579  13.229  10.326  0.1441  0.2570  0.0823
  479PYPI   PO4 7372   1.839  13.232   9.767 -0.3243  0.1273  0.0886
  479PYPI   GL1 7373   1.743  13.153   9.487 -0.1177 -0.2080  0.0668
  479PYPI   GL2 7374   1.844  12.841   9.351  0.2372 -0.2299  0.2338
  479PYPI   C1A 7375   1.669  13.382   9.067  0.3252  0.0997 -0.0719
  479PYPI   C2A 7376   1.647  13.283   8.637 -0.0807  0.0984 -0.2385
  479PYPI   D3A 7377   1.481  13.174   8.328  0.0295 -0.1935  0.4196
  479PYPI   C4A 7378   1.472  12.785   8.038  0.2763  0.0965  0.0222
  479PYPI   C1B 7379   1.789  12.861   8.882 -0.0401  0.3029  0.0063
  479PYPI   C2B 7380   1.900  12.841   8.428 -0.1090  0.0477  0.2190
  479PYPI   C3B 7381   1.890  13.008   8.039 -0.1329  0.1898  0.0926
  479PYPI   C4B 7382   1.882  13.303   7.712  0.0742  0.2732  0.1513
  480PYPI    C1 7383  17.601   0.051  10.160 -0.0638  0.0812 -0.1466
  480PYPI    C2 7384  17.696   0.272  10.479  0.0267 -0.2257  0.0434
  480PYPI    C3 7385  17.985   0.123  10.246 -0.0320 -0.1760 -0.0616
  480PYPI   PO4 7386  17.521   0.170   9.966  0.0398  0.3345  0.1218
  480PYPI   GL1 7387  17.432   0.057   9.538  0.0721 -0.1487  0.3749
  480PYPI   GL2 7388  17.200   0.228   9.478 -0.3054 -0.0020 -0.0693
  480PYPI   C1A 7389  17.433  -0.192   9.061  0.2438  0.2314 -0.0854
  480PYPI   C2A 7390  17.161  -0.354   8.840 -0.0012  0.1482  0.3492
  480PYPI   D3A 7391  16.895  -0.312   8.388 -0.3806 -0.1293 -0.0706
  480PYPI   C4A 7392  16.898   0.117   8.143 -0.0830  0.0451 -0.0623
  480PYPI   C1B 7393  16.978   0.085   9.096  0.1905  0.3983 -0.0591
  480PYPI   C2B 7394  16.562   0.064   8.983 -0.2242 -0.2586 -0.1114
  480PYPI   C3B 7395  16.569   0.058   8.546 -0.0073 -0.3693 -0.2838
  480PYPI   C4B 7396  16.457   0.313   8.181  0.0853 -0.3032  0.1235
  481PYPI    C1 7397   3.497   5.664  10.558 -0.1201  0.1315  0.0342
  481PYPI    C2 7398   3.398   5.308  10.403 -0.2376  0.2591 -0.1891
  481PYPI    C3 7399   3.517   5.334  10.784 -0.1537 -0.0293 -0.1933
  481PYPI   PO4 7400   3.316   5.826  10.437  0.0796  0.0113  0.0298
  481PYPI   GL1 7401   3.048   5.821  10.130 -0.1382 -0.1049  0.1835
  481PYPI   GL2 7402   2.919   5.510  10.252 -0.1568  0.3161  0.2202
  481PYPI   C1A 7403   3.188   5.948   9.698  0.2832 -0.0743 -0.1645
  481PYPI   C2A 7404   3.448   5.995   9.320 -0.0690  0.0528  0.1280
  481PYPI   D3A 7405   3.426   6.268   8.903  0.1413  0.0111 -0.3961
  481PYPI   C4A 7406   3.035   6.240   8.542 -0.1004 -0.0800  0.0264
  481PYPI   C1B 7407   3.051   5.390   9.854  0.0858  0.1642 -0.2187
  481PYPI   C2B 7408   2.969   4.993   9.637 -0.2313  0.1950  0.1849
  481PYPI   C3B 7409   3.083   4.554   9.419  0.2910  0.1140 -0.0128
  481PYPI   C4B 7410   3.067   4.245   9.725  0.0345 -0.1163  0.0528
  482PYPI    C1 7411   5.568   6.849  10.729 -0.2397 -0.0276  0.2788
  482PYPI    C2 7412   5.573   7.208  10.554 -0.0556 -0.0605  0.2143
  482PYPI    C3 7413   5.225   7.044  10.663 -0.1579  0.0396  0.0431
  482PYPI   PO4 7414   5.785   6.740  10.489 -0.2946  0.2581  0.1049
  482PYPI   GL1 7415   5.754   6.315  10.162 -0.0357 -0.0666 -0.2263
  482PYPI   GL2 7416   5.476   6.461  10.083 -0.0339 -0.2015  0.0867
  482PYPI   C1A 7417   5.903   6.097   9.903 -0.0024 -0.2714  0.1177
  482PYPI   C2A 7418   5.892   6.110   9.467  0.2139  0.0251  0.1663
  482PYPI   D3A 7419   5.828   6.091   9.039  0.2088 -0.0784 -0.0844
  482PYPI   C4A 7420   5.795   6.109   8.683 -0.1818  0.0605  0.1822
  482PYPI   C1B 7421   5.486   6.302   9.699 -0.0989  0.0988 -0.1519
  482PYPI   C2B 7422   5.441   6.274   9.297 -0.0591 -0.2381  0.2201
  482PYPI   C3B 7423   5.388   6.342   8.806  0.4285 -0.2099  0.1551
  482PYPI   C4B 7424   5.413   6.079   8.297  0.3708 -0.1250 -0.2823
  483PYPI    C1 7425   5.732  12.918  10.047  0.0014  0.1680  0.0464
  483PYPI    C2 7426   6.049  12.673  10.052 -0.2052 -0.1049  0.0061
  483PYPI    C3 7427   5.829  12.722  10.383 -0.1899 -0.0059  0.0020
  483PYPI   PO4 7428   5.675  12.881   9.764  0.2955 -0.1220 -0.0599
  483PYPI   GL1 7429   5.792  12.970   9.418 -0.0634  0.1527 -0.1295
  483PYPI   GL2 7430   5.521  13.271   9.479  0.0181  0.4285 -0.0892
  483PYPI   C1A 7431   5.796  13.090   8.988  0.0098  0.0848 -0.0012
  483PYPI   C2A 7432   5.878  12.848   8.560  0.1066 -0.0027 -0.1345
  483PYPI   D3A 7433   6.079  12.700   8.154 -0.0063 -0.3103 -0.1321
  483PYPI   C4A 7434   6.483  12.994   8.083 -0.1153  0.2546  0.0369
  483PYPI   C1B 7435   5.397  13.348   9.139  0.3864 -0.1431  0.0591
  483PYPI   C2B 7436   5.545  13.413   8.687 -0.4246  0.3023 -0.2019
  483PYPI   C3B 7437   5.643  13.402   8.228  0.1701  0.2324  0.1871
  483PYPI   C4B 7438   5.851  13.090   8.084  0.4507  0.1147 -0.0903
  484PYPI    C1 7439   9.173   4.073  10.331 -0.1215  0.0143 -0.1254
  484PYPI    C2 7440   9.330   3.879  10.643  0.1050  0.3568 -0.0202
  484PYPI    C3 7441   8.972   4.053  10.676  0.0353  0.2150 -0.0201
  484PYPI   PO4 7442   9.277   3.938  10.092 -0.1681  0.2072  0.1744
  484PYPI   GL1 7443   9.371   3.885   9.785  0.1473  0.2134 -0.0233
  484PYPI   GL2 7444   9.726   4.001   9.698 -0.0937  0.1768 -0.1661
  484PYPI   C1A 7445   9.296   4.190   9.462  0.3568  0.0517 -0.1924
  484PYPI   C2A 7446   9.107   4.536   9.470 -0.0912  0.0278  0.1146
  484PYPI   D3A 7447   8.865   4.705   9.736  0.2801  0.4375 -0.2454
  484PYPI   C4A 7448   8.817   5.018   9.523 -0.1086  0.0508  0.1452
  484PYPI   C1B 7449   9.688   3.993   9.287 -0.0517  0.2121  0.1063
  484PYPI   C2B 7450   9.678   3.910   8.876  0.1598 -0.1685  0.3181
  484PYPI   C3B 7451   9.377   3.926   8.514  0.0486  0.1458 -0.0263
  484PYPI   C4B 7452   9.004   4.134   8.370  0.2156  0.4928 -0.0556
  485PYPI    C1 7453   0.756   9.574  10.719 -0.0672 -0.0960 -0.1226
  485PYPI    C2 7454   0.461   9.759  10.915  0.2531  0.4701 -0.1542
  485PYPI    C3 7455   0.679   9.480  11.101 -0.3262 -0.0015 -0.1494
  485PYPI   PO4 7456   0.540   9.448  10.474 -0.1615  0.1139  0.1744
  485PYPI   GL1 7457   0.587   9.338  10.066  0.3386 -0.3989  0.4094
  485PYPI   GL2 7458   0.474   9.057   9.959 -0.1975 -0.1180  0.4086
  485PYPI   C1A 7459   0.788   9.367   9.703  0.3144  0.2132 -0.0486
  485PYPI   C2A 7460   1.104   9.263   9.411  0.2030  0.1330  0.1540
  485PYPI   D3A 7461   1.052   9.148   9.005 -0.0618  0.0670  0.0375
  485PYPI   C4A 7462   1.305   8.732   8.832 -0.3916 -0.0042 -0.0342
  485PYPI   C1B 7463   0.409   8.993   9.639 -0.1346  0.2017 -0.0184
  485PYPI   C2B 7464   0.251   8.853   9.189 -0.0217  0.0237  0.0652
  485PYPI   C3B 7465   0.193   8.522   8.833  0.0905  0.0455  0.0592
  485PYPI   C4B 7466   0.176   8.375   8.425 -0.0999 -0.2233 -0.3987
  486PYPI    C1 7467  18.065  14.521  10.593  0.1324 -0.1616 -0.0019
  486PYPI    C2 7468  18.449  14.408  10.590  0.1733 -0.0232 -0.0835
  486PYPI    C3 7469  18.292  14.572  10.919  0.1353 -0.2415  0.0086
  486PYPI   PO4 7470  18.044  14.420  10.295 -0.0414  0.1466 -0.0210
  486PYPI   GL1 7471  17.905  14.481   9.921  0.0221  0.1112  0.2584
  486PYPI   GL2 7472  17.679  14.339   9.775 -0.1943  0.1066  0.0709
  486PYPI   C1A 7473  18.119  14.696   9.651  0.1071  0.3487  0.4298
  486PYPI   C2A 7474  18.487  14.626   9.353  0.2442  0.1946  0.2061
  486PYPI   D3A 7475  18.593  14.319   9.305 -0.0725  0.2561 -0.0165
  486PYPI   C4A 7476  18.842  14.391   8.939 -0.0426  0.5381  0.1008
  486PYPI   C1B 7477  17.706  14.554   9.317 -0.1690  0.2889  0.0326
  486PYPI   C2B 7478  17.448  14.484   8.871  0.0613 -0.2171 -0.2786
  486PYPI   C3B 7479  17.635  14.467   8.401  0.2997  0.0474 -0.0140
  486PYPI   C4B 7480  17.862  14.697   8.131  0.0567  0.1848 -0.0011
  487PYPI    C1 7481   0.834  10.671  10.460  0.2784  0.1424 -0.0839
  487PYPI    C2 7482   0.911  11.027  10.625  0.0953  0.0977  0.1023
  487PYPI    C3 7483   0.664  10.772  10.807  0.1652 -0.0949 -0.0687
  487PYPI   PO4 7484   0.717  10.713  10.163  0.0987  0.1127  0.3012
  487PYPI   GL1 7485   1.008  10.770   9.749  0.3154 -0.2219  0.3296
  487PYPI   GL2 7486   0.832  10.397   9.715  0.2790  0.0160 -0.1510
  487PYPI   C1A 7487   0.990  10.678   9.292 -0.0812 -0.3291  0.1361
  487PYPI   C2A 7488   0.969  10.639   8.956 -0.1481 -0.1722  0.0792
  487PYPI   D3A 7489   1.049  10.467   8.546 -0.0805 -0.3634  0.2242
  487PYPI   C4A 7490   1.228  10.641   8.212 -0.1758 -0.2151 -0.1697
  487PYPI   C1B 7491   0.672  10.295   9.235  0.0473  0.2376 -0.0681
  487PYPI   C2B 7492   0.653  10.271   8.835 -0.0808  0.1579  0.0643
  487PYPI   C3B 7493   0.639  10.321   8.313  0.2875 -0.0218  0.0731
  487PYPI   C4B 7494   0.938  10.283   8.095 -0.1704  0.1311 -0.0342
  488PYPI    C1 7495   9.488  17.462  10.401 -0.3554 -0.0810  0.0409
  488PYPI    C2 7496   9.350  17.091  10.350 -0.0409 -0.1761 -0.1491
  488PYPI    C3 7497   9.734  17.150  10.442 -0.1377  0.0955  0.0980
  488PYPI   PO4 7498   9.190  17.582  10.374 -0.1192  0.2295 -0.1899
  488PYPI   GL1 7499   8.982  17.705   9.994 -0.0799  0.0360  0.0326
  488PYPI   GL2 7500   9.198  17.444   9.891 -0.3804  0.0882 -0.1961
  488PYPI   C1A 7501   8.966  17.787   9.549 -0.1169  0.2260 -0.1794
  488PYPI   C2A 7502   8.984  17.725   9.090  0.2751 -0.2337 -0.1141
  488PYPI   D3A 7503   9.066  17.650   8.662 -0.2661 -0.1502  0.1054
  488PYPI   C4A 7504   8.826  17.839   8.292 -0.2723 -0.4985  0.1159
  488PYPI   C1B 7505   9.163  17.295   9.477 -0.1761  0.0866 -0.1673
  488PYPI   C2B 7506   9.212  17.258   9.045  0.2120  0.0246 -0.2483
  488PYPI   C3B 7507   9.460  17.297   8.618 -0.0227  0.0972 -0.0828
  488PYPI   C4B 7508   9.646  17.240   8.255 -0.0259 -0.0413 -0.0795
  489PYPI    C1 7509   8.734   6.678  10.394 -0.0237  0.0722  0.0067
  489PYPI    C2 7510   8.353   6.756  10.488 -0.0128  0.0743  0.0493
  489PYPI    C3 7511   8.594   7.052  10.366 -0.0025  0.0875  0.1016
  489PYPI   PO4 7512   8.725   6.443  10.196 -0.2572  0.0979 -0.0989
  489PYPI   GL1 7513   8.598   6.275   9.842 -0.1621 -0.0339  0.1203
  489PYPI   GL2 7514   8.330   6.093   9.765 -0.0213  0.0908 -0.0171
  489PYPI   C1A 7515   8.719   6.574   9.504 -0.1934 -0.2585 -0.0770
  489PYPI   C2A 7516   9.027   6.740   9.184 -0.0558 -0.0742 -0.0953
  489PYPI   D3A 7517   9.282   6.753   8.843  0.0290  0.1032  0.3123
  489PYPI   C4A 7518   9.233   6.893   8.445 -0.0522 -0.0403 -0.2701
  489PYPI   C1B 7519   8.316   6.312   9.433 -0.5568  0.0856  0.1786
  489PYPI   C2B 7520   8.386   6.598   9.120  0.0642 -0.1714  0.0335
  489PYPI   C3B 7521   8.325   6.798   8.786 -0.1737 -0.2677  0.2198
  489PYPI   C4B 7522   8.244   6.874   8.352 -0.0965 -0.0588  0.0141
  490PYPI    C1 7523  10.713   3.844  10.691 -0.1867 -0.0389  0.3552
  490PYPI    C2 7524  11.066   3.770  10.864  0.0116 -0.0212 -0.0309
  490PYPI    C3 7525  10.934   4.147  10.830 -0.0208 -0.0236  0.0666
  490PYPI   PO4 7526  10.790   3.782  10.412  0.0695 -0.1050  0.1186
  490PYPI   GL1 7527  11.000   3.870   9.978 -0.2207  0.2424  0.1785
  490PYPI   GL2 7528  11.059   3.958   9.691 -0.0150 -0.1841  0.3413
  490PYPI   C1A 7529  10.941   3.477   9.826 -0.3025  0.0558  0.1800
  490PYPI   C2A 7530  11.124   3.427   9.396 -0.0272 -0.0834  0.1519
  490PYPI   D3A 7531  11.047   3.415   8.985  0.1389  0.2357 -0.4613
  490PYPI   C4A 7532  10.939   3.653   8.604  0.0773 -0.2022  0.1664
  490PYPI   C1B 7533  11.062   3.898   9.224 -0.0779  0.3114 -0.1894
  490PYPI   C2B 7534  11.367   3.818   8.854  0.3259  0.3610  0.1069
  490PYPI   C3B 7535  11.426   3.908   8.381 -0.0658  0.0850  0.1322
  490PYPI   C4B 7536  11.468   4.153   7.979  0.0573 -0.0967 -0.1534
  491PYPI    C1 7537  13.056  10.723  10.862  0.1180 -0.0019 -0.1504
  491PYPI    C2 7538  13.156  11.062  10.674 -0.2345  0.1081 -0.1461
  491PYPI    C3 7539  12.873  11.065  10.956  0.0122 -0.1280  0.1109
  491PYPI   PO4 7540  13.040  10.550  10.646  0.0723 -0.0173  0.1638
  491PYPI   GL1 7541  12.760  10.447  10.327  0.0337 -0.1972 -0.1586
  491PYPI   GL2 7542  12.647  10.327  10.091  0.0098  0.1303 -0.1324
  491PYPI   C1A 7543  12.613  10.845  10.124  0.0295 -0.3414  0.1168
  491PYPI   C2A 7544  12.347  11.086   9.926  0.1843 -0.0587 -0.2723
  491PYPI   D3A 7545  12.123  11.411   9.745 -0.1322  0.1723 -0.1171
  491PYPI   C4A 7546  12.029  11.522   9.263 -0.0200 -0.2966 -0.0908
  491PYPI   C1B 7547  12.545  10.368   9.647  0.1838 -0.0242 -0.2193
  491PYPI   C2B 7548  12.493  10.465   9.326  0.3022 -0.2524 -0.2185
  491PYPI   C3B 7549  12.467  10.454   8.816 -0.1542 -0.3005 -0.1089
  491PYPI   C4B 7550  12.584  10.626   8.477  0.0232 -0.2053  0.5462
  492PYPI    C1 7551  15.872  13.677  10.440 -0.1789  0.0304  0.0827
  492PYPI    C2 7552  15.566  13.570  10.206 -0.1248  0.0835 -0.0131
  492PYPI    C3 7553  15.728  13.933  10.169 -0.0688  0.0658  0.0571
  492PYPI   PO4 7554  16.056  13.508  10.371  0.0366  0.0067  0.0926
  492PYPI   GL1 7555  16.060  13.460   9.939  0.0111  0.2608 -0.0415
  492PYPI   GL2 7556  16.164  13.809   9.943 -0.1565 -0.2557  0.2070
  492PYPI   C1A 7557  15.912  13.131   9.658  0.1318 -0.1323  0.0957
  492PYPI   C2A 7558  15.897  12.887   9.231  0.0749 -0.0887 -0.3632
  492PYPI   D3A 7559  15.535  12.927   8.991  0.1160  0.2198 -0.0585
  492PYPI   C4A 7560  15.352  12.854   8.514 -0.1928 -0.0882  0.4348
  492PYPI   C1B 7561  16.224  14.157   9.555 -0.0278  0.0003  0.2812
  492PYPI   C2B 7562  16.412  14.235   9.211 -0.0539 -0.1215 -0.1330
  492PYPI   C3B 7563  16.407  14.027   8.809  0.1961 -0.0425 -0.0661
  492PYPI   C4B 7564  16.277  13.912   8.371  0.1236 -0.0623 -0.0659
  493PYPI    C1 7565  15.010   8.453  10.779 -0.1341  0.1352  0.0530
  493PYPI    C2 7566  14.679   8.230  10.795  0.0636 -0.1802 -0.1311
  493PYPI    C3 7567  14.962   8.187  11.074  0.0161 -0.0166 -0.0568
  493PYPI   PO4 7568  15.080   8.478  10.560 -0.1900  0.2788 -0.1799
  493PYPI   GL1 7569  15.022   8.445  10.155 -0.1931  0.0255  0.0887
  493PYPI   GL2 7570  14.668   8.503  10.093 -0.1567  0.0754  0.3087
  493PYPI   C1A 7571  15.022   8.769   9.855 -0.2659  0.0404  0.1012
  493PYPI   C2A 7572  14.957   8.821   9.388  0.0317  0.1821 -0.1188
  493PYPI   D3A 7573  14.948   8.903   8.949 -0.2552 -0.1596  0.0872
  493PYPI   C4A 7574  14.838   8.955   8.525  0.1616 -0.1021 -0.2257
  493PYPI   C1B 7575  14.561   8.634   9.686  0.2399 -0.1947  0.1585
  493PYPI   C2B 7576  14.489   8.645   9.278  0.3294  0.0219 -0.3688
  493PYPI   C3B 7577  14.444   8.686   8.868  0.1047 -0.0592  0.0263
  493PYPI   C4B 7578  14.391   8.803   8.407  0.0895 -0.0187 -0.3575
  494PYPI    C1 7579   5.877   2.117  10.232  0.0453  0.1064 -0.1134
  494PYPI    C2 7580   5.642   2.292  10.504 -0.0392  0.1506 -0.2143
  494PYPI    C3 7581   5.483   2.046  10.230  0.0796 -0.0923 -0.0684
  494PYPI   PO4 7582   6.103   2.146  10.202 -0.2239  0.0865 -0.2072
  494PYPI   GL1 7583   6.441   2.059  10.061  0.2094 -0.0632 -0.1616
  494PYPI   GL2 7584   6.745   1.950   9.959 -0.2744  0.0447 -0.1869
  494PYPI   C1A 7585   6.367   2.091   9.608 -0.1044 -0.1708 -0.0045
  494PYPI   C2A 7586   6.320   2.321   9.110 -0.1100 -0.0627  0.0215
  494PYPI   D3A 7587   6.509   2.199   8.735 -0.2570  0.0937  0.1266
  494PYPI   C4A 7588   6.506   2.270   8.230  0.1869 -0.0330 -0.1477
  494PYPI   C1B 7589   6.843   2.059   9.483 -0.0210  0.0276  0.1616
  494PYPI   C2B 7590   6.946   2.000   9.066  0.0729 -0.0919 -0.0870
  494PYPI   C3B 7591   7.088   1.972   8.589  0.0330  0.0137  0.2711
  494PYPI   C4B 7592   6.944   1.875   8.186  0.3627 -0.2822 -0.1225
  495PYPI    C1 7593  13.474   2.470  10.613  0.2694 -0.0646 -0.0471
  495PYPI    C2 7594  13.450   2.136  10.832  0.1379 -0.0516 -0.0411
  495PYPI    C3 7595  13.198   2.439  10.900  0.0682 -0.0635 -0.2382
  495PYPI   PO4 7596  13.362   2.500  10.305 -0.4460 -0.1959  0.1494
  495PYPI   GL1 7597  13.305   2.158   9.969  0.1165  0.0526  0.0459
  495PYPI   GL2 7598  13.431   1.954   9.901  0.0895 -0.1537 -0.0660
  495PYPI   C1A 7599  13.038   2.146   9.568 -0.2137  0.0019 -0.2389
  495PYPI   C2A 7600  12.922   2.300   9.115  0.3535  0.1035  0.1297
  495PYPI   D3A 7601  12.818   2.402   8.722  0.0834 -0.2523 -0.0869
  495PYPI   C4A 7602  13.049   2.390   8.360 -0.1077 -0.1591  0.1135
  495PYPI   C1B 7603  13.561   2.182   9.537  0.1879 -0.0766 -0.2510
  495PYPI   C2B 7604  13.663   2.171   9.112  0.1027 -0.0175 -0.3577
  495PYPI   C3B 7605  13.817   2.021   8.772  0.0437 -0.0939  0.0082
  495PYPI   C4B 7606  13.801   1.895   8.348 -0.0258  0.0961 -0.1798
  496PYPI    C1 7607   3.397   3.121  10.742  0.0859 -0.1456 -0.2100
  496PYPI    C2 7608   3.614   2.925  11.015  0.0036 -0.0986 -0.1101
  496PYPI    C3 7609   3.629   3.325  10.997 -0.1744 -0.0866 -0.0154
  496PYPI   PO4 7610   3.470   3.206  10.508  0.1151 -0.0682  0.1556
  496PYPI   GL1 7611   3.340   3.167  10.213 -0.2375  0.0522 -0.2178
  496PYPI   GL2 7612   3.077   3.328  10.023 -0.1085 -0.1204  0.0824
  496PYPI   C1A 7613   3.374   3.047   9.791 -0.0909  0.4005  0.0010
  496PYPI   C2A 7614   3.310   3.140   9.321 -0.0804 -0.1702 -0.0878
  496PYPI   D3A 7615   3.202   3.232   8.906  0.1463 -0.0430 -0.0767
  496PYPI   C4A 7616   3.076   3.530   8.617 -0.2357  0.3148 -0.0314
  496PYPI   C1B 7617   2.941   3.291   9.619 -0.2120 -0.1337  0.0469
  496PYPI   C2B 7618   2.901   3.416   9.254 -0.0111  0.0221  0.3597
  496PYPI   C3B 7619   2.606   3.257   9.030  0.0064 -0.1350 -0.0470
  496PYPI   C4B 7620   2.658   3.104   8.683  0.0395 -0.1202 -0.0285
  497PYPI    C1 7621  16.374   8.409  10.525 -0.2491  0.1587 -0.0730
  497PYPI    C2 7622  16.632   8.560  10.791  0.0327 -0.0627 -0.2162
  497PYPI    C3 7623  16.340   8.316  10.913  0.1718 -0.1779 -0.1099
  497PYPI   PO4 7624  16.513   8.306  10.380  0.1836 -0.1450  0.0992
  497PYPI   GL1 7625  16.615   8.183  10.032 -0.2147  0.1340  0.0243
  497PYPI   GL2 7626  16.805   8.442   9.976 -0.2138  0.0666 -0.0037
  497PYPI   C1A 7627  16.992   7.968   9.741  0.0221 -0.1312 -0.2420
  497PYPI   C2A 7628  17.321   8.100   9.948  0.2132 -0.0383  0.0188
  497PYPI   D3A 7629  17.719   8.318   9.925 -0.0908 -0.2420  0.1284
  497PYPI   C4A 7630  17.967   8.339   9.668  0.0112 -0.0408 -0.3048
  497PYPI   C1B 7631  16.926   8.386   9.506  0.0971  0.0667 -0.0295
  497PYPI   C2B 7632  16.911   8.144   9.141  0.2533 -0.1453 -0.0478
  497PYPI   C3B 7633  17.009   7.885   8.739 -0.2760 -0.1495 -0.0398
  497PYPI   C4B 7634  17.152   8.164   8.534  0.0722  0.3876 -0.3554
  498PYPI    C1 7635  10.955  13.558  10.671  0.1293 -0.0658  0.0896
  498PYPI    C2 7636  10.987  13.954  10.627  0.0301 -0.0733 -0.0602
  498PYPI    C3 7637  10.853  13.801  10.971  0.1164  0.0204  0.0160
  498PYPI   PO4 7638  10.876  13.446  10.276 -0.3072 -0.1186 -0.2855
  498PYPI   GL1 7639  11.028  13.357   9.900  0.1357 -0.0900  0.1757
  498PYPI   GL2 7640  11.227  13.597   9.802 -0.1798  0.3849  0.0620
  498PYPI   C1A 7641  11.044  13.183   9.579  0.2103  0.0198  0.1912
  498PYPI   C2A 7642  10.955  13.135   9.272  0.1892 -0.0006  0.0008
  498PYPI   D3A 7643  11.054  13.243   8.921  0.0605 -0.0379 -0.0171
  498PYPI   C4A 7644  10.950  13.075   8.492  0.1032  0.4292  0.3809
  498PYPI   C1B 7645  11.404  13.545   9.376 -0.0174  0.0798 -0.1543
  498PYPI   C2B 7646  11.371  13.632   8.961  0.0415 -0.1853  0.2098
  498PYPI   C3B 7647  11.208  13.558   8.500  0.0466 -0.1946  0.1674
  498PYPI   C4B 7648  11.008  13.485   8.121  0.1042  0.2949 -0.1044
  499PYPI    C1 7649  18.015  10.842  10.572  0.2598 -0.2553  0.2737
  499PYPI    C2 7650  17.894  10.963  10.933  0.1778  0.0075  0.1614
  499PYPI    C3 7651  18.197  11.150  10.751 -0.1050  0.2039 -0.1166
  499PYPI   PO4 7652  17.702  10.890  10.469 -0.1250  0.0844 -0.1244
  499PYPI   GL1 7653  17.405  10.790  10.130 -0.1642 -0.3858  0.1933
  499PYPI   GL2 7654  17.255  10.487  10.113 -0.2307 -0.0140  0.2710
  499PYPI   C1A 7655  17.239  10.972   9.748  0.1049 -0.2371  0.0646
  499PYPI   C2A 7656  17.196  11.186   9.419 -0.0873  0.2089 -0.0889
  499PYPI   D3A 7657  17.172  11.225   8.981 -0.1589 -0.3143  0.0740
  499PYPI   C4A 7658  17.138  11.658   8.844 -0.0770 -0.1309  0.0868
  499PYPI   C1B 7659  17.486  10.445   9.708  0.0522  0.1067  0.1720
  499PYPI   C2B 7660  17.582  10.381   9.300  0.0990 -0.2137 -0.1378
  499PYPI   C3B 7661  17.553  10.315   8.844  0.0260  0.2121 -0.1921
  499PYPI   C4B 7662  17.715  10.191   8.480  0.1040  0.3482  0.1641
  500PYPI    C1 7663   8.895  13.704  10.615  0.0606  0.1840  0.2490
  500PYPI    C2 7664   9.221  13.634  10.836  0.1435  0.0815  0.0955
  500PYPI    C3 7665   8.905  13.391  10.863  0.1693  0.0451  0.0715
  500PYPI   PO4 7666   9.075  13.904  10.368 -0.0558  0.2319  0.0475
  500PYPI   GL1 7667   9.083  14.199   9.996 -0.0762  0.1564  0.0614
  500PYPI   GL2 7668   9.425  14.061   9.985  0.0842  0.0585  0.0761
  500PYPI   C1A 7669   9.231  14.390   9.653 -0.0322  0.0945 -0.0890
  500PYPI   C2A 7670   9.218  14.424   9.238 -0.0720  0.1404  0.1647
  500PYPI   D3A 7671   9.145  14.759   8.977  0.2043  0.2012 -0.0156
  500PYPI   C4A 7672   9.337  14.645   8.553 -0.0311  0.0288 -0.2936
  500PYPI   C1B 7673   9.586  14.036   9.550  0.1295  0.2589 -0.3333
  500PYPI   C2B 7674   9.653  14.010   9.158 -0.1526  0.3127  0.1564
  500PYPI   C3B 7675   9.540  14.121   8.741  0.0028 -0.0094 -0.1665
  500PYPI   C4B 7676   9.529  14.107   8.349  0.2207 -0.0057  0.2068
  501PYPI    C1 7677   6.480  10.929  10.521 -0.2897 -0.0988 -0.0049
  501PYPI    C2 7678   6.517  10.579  10.711  0.0641 -0.0623 -0.0003
  501PYPI    C3 7679   6.506  10.920  10.920  0.1606 -0.0421 -0.0279
  501PYPI   PO4 7680   6.244  10.845  10.254 -0.0832 -0.2089 -0.2802
  501PYPI   GL1 7681   6.158  10.718   9.889  0.0996  0.0227  0.1793
  501PYPI   GL2 7682   6.126  10.432   9.880  0.1073  0.0903  0.2490
  501PYPI   C1A 7683   6.235  10.862   9.506  0.2774  0.0055 -0.0751
  501PYPI   C2A 7684   6.181  10.875   9.092 -0.1121 -0.0910 -0.1788
  501PYPI   D3A 7685   6.168  10.855   8.746 -0.0045 -0.1527  0.0094
  501PYPI   C4A 7686   6.271  11.064   8.454  0.0319 -0.2156  0.1506
  501PYPI   C1B 7687   6.176  10.370   9.456  0.0654  0.0950 -0.3341
  501PYPI   C2B 7688   6.144  10.402   9.023  0.0194  0.0609 -0.0084
  501PYPI   C3B 7689   6.283  10.355   8.610 -0.0122  0.0386 -0.0496
  501PYPI   C4B 7690   6.409  10.202   8.146 -0.0438 -0.0597 -0.0144
  502PYPI    C1 7691  11.500   1.284  10.225 -0.0703  0.1985 -0.1568
  502PYPI    C2 7692  11.279   1.198  10.546  0.3332 -0.1321  0.0414
  502PYPI    C3 7693  11.542   1.498  10.560  0.1813  0.0077 -0.0636
  502PYPI   PO4 7694  11.299   1.354  10.026  0.2021  0.1225  0.1664
  502PYPI   GL1 7695  11.142   1.280   9.707  0.1009 -0.0966 -0.0199
  502PYPI   GL2 7696  11.392   1.557   9.572  0.1590  0.2333  0.0214
  502PYPI   C1A 7697  11.083   1.109   9.288  0.1265 -0.0869 -0.2092
  502PYPI   C2A 7698  10.948   1.131   8.954  0.1192 -0.0200 -0.0435
  502PYPI   D3A 7699  10.694   1.349   8.687  0.2154 -0.1351 -0.0086
  502PYPI   C4A 7700  10.395   1.484   8.938 -0.0608  0.1816  0.1879
  502PYPI   C1B 7701  11.348   1.986   9.296 -0.2175  0.2655  0.3605
  502PYPI   C2B 7702  11.333   2.073   8.796  0.2862 -0.1238  0.1091
  502PYPI   C3B 7703  11.370   2.057   8.295  0.3850 -0.1450  0.0617
  502PYPI   C4B 7704  11.075   1.876   8.035 -0.0066  0.1573 -0.0459
  503PYPI    C1 7705  12.015  10.549  10.684  0.1239 -0.0624 -0.0908
  503PYPI    C2 7706  12.055  10.853  10.940  0.0042  0.0620 -0.2178
  503PYPI    C3 7707  12.099  10.477  11.068 -0.0918  0.1212 -0.0069
  503PYPI   PO4 7708  12.097  10.654  10.453 -0.0639  0.1398 -0.0581
  503PYPI   GL1 7709  12.217  10.559  10.029 -0.1228  0.0998 -0.0756
  503PYPI   GL2 7710  11.876  10.573   9.970 -0.1107  0.4023 -0.1397
  503PYPI   C1A 7711  12.161  10.695   9.571  0.1562 -0.1460  0.1181
  503PYPI   C2A 7712  12.212  11.033   9.321 -0.0957  0.0349  0.3526
  503PYPI   D3A 7713  12.479  11.369   9.346  0.1960 -0.2133 -0.2421
  503PYPI   C4A 7714  12.595  11.469   9.732  0.0402  0.0353 -0.1127
  503PYPI   C1B 7715  11.650  10.532   9.670 -0.1393 -0.1451 -0.0907
  503PYPI   C2B 7716  11.811  10.524   9.228 -0.0264  0.0014 -0.0354
  503PYPI   C3B 7717  12.052  10.736   8.920 -0.2803 -0.2260 -0.0857
  503PYPI   C4B 7718  12.085  11.127   8.847  0.0194 -0.1624 -0.1595
  504PYPI    C1 7719  12.691  17.846  10.033 -0.0057  0.1751  0.0566
  504PYPI    C2 7720  13.061  17.982  10.100  0.0857 -0.0799  0.0825
  504PYPI    C3 7721  12.835  17.859  10.406  0.0290 -0.0510  0.0525
  504PYPI   PO4 7722  12.733  17.632   9.850  0.1599  0.0857 -0.0671
  504PYPI   GL1 7723  12.876  17.788   9.444 -0.1383 -0.1007 -0.0775
  504PYPI   GL2 7724  13.015  17.986   9.598 -0.2241 -0.0672 -0.0373
  504PYPI   C1A 7725  12.957  17.824   9.114  0.1872 -0.0229 -0.3408
  504PYPI   C2A 7726  13.342  18.031   8.787 -0.0327 -0.2517  0.0441
  504PYPI   D3A 7727  13.680  18.192   8.615 -0.0693  0.1795  0.4038
  504PYPI   C4A 7728  13.771  18.173   8.176 -0.0398 -0.1193  0.0380
  504PYPI   C1B 7729  13.033  18.291   9.329 -0.1589 -0.0519  0.2052
  504PYPI   C2B 7730  13.229  18.441   8.989 -0.1725 -0.1380  0.0527
  504PYPI   C3B 7731  13.391  18.594   8.642  0.0110 -0.0813  0.0297
  504PYPI   C4B 7732  13.351  18.486   8.215  0.0355 -0.0246  0.1630
  505PYPI    C1 7733  16.604  16.148  10.350  0.0878  0.0332 -0.0536
  505PYPI    C2 7734  16.524  16.475  10.566  0.1196  0.0569 -0.0775
  505PYPI    C3 7735  16.610  16.130  10.749  0.1920  0.0881 -0.0523
  505PYPI   PO4 7736  16.658  16.298  10.127 -0.0596  0.0087 -0.1014
  505PYPI   GL1 7737  16.783  16.144   9.824  0.2902  0.0018 -0.4062
  505PYPI   GL2 7738  16.959  16.296   9.652  0.0651  0.2697  0.0622
  505PYPI   C1A 7739  16.533  15.949   9.369 -0.0160 -0.1594  0.0955
  505PYPI   C2A 7740  16.492  15.911   8.894 -0.1243 -0.2591 -0.0179
  505PYPI   D3A 7741  16.429  15.642   8.603 -0.1151  0.1151  0.0037
  505PYPI   C4A 7742  16.732  15.403   8.489 -0.2722  0.0456 -0.0575
  505PYPI   C1B 7743  16.941  16.289   9.242  0.0442 -0.0766 -0.1405
  505PYPI   C2B 7744  17.102  16.380   8.784  0.0030  0.1176  0.1850
  505PYPI   C3B 7745  17.352  16.143   8.513  0.0718  0.1860  0.2822
  505PYPI   C4B 7746  17.599  15.897   8.291  0.1163 -0.0789 -0.0226
  506ERGO   ROH 7747   1.308  15.124   9.416  0.0391  0.0779  0.0024
  506ERGO    R1 7748   1.191  15.170   9.163  0.0135  0.0373  0.0072
  506ERGO    R2 7749   1.298  15.347   8.979  0.0222 -0.0302 -0.0502
  506ERGO    R3 7750   1.290  15.131   8.815 -0.0429 -0.0684  0.0018
  506ERGO    R4 7751   1.257  15.361   8.636  0.3082 -0.0768 -0.0886
  506ERGO    R5 7752   1.126  15.187   8.649  0.1361  0.0424 -0.1449
  506ERGO    C1 7753   1.226  15.166   8.282  0.4137 -0.1399 -0.0623
  506ERGO    C2 7754   1.333  15.261   7.931  0.1559 -0.0169  0.1168
  507ERGO   ROH 7755  15.868  14.370   9.897  0.1271  0.0019  0.1325
  507ERGO    R1 7756  15.748  14.177   9.729 -0.0521  0.2150  0.0114
  507ERGO    R2 7757  15.595  14.246   9.509  0.2443  0.4937 -0.1149
  507ERGO    R3 7758  15.768  14.082   9.378  0.0917  0.2183  0.0186
  507ERGO    R4 7759  15.527  14.083   9.211  0.0767  0.2659  0.0436
  507ERGO    R5 7760  15.630  13.908   9.289 -0.0663  0.2495  0.1983
  507ERGO    C1 7761  15.650  13.835   8.915 -0.1641 -0.1253  0.2611
  507ERGO    C2 7762  15.497  13.678   8.598 -0.1632 -0.2312  0.2339
  508ERGO   ROH 7763  10.812   3.037   9.825 -0.0174 -0.0148  0.1063
  508ERGO    R1 7764  10.873   3.015   9.550  0.0455 -0.0015  0.1193
  508ERGO    R2 7765  10.913   2.771   9.425 -0.1168 -0.0057  0.0774
  508ERGO    R3 7766  10.720   2.863   9.257  0.0065  0.1894  0.0386
  508ERGO    R4 7767  10.932   2.767   9.080 -0.1218 -0.1888  0.0782
  508ERGO    R5 7768  10.841   2.964   9.077  0.1508 -0.0572 -0.0093
  508ERGO    C1 7769  10.762   2.850   8.721 -0.0091 -0.1123  0.0422
  508ERGO    C2 7770  10.824   2.770   8.397  0.0195 -0.0654 -0.2745
  509ERGO   ROH 7771   5.919  14.412   9.756  0.1204  0.1092 -0.0376
  509ERGO    R1 7772   5.912  14.507   9.490  0.0253  0.1137 -0.0351
  509ERGO    R2 7773   6.065  14.396   9.288  0.0768  0.2192 -0.0612
  509ERGO    R3 7774   5.825  14.372   9.163  0.0748  0.0634 -0.0264
  509ERGO    R4 7775   6.023  14.351   8.948  0.0620 -0.1808 -0.0097
  509ERGO    R5 7776   5.854  14.488   8.956  0.0597 -0.1792 -0.1647
  509ERGO    C1 7777   5.773  14.302   8.633  0.0515 -0.5599  0.0528
  509ERGO    C2 7778   5.959  14.321   8.327  0.1792 -0.3313 -0.0025
  510ERGO   ROH 7779   6.578  11.414   9.666  0.1581 -0.0385  0.0154
  510ERGO    R1 7780   6.584  11.224   9.456  0.4072 -0.0867  0.0614
  510ERGO    R2 7781   6.463  11.270   9.211  0.0611 -0.4284  0.1558
  510ERGO    R3 7782   6.710  11.212   9.115  0.1240  0.1321 -0.0547
  510ERGO    R4 7783   6.540  11.228   8.877 -0.1145 -0.2319  0.0886
  510ERGO    R5 7784   6.670  11.063   8.933  0.3101  0.0494 -0.0270
  510ERGO    C1 7785   6.818  11.150   8.592 -0.1577  0.4087 -0.1480
  510ERGO    C2 7786   6.921  11.456   8.413  0.1402 -0.2559 -0.0776
  511ERGO   ROH 7787  13.071  15.528   9.820  0.0071  0.3085  0.0338
  511ERGO    R1 7788  13.006  15.382   9.586  0.1306  0.0571  0.1531
  511ERGO    R2 7789  12.767  15.413   9.453  0.1061 -0.2517  0.1192
  511ERGO    R3 7790  12.928  15.459   9.239  0.0722 -0.2986  0.0831
  511ERGO    R4 7791  12.671  15.379   9.122 -0.0416 -0.0299  0.1369
  511ERGO    R5 7792  12.866  15.290   9.080 -0.1290 -0.1805  0.0317
  511ERGO    C1 7793  12.766  15.402   8.729 -0.1596  0.0553  0.1136
  511ERGO    C2 7794  12.736  15.382   8.398  0.3760  0.0302  0.0587
  512ERGO   ROH 7795   3.822   8.864  10.171 -0.0335  0.0636  0.1405
  512ERGO    R1 7796   3.750   8.979   9.923  0.1001  0.0669  0.1012
  512ERGO    R2 7797   3.937   9.069   9.739  0.2054 -0.0895  0.1237
  512ERGO    R3 7798   3.802   8.904   9.571  0.1336 -0.0356  0.1294
  512ERGO    R4 7799   3.968   9.068   9.395  0.0019  0.0574  0.1043
  512ERGO    R5 7800   3.753   9.039   9.380  0.0022  0.0329  0.2157
  512ERGO    C1 7801   3.859   8.913   9.036 -0.1841  0.1934  0.0984
  512ERGO    C2 7802   3.970   8.901   8.706  0.0292  0.0144 -0.0588
  513ERGO   ROH 7803   8.413  17.994   9.564 -0.0677  0.0365  0.1859
  513ERGO    R1 7804   8.542  17.949   9.316  0.0218  0.0450  0.2302
  513ERGO    R2 7805   8.406  17.949   9.075  0.0799 -0.1099  0.1945
  513ERGO    R3 7806   8.592  18.135   9.007 -0.0194 -0.0117  0.1895
  513ERGO    R4 7807   8.480  18.045   8.752  0.2224 -0.2760  0.1772
  513ERGO    R5 7808   8.691  18.049   8.807  0.1822 -0.0735  0.3150
  513ERGO    C1 7809   8.698  18.275   8.499  0.2123 -0.2804  0.1624
  513ERGO    C2 7810   8.825  18.474   8.355  0.3161  0.3927 -0.1489
  514ERGO   ROH 7811  11.797  11.039   9.781  0.0030 -0.3547 -0.0141
  514ERGO    R1 7812  11.762  10.985   9.505 -0.0890 -0.2542 -0.0237
  514ERGO    R2 7813  11.516  10.923   9.396 -0.1661 -0.0138 -0.0034
  514ERGO    R3 7814  11.575  11.130   9.229 -0.0103 -0.0178  0.0462
  514ERGO    R4 7815  11.434  10.935   9.061  0.1580 -0.0167 -0.0854
  514ERGO    R5 7816  11.629  11.024   9.021  0.1914 -0.0156  0.1000
  514ERGO    C1 7817  11.441  11.136   8.709  0.4930 -0.0222 -0.0866
  514ERGO    C2 7818  11.491  11.283   8.362 -0.2506  0.0682  0.1438
  515ERGO   ROH 7819   7.341   3.811   9.754 -0.0559 -0.2240  0.0333
  515ERGO    R1 7820   7.274   3.951   9.517  0.0817 -0.0933  0.0702
  515ERGO    R2 7821   7.465   4.058   9.348  0.1875 -0.2123  0.1152
  515ERGO    R3 7822   7.335   3.911   9.160  0.0673 -0.0412  0.0614
  515ERGO    R4 7823   7.479   4.116   9.008  0.2916 -0.1420  0.1304
  515ERGO    R5 7824   7.266   4.072   8.996  0.2465  0.0691  0.0897
  515ERGO    C1 7825   7.365   4.011   8.633  0.2394  0.0596  0.0889
  515ERGO    C2 7826   7.498   3.841   8.223  0.0569  0.2792  0.0290
  516ERGO   ROH 7827   1.456   0.308   9.680 -0.0712 -0.2519  0.0876
  516ERGO    R1 7828   1.393   0.155   9.450 -0.2234 -0.1208  0.0404
  516ERGO    R2 7829   1.161   0.194   9.305 -0.0878  0.3070 -0.0783
  516ERGO    R3 7830   1.334   0.222   9.097  0.0756  0.0238  0.0143
  516ERGO    R4 7831   1.070   0.265   8.979  0.1951  0.3028 -0.1608
  516ERGO    R5 7832   1.220   0.124   8.911  0.0687  0.0936 -0.0187
  516ERGO    C1 7833   1.180   0.333   8.595  0.5134  0.0345 -0.1221
  516ERGO    C2 7834   1.132   0.472   8.311  0.1190 -0.3002 -0.1511
  517ERGO   ROH 7835  12.983   9.991   9.934  0.1244  0.0668  0.0362
  517ERGO    R1 7836  12.931  10.122   9.689  0.1446  0.0052 -0.0015
  517ERGO    R2 7837  13.078  10.073   9.461  0.1563 -0.0599  0.0201
  517ERGO    R3 7838  12.834  10.025   9.352  0.1613 -0.0781  0.0173
  517ERGO    R4 7839  13.009  10.075   9.122  0.1215  0.1287  0.0275
  517ERGO    R5 7840  12.821  10.176   9.166  0.0895  0.0356  0.1123
  517ERGO    C1 7841  12.739  10.031   8.823  0.1058  0.2215  0.0292
  517ERGO    C2 7842  12.900  10.108   8.485  0.0827  0.2686 -0.0727
  518ERGO   ROH 7843  12.747   2.638   9.639  0.0770 -0.0265  0.0022
  518ERGO    R1 7844  12.688   2.806   9.419  0.2478 -0.0746 -0.0818
  518ERGO    R2 7845  12.855   2.828   9.200  0.2290 -0.4254 -0.1355
  518ERGO    R3 7846  12.630   2.763   9.062  0.1068 -0.2074 -0.0447
  518ERGO    R4 7847  12.804   2.889   8.863  0.0858 -0.2228 -0.0795
  518ERGO    R5 7848  12.598   2.944   8.909  0.1442 -0.1066  0.0625
  518ERGO    C1 7849  12.563   2.862   8.538 -0.1123  0.0998  0.0382
  518ERGO    C2 7850  12.668   2.667   8.246 -0.1881 -0.0281 -0.0653
  519ERGO   ROH 7851  15.950   6.732   9.879 -0.1228 -0.0233  0.1151
  519ERGO    R1 7852  15.908   6.832   9.618 -0.2483 -0.0689  0.1171
  519ERGO    R2 7853  15.670   6.947   9.539 -0.1849  0.1990  0.3033
  519ERGO    R3 7854  15.832   7.154   9.466  0.0080 -0.0258  0.0748
  519ERGO    R4 7855  15.637   7.129   9.247 -0.2237  0.1225  0.2599
  519ERGO    R5 7856  15.855   7.129   9.229 -0.2355 -0.1524  0.0611
  519ERGO    C1 7857  15.769   7.429   9.009 -0.0651 -0.1332  0.0200
  519ERGO    C2 7858  15.551   7.420   8.737  0.1689  0.1127  0.1275
  520ERGO   ROH 7859  15.005   3.460  10.009  0.2141  0.0546  0.0199
  520ERGO    R1 7860  14.963   3.525   9.737  0.1155 -0.0361  0.0110
  520ERGO    R2 7861  14.943   3.786   9.648 -0.0888 -0.0613 -0.0483
  520ERGO    R3 7862  15.141   3.709   9.479 -0.0614  0.0360 -0.0582
  520ERGO    R4 7863  14.988   3.909   9.329 -0.3095 -0.2312 -0.1463
  520ERGO    R5 7864  15.037   3.707   9.263 -0.1189 -0.2180 -0.0247
  520ERGO    C1 7865  15.200   3.909   8.983 -0.4122 -0.2387 -0.2126
  520ERGO    C2 7866  15.356   4.108   8.739  0.1116  0.2017  0.0897
  521ERGO   ROH 7867   8.022  16.664   9.888  0.0958 -0.2227 -0.0302
  521ERGO    R1 7868   7.905  16.606   9.637  0.0497 -0.1641 -0.0221
  521ERGO    R2 7869   7.822  16.803   9.462 -0.0041 -0.1233  0.0493
  521ERGO    R3 7870   7.982  16.671   9.287 -0.0278 -0.0605 -0.0208
  521ERGO    R4 7871   7.806  16.833   9.118 -0.1266 -0.0855  0.0579
  521ERGO    R5 7872   7.838  16.618   9.103 -0.0758 -0.0754  0.0209
  521ERGO    C1 7873   7.946  16.726   8.754 -0.2201 -0.0046 -0.0030
  521ERGO    C2 7874   8.006  16.656   8.398 -0.1137  0.1447 -0.1571
  522ERGO   ROH 7875  12.105  17.182   9.433  0.0055  0.0547 -0.0241
  522ERGO    R1 7876  12.127  17.323   9.189 -0.0132 -0.0143 -0.0652
  522ERGO    R2 7877  12.203  17.202   8.952 -0.1847 -0.1133 -0.0670
  522ERGO    R3 7878  11.971  17.309   8.860 -0.1596  0.0038  0.0013
  522ERGO    R4 7879  12.122  17.242   8.619 -0.3191 -0.2142 -0.0482
  522ERGO    R5 7880  12.036  17.436   8.668 -0.1635 -0.1276 -0.0915
  522ERGO    C1 7881  11.858  17.366   8.338 -0.3737 -0.1631  0.0269
  522ERGO    C2 7882  11.696  17.354   7.997  0.0121 -0.1743 -0.3259
  523ERGO   ROH 7883   4.449   5.139  10.178 -0.1299  0.1889 -0.0342
  523ERGO    R1 7884   4.331   5.136   9.920 -0.1522  0.3581 -0.0277
  523ERGO    R2 7885   4.336   5.355   9.751  0.1322  0.3641 -0.0197
  523ERGO    R3 7886   4.445   5.177   9.577 -0.1144  0.2206 -0.0317
  523ERGO    R4 7887   4.337   5.391   9.408  0.1307  0.3520 -0.0207
  523ERGO    R5 7888   4.295   5.178   9.390 -0.1401  0.4031 -0.0105
  523ERGO    C1 7889   4.440   5.245   9.044 -0.1016  0.2103 -0.0326
  523ERGO    C2 7890   4.483   5.156   8.676 -0.0990 -0.1155  0.0506
  524ERGO   ROH 7891  11.482  13.082   9.779  0.0448  0.0953 -0.0435
  524ERGO    R1 7892  11.591  13.072   9.518  0.0981  0.1321 -0.0228
  524ERGO    R2 7893  11.507  12.890   9.328  0.3017  0.0007  0.0083
  524ERGO    R3 7894  11.468  13.114   9.178  0.1128 -0.0721 -0.0543
  524ERGO    R4 7895  11.484  12.896   8.983  0.2825 -0.1143  0.0072
  524ERGO    R5 7896  11.602  13.079   8.983  0.1334 -0.0173 -0.0494
  524ERGO    C1 7897  11.434  13.109   8.642  0.0940 -0.2496 -0.0522
  524ERGO    C2 7898  11.424  13.013   8.304 -0.0471  0.3585 -0.1178
  525ERGO   ROH 7899   1.781   9.435   9.921 -0.0990 -0.0190  0.0003
  525ERGO    R1 7900   1.855   9.574   9.685  0.0102 -0.0305  0.0281
  525ERGO    R2 7901   2.055   9.485   9.517 -0.0761 -0.1664  0.0013
  525ERGO    R3 7902   1.860   9.505   9.328 -0.0670  0.0457  0.0112
  525ERGO    R4 7903   2.110   9.480   9.176 -0.1141 -0.5269 -0.0044
  525ERGO    R5 7904   1.959   9.637   9.154  0.1623 -0.2604 -0.1029
  525ERGO    C1 7905   1.959   9.496   8.800 -0.1277 -0.5378  0.0016
  525ERGO    C2 7906   1.972   9.453   8.482 -0.1472  0.1787  0.0039
  526ERGO   ROH 7907   4.135  15.658   9.409  0.0123  0.0011 -0.0517
  526ERGO    R1 7908   4.092  15.665   9.129 -0.0298  0.1294 -0.0432
  526ERGO    R2 7909   4.231  15.836   8.962  0.0509  0.1054 -0.0055
  526ERGO    R3 7910   4.291  15.606   8.829 -0.1145  0.1136 -0.0957
  526ERGO    R4 7911   4.315  15.817   8.627  0.1718  0.1927  0.0202
  526ERGO    R5 7912   4.195  15.636   8.612  0.0042  0.3150 -0.1214
  526ERGO    C1 7913   4.421  15.590   8.308  0.0868  0.2512 -0.0498
  526ERGO    C2 7914   4.626  15.577   8.013 -0.2326 -0.0061 -0.0579
  527ERGO   ROH 7915  16.819   1.100   9.452 -0.1226 -0.3036 -0.0356
  527ERGO    R1 7916  16.913   1.011   9.201 -0.2455 -0.1853 -0.1258
  527ERGO    R2 7917  16.760   1.022   8.971 -0.2133  0.3166 -0.1353
  527ERGO    R3 7918  16.974   1.158   8.874  0.0210  0.0815  0.0395
  527ERGO    R4 7919  16.859   1.024   8.640 -0.1215  0.4542 -0.1074
  527ERGO    R5 7920  17.066   1.013   8.707 -0.1524  0.0850 -0.0594
  527ERGO    C1 7921  17.119   1.153   8.356  0.1520  0.3136  0.0729
  527ERGO    C2 7922  17.091   1.219   8.065  0.1233 -0.0667  0.1503
  528ERGO   ROH 7923   3.850   3.000  10.088  0.0190  0.1249 -0.0390
  528ERGO    R1 7924   3.933   3.006   9.818  0.0610 -0.0711 -0.0320
  528ERGO    R2 7925   3.855   2.815   9.634 -0.1848 -0.0214  0.0173
  528ERGO    R3 7926   3.772   3.032   9.493  0.1317  0.0568 -0.0579
  528ERGO    R4 7927   3.805   2.821   9.292 -0.1827 -0.0695  0.0161
  528ERGO    R5 7928   3.894   3.020   9.287  0.1134 -0.1979 -0.0574
  528ERGO    C1 7929   3.697   3.028   8.960  0.1156 -0.0241 -0.0553
  528ERGO    C2 7930   3.513   2.909   8.655 -0.0256 -0.1330 -0.2711
  529ERGO   ROH 7931   2.645   8.047   9.939  0.0898  0.0197  0.0732
  529ERGO    R1 7932   2.710   8.116   9.672  0.1667  0.0468  0.0989
  529ERGO    R2 7933   2.800   7.931   9.488  0.1046  0.0436  0.0744
  529ERGO    R3 7934   2.593   8.025   9.339  0.1755  0.1783  0.0587
  529ERGO    R4 7935   2.765   7.888   9.147  0.0919  0.0382  0.0762
  529ERGO    R5 7936   2.693   8.093   9.133  0.2354  0.0913  0.0566
  529ERGO    C1 7937   2.550   7.952   8.809  0.1511  0.1613  0.0624
  529ERGO    C2 7938   2.522   8.049   8.491  0.1998  0.1903  0.1251
  530ERGO   ROH 7939   5.954   0.016   9.673 -0.1721 -0.1815 -0.4363
  530ERGO    R1 7940   5.992   0.227   9.488 -0.1361  0.0803 -0.1374
  530ERGO    R2 7941   6.091   0.475   9.563  0.0794 -0.0993  0.1888
  530ERGO    R3 7942   6.273   0.425   9.368 -0.0698  0.0735  0.0016
  530ERGO    R4 7943   6.244   0.717   9.370 -0.0165  0.0836  0.3381
  530ERGO    R5 7944   6.223   0.585   9.197 -0.1656  0.2703  0.2080
  530ERGO    C1 7945   6.504   0.811   9.073 -0.2124  0.3523  0.2493
  530ERGO    C2 7946   6.648   0.965   8.876  0.0571 -0.1527  0.0330
  531ERGO   ROH 7947   1.673  16.642   9.752 -0.0032 -0.1132  0.1310
  531ERGO    R1 7948   1.723  16.713   9.483 -0.0140 -0.0741  0.1386
  531ERGO    R2 7949   1.911  16.584   9.327 -0.0557 -0.0887  0.0935
  531ERGO    R3 7950   1.701  16.550   9.158 -0.0829 -0.0109  0.1124
  531ERGO    R4 7951   1.934  16.579   8.983 -0.1247  0.1021  0.0853
  531ERGO    R5 7952   1.750  16.694   8.973 -0.1317  0.0917  0.1826
  531ERGO    C1 7953   1.750  16.543   8.623 -0.1903  0.2864  0.0981
  531ERGO    C2 7954   1.890  16.537   8.243 -0.2048 -0.0066 -0.1627
  532ERGO   ROH 7955   9.223  13.139   9.950 -0.0581  0.0895  0.1055
  532ERGO    R1 7956   9.079  13.185   9.710  0.0142  0.1978  0.0824
  532ERGO    R2 7957   9.150  13.382   9.530  0.3328 -0.0041 -0.0198
  532ERGO    R3 7958   9.150  13.175   9.354  0.0020 -0.0998  0.0856
  532ERGO    R4 7959   9.072  13.408   9.194  0.4126 -0.0408 -0.0418
  532ERGO    R5 7960   8.964  13.220   9.210  0.0882  0.1441  0.0448
  532ERGO    C1 7961   9.026  13.229   8.834  0.1485 -0.1520  0.0445
  532ERGO    C2 7962   9.014  13.215   8.464  0.1942  0.0782  0.0067
  533ERGO   ROH 7963   1.195   5.729  10.131 -0.0817 -0.1671  0.0422
  533ERGO    R1 7964   1.156   5.854   9.880  0.0065 -0.0614  0.0818
  533ERGO    R2 7965   1.359   5.985   9.746  0.0729 -0.0855  0.1701
  533ERGO    R3 7966   1.289   5.817   9.543  0.0511  0.0179  0.0889
  533ERGO    R4 7967   1.492   5.994   9.427  0.3942 -0.2167  0.2949
  533ERGO    R5 7968   1.292   5.956   9.348  0.4110  0.0408  0.1003
  533ERGO    C1 7969   1.504   5.843   9.051  0.5608 -0.1959  0.2911
  533ERGO    C2 7970   1.686   5.610   8.908  0.1718  0.0356  0.0364
  534ERGO   ROH 7971  14.368  17.089   9.777 -0.2618 -0.2294 -0.0724
  534ERGO    R1 7972  14.338  17.033   9.502 -0.0449 -0.1812 -0.1072
  534ERGO    R2 7973  14.282  17.230   9.315 -0.1489 -0.1859 -0.0747
  534ERGO    R3 7974  14.503  17.130   9.192  0.0292  0.0875  0.0116
  534ERGO    R4 7975  14.384  17.308   8.994 -0.2927 -0.2712 -0.1431
  534ERGO    R5 7976  14.437  17.100   8.964  0.0691 -0.2173  0.0319
  534ERGO    C1 7977  14.651  17.261   8.692 -0.2092 -0.0642 -0.1018
  534ERGO    C2 7978  14.825  17.284   8.362 -0.0341 -0.2832 -0.0268
  535ERGO   ROH 7979  10.375  17.509  10.040  0.0392 -0.2119  0.2015
  535ERGO    R1 7980  10.358  17.281   9.873 -0.1037 -0.1371  0.1115
  535ERGO    R2 7981  10.192  17.271   9.652 -0.0508  0.0846  0.0565
  535ERGO    R3 7982  10.422  17.205   9.523 -0.0654 -0.0586  0.1017
  535ERGO    R4 7983  10.212  17.170   9.322 -0.0484  0.0316  0.0727
  535ERGO    R5 7984  10.361  17.023   9.381 -0.1401 -0.0421  0.1150
  535ERGO    C1 7985  10.439  17.051   9.008 -0.0607 -0.1335  0.1247
  535ERGO    C2 7986  10.667  17.032   8.768  0.0213 -0.0347 -0.0209
  536ERGO   ROH 7987   4.729  12.031   9.664 -0.0008 -0.2162 -0.0928
  536ERGO    R1 7988   4.741  11.913   9.407  0.0139 -0.0510 -0.1694
  536ERGO    R2 7989   4.526  11.910   9.234 -0.0567 -0.1619 -0.0840
  536ERGO    R3 7990   4.703  12.024   9.063 -0.2375  0.1206 -0.0880
  536ERGO    R4 7991   4.496  11.909   8.890 -0.0631 -0.1986 -0.0834
  536ERGO    R5 7992   4.711  11.874   8.876 -0.0069  0.1365 -0.0914
  536ERGO    C1 7993   4.645  12.017   8.528 -0.2364  0.0451 -0.0869
  536ERGO    C2 7994   4.595  12.018   8.192 -0.1581 -0.0738 -0.3316
  537ERGO   ROH 7995  11.307  12.678   9.875 -0.0296 -0.0570 -0.0672
  537ERGO    R1 7996  11.199  12.559   9.642 -0.0309 -0.0638 -0.0639
  537ERGO    R2 7997  11.086  12.707   9.438  0.0141 -0.0651 -0.0937
  537ERGO    R3 7998  11.265  12.570   9.284  0.0049 -0.1156 -0.0585
  537ERGO    R4 7999  11.068  12.676   9.094 -0.0535 -0.2583 -0.0734
  537ERGO    R5 8000  11.130  12.468   9.114 -0.0111 -0.2338  0.0266
  537ERGO    C1 8001  11.225  12.530   8.750 -0.1015 -0.4182 -0.0284
  537ERGO    C2 8002  11.191  12.632   8.473  0.0748  0.1092 -0.0063
  538ERGO   ROH 8003  17.058   5.639   9.791 -0.0258  0.4292  0.0654
  538ERGO    R1 8004  17.055   5.800   9.558 -0.1345  0.3093 -0.0179
  538ERGO    R2 8005  17.225   5.757   9.344 -0.0246  0.3819  0.0487
  538ERGO    R3 8006  16.993   5.750   9.203  0.0169  0.0584 -0.0100
  538ERGO    R4 8007  17.188   5.871   9.020 -0.1052  0.3042  0.0308
  538ERGO    R5 8008  16.994   5.954   9.076 -0.2296  0.0484 -0.0264
  538ERGO    C1 8009  16.949   5.930   8.698 -0.1130 -0.0446 -0.0347
  538ERGO    C2 8010  16.936   5.851   8.380  0.0087  0.0031 -0.1983
  539ERGO   ROH 8011   5.099  17.852   9.481  0.2393 -0.1854 -0.0095
  539ERGO    R1 8012   5.063  17.949   9.218  0.1225 -0.2096 -0.0021
  539ERGO    R2 8013   5.260  17.934   9.026  0.1275  0.0040 -0.0125
  539ERGO    R3 8014   5.065  17.809   8.882  0.2468 -0.1910 -0.0101
  539ERGO    R4 8015   5.182  18.005   8.696 -0.1911  0.1966  0.0990
  539ERGO    R5 8016   4.971  17.984   8.747 -0.1336 -0.2111  0.2131
  539ERGO    C1 8017   4.954  17.930   8.370 -0.2647  0.1255  0.1662
  539ERGO    C2 8018   4.894  17.774   8.142 -0.1660 -0.4089 -0.1283
  540ERGO   ROH 8019  15.300   0.918   9.515 -0.0464  0.1787 -0.0982
  540ERGO    R1 8020  15.428   0.839   9.275 -0.0260  0.0145 -0.0346
  540ERGO    R2 8021  15.294   0.706   9.073 -0.0684  0.0835 -0.0513
  540ERGO    R3 8022  15.389   0.910   8.920  0.1638 -0.0315 -0.0656
  540ERGO    R4 8023  15.371   0.681   8.737 -0.2354  0.0075 -0.0848
  540ERGO    R5 8024  15.547   0.805   8.772 -0.0399 -0.2443 -0.1398
  540ERGO    C1 8025  15.504   0.859   8.397 -0.1146 -0.1447 -0.1179
  540ERGO    C2 8026  15.547   0.895   8.016  0.0444 -0.0637  0.0289
  541ERGO   ROH 8027   5.164  13.717   9.550  0.1466  0.2375 -0.0912
  541ERGO    R1 8028   5.037  13.751   9.300  0.0443  0.0548 -0.0663
  541ERGO    R2 8029   5.178  13.792   9.066 -0.0559  0.0936 -0.1237
  541ERGO    R3 8030   5.034  13.578   8.979  0.0897 -0.0525 -0.0085
  541ERGO    R4 8031   5.147  13.695   8.735 -0.3237  0.1358 -0.1128
  541ERGO    R5 8032   4.937  13.651   8.773 -0.2325 -0.1154  0.1178
  541ERGO    C1 8033   4.994  13.438   8.462 -0.3428  0.0231  0.0017
  541ERGO    C2 8034   4.951  13.259   8.184  0.0485  0.0808 -0.0249
  542ERGO   ROH 8035  12.929  13.740   9.857 -0.3861  0.0547  0.1570
  542ERGO    R1 8036  12.781  13.714   9.617 -0.2339 -0.0086  0.0677
  542ERGO    R2 8037  12.718  13.930   9.457 -0.2584 -0.0263  0.0441
  542ERGO    R3 8038  12.837  13.779   9.264 -0.0596  0.0477  0.1067
  542ERGO    R4 8039  12.608  13.905   9.130  0.0272  0.0047 -0.0577
  542ERGO    R5 8040  12.654  13.692   9.136  0.0778  0.0233 -0.0670
  542ERGO    C1 8041  12.654  13.749   8.759  0.3803  0.0924 -0.0581
  542ERGO    C2 8042  12.722  13.910   8.427  0.0066  0.1223 -0.2369
  543ERGO   ROH 8043   6.287  16.809   9.720 -0.0945 -0.1926 -0.0384
  543ERGO    R1 8044   6.294  16.701   9.459  0.0143 -0.1250 -0.0632
  543ERGO    R2 8045   6.120  16.782   9.261 -0.0881 -0.2765 -0.0293
  543ERGO    R3 8046   6.350  16.827   9.122 -0.1467  0.0165 -0.0407
  543ERGO    R4 8047   6.137  16.835   8.919 -0.1566 -0.6376 -0.0927
  543ERGO    R5 8048   6.317  16.711   8.915  0.1007 -0.2999  0.0827
  543ERGO    C1 8049   6.362  16.907   8.590 -0.2514 -0.5726 -0.1403
  543ERGO    C2 8050   6.318  17.120   8.290  0.2543  0.2364  0.0520
  544ERGO   ROH 8051   4.143  17.348   9.434  0.0747  0.0140 -0.0212
  544ERGO    R1 8052   4.172  17.414   9.160 -0.0263 -0.0492 -0.0477
  544ERGO    R2 8053   4.117  17.234   8.957 -0.1271 -0.0885  0.0118
  544ERGO    R3 8054   3.955  17.433   8.869 -0.1402 -0.0895  0.0345
  544ERGO    R4 8055   4.085  17.331   8.627 -0.0805 -0.0003  0.0331
  544ERGO    R5 8056   4.079  17.539   8.694 -0.1252 -0.0215  0.0880
  544ERGO    C1 8057   3.914  17.575   8.352 -0.0656  0.0500  0.0668
  544ERGO    C2 8058   3.973  17.493   8.058 -0.0409 -0.0521  0.1217
  545ERGO   ROH 8059  15.965   4.826   9.958 -0.0672 -0.0740 -0.0055
  545ERGO    R1 8060  15.800   4.884   9.736  0.0144  0.1004 -0.0237
  545ERGO    R2 8061  15.811   5.124   9.600  0.3597  0.0537 -0.0940
  545ERGO    R3 8062  15.848   4.963   9.384  0.1367 -0.0666 -0.0450
  545ERGO    R4 8063  15.824   5.234   9.273  0.2807 -0.1001 -0.1490
  545ERGO    R5 8064  15.708   5.058   9.215  0.1251 -0.0394 -0.0169
  545ERGO    C1 8065  15.866   5.147   8.879  0.0255 -0.3025 -0.1350
  545ERGO    C2 8066  15.798   5.163   8.568 -0.1385 -0.0082  0.1827
  546ERGO   ROH 8067   8.256  15.644   9.773 -0.1335 -0.0301  0.0592
  546ERGO    R1 8068   8.374  15.684   9.519  0.0124 -0.2127  0.0989
  546ERGO    R2 8069   8.433  15.476   9.348 -0.4171 -0.2945  0.0568
  546ERGO    R3 8070   8.284  15.620   9.172 -0.0595  0.0962  0.0544
  546ERGO    R4 8071   8.464  15.461   9.004 -0.4130 -0.3537  0.0573
  546ERGO    R5 8072   8.437  15.677   8.997  0.1163 -0.2645  0.0712
  546ERGO    C1 8073   8.342  15.588   8.639 -0.0752 -0.0213  0.0555
  546ERGO    C2 8074   8.400  15.422   8.409 -0.0180 -0.2297  0.0798
  547ERGO   ROH 8075   9.006   0.980   9.841  0.0927 -0.0322 -0.0507
  547ERGO    R1 8076   9.180   1.084   9.643  0.0757 -0.0481 -0.0742
  547ERGO    R2 8077   9.217   0.961   9.398 -0.0560  0.0099 -0.1240
  547ERGO    R3 8078   9.149   1.206   9.302  0.0204  0.0699 -0.0277
  547ERGO    R4 8079   9.305   1.081   9.086 -0.1069  0.0610 -0.1185
  547ERGO    R5 8080   9.341   1.276   9.177  0.0115  0.0191 -0.0717
  547ERGO    C1 8081   9.292   1.381   8.814 -0.0646  0.1470 -0.0249
  547ERGO    C2 8082   9.374   1.519   8.633  0.0702 -0.0114 -0.1284
  548ERGO   ROH 8083   4.743   0.558   9.866  0.1957 -0.2713 -0.0465
  548ERGO    R1 8084   4.657   0.564   9.596 -0.0493 -0.0988  0.0320
  548ERGO    R2 8085   4.570   0.796   9.473  0.1398  0.0482  0.1666
  548ERGO    R3 8086   4.760   0.731   9.290 -0.1105 -0.1661 -0.0251
  548ERGO    R4 8087   4.567   0.894   9.141 -0.0070  0.1708  0.2028
  548ERGO    R5 8088   4.638   0.695   9.087 -0.3422  0.0833  0.0653
  548ERGO    C1 8089   4.743   0.889   8.777 -0.3275  0.0409  0.0440
  548ERGO    C2 8090   4.901   0.846   8.472  0.0311 -0.0709  0.0142
  549ERGO   ROH 8091   8.559   8.018  10.039 -0.1047 -0.2345 -0.0551
  549ERGO    R1 8092   8.645   8.088   9.779 -0.1171 -0.1010 -0.0235
  549ERGO    R2 8093   8.788   7.915   9.619 -0.0824  0.0004 -0.0985
  549ERGO    R3 8094   8.589   7.967   9.441 -0.0896  0.0399 -0.0799
  549ERGO    R4 8095   8.824   7.905   9.275 -0.1103  0.0007 -0.1018
  549ERGO    R5 8096   8.699   8.084   9.262 -0.0813  0.0255 -0.0868
  549ERGO    C1 8097   8.658   7.948   8.908 -0.1332  0.0380 -0.0862
  549ERGO    C2 8098   8.604   7.769   8.590  0.0742 -0.1435 -0.0248
  550ERGO   ROH 8099  14.568   4.158   9.931 -0.2316  0.0370 -0.1005
  550ERGO    R1 8100  14.593   4.065   9.664  0.0477  0.0532 -0.0817
  550ERGO    R2 8101  14.420   4.143   9.464 -0.0100 -0.2772 -0.1564
  550ERGO    R3 8102  14.649   4.214   9.337 -0.0802  0.1254 -0.0736
  550ERGO    R4 8103  14.448   4.200   9.124  0.0249 -0.3380 -0.1651
  550ERGO    R5 8104  14.641   4.098   9.128  0.2337  0.0272 -0.0421
  550ERGO    C1 8105  14.681   4.301   8.807 -0.0207  0.0045 -0.0925
  550ERGO    C2 8106  14.594   4.465   8.482  0.0469  0.3017 -0.1893
  551ERGO   ROH 8107  17.415  12.444   9.396  0.2464  0.3074  0.0092
  551ERGO    R1 8108  17.171  12.496   9.262  0.2782  0.1216 -0.1273
  551ERGO    R2 8109  16.970  12.651   9.372  0.0097 -0.1895 -0.1500
  551ERGO    R3 8110  16.994  12.789   9.139  0.0257  0.0117 -0.0303
  551ERGO    R4 8111  16.743  12.884   9.257 -0.0235 -0.1543 -0.0129
  551ERGO    R5 8112  16.770  12.804   9.056  0.0446  0.0213 -0.0713
  551ERGO    C1 8113  16.632  13.149   8.971 -0.0277  0.0549  0.1794
  551ERGO    C2 8114  16.581  13.511   8.829 -0.1406 -0.1377  0.1068
  552ERGO   ROH 8115   0.320  13.214   9.644  0.0832  0.0417 -0.1289
  552ERGO    R1 8116   0.290  13.305   9.377  0.1278 -0.0657 -0.1700
  552ERGO    R2 8117   0.394  13.168   9.161 -0.0706 -0.2964 -0.1171
  552ERGO    R3 8118   0.138  13.180   9.071 -0.0778 -0.0583 -0.0746
  552ERGO    R4 8119   0.300  13.141   8.829 -0.1625 -0.5418 -0.0740
  552ERGO    R5 8120   0.153  13.299   8.863  0.0461 -0.3019 -0.2146
  552ERGO    C1 8121   0.004  13.137   8.552 -0.2229 -0.4610 -0.0090
  552ERGO    C2 8122  -0.129  13.099   8.268  0.0777  0.2000  0.2510
  553ERGO   ROH 8123   3.742   6.502   9.856  0.0010 -0.0186  0.2281
  553ERGO    R1 8124   3.761   6.634   9.606  0.0324  0.0303  0.2568
  553ERGO    R2 8125   3.646   6.533   9.376  0.2993 -0.0713  0.1659
  553ERGO    R3 8126   3.530   6.779   9.365  0.0385 -0.1917  0.1130
  553ERGO    R4 8127   3.586   6.710   9.085  0.3214 -0.1011  0.1423
  553ERGO    R5 8128   3.648   6.892   9.189  0.0493 -0.0427  0.2123
  553ERGO    C1 8129   3.443   7.044   8.905  0.0895 -0.2315  0.0790
  553ERGO    C2 8130   3.384   7.164   8.575  0.0182  0.1310  0.1851
  554ERGO   ROH 8131   0.719   5.831   9.986  0.1311 -0.3290  0.0123
  554ERGO    R1 8132   0.630   5.689   9.758  0.1082 -0.2464 -0.0307
  554ERGO    R2 8133   0.487   5.809   9.555  0.0831 -0.1731  0.0285
  554ERGO    R3 8134   0.684   5.706   9.398  0.0685 -0.1119 -0.0303
  554ERGO    R4 8135   0.460   5.753   9.215  0.0365 -0.0880  0.0180
  554ERGO    R5 8136   0.568   5.566   9.242  0.0598 -0.0829 -0.0485
  554ERGO    C1 8137   0.629   5.624   8.870 -0.0044  0.0189 -0.0434
  554ERGO    C2 8138   0.616   5.636   8.578 -0.1989  0.1972  0.3924
  555ERGO   ROH 8139   5.122  11.821   9.713  0.1720  0.3192  0.0757
  555ERGO    R1 8140   5.160  11.926   9.452  0.3060  0.0778 -0.0044
  555ERGO    R2 8141   5.348  11.824   9.277  0.0184 -0.4561 -0.0203
  555ERGO    R3 8142   5.134  11.801   9.112 -0.1059 -0.0815  0.0783
  555ERGO    R4 8143   5.362  11.835   8.932 -0.1169 -0.4506 -0.0261
  555ERGO    R5 8144   5.179  11.953   8.933  0.0734 -0.1363  0.0713
  555ERGO    C1 8145   5.169  11.820   8.576 -0.3124 -0.0956  0.0630
  555ERGO    C2 8146   5.113  11.811   8.323  0.2001 -0.3355  0.0020
  556ERGO   ROH 8147  13.574   0.665   9.750  0.2194  0.0038 -0.0397
  556ERGO    R1 8148  13.710   0.565   9.523  0.0878 -0.1107 -0.0684
  556ERGO    R2 8149  13.581   0.428   9.321 -0.0676 -0.0194 -0.0296
  556ERGO    R3 8150  13.697   0.617   9.163  0.0413 -0.1151 -0.0677
  556ERGO    R4 8151  13.720   0.367   9.010 -0.2634 -0.1277 -0.0989
  556ERGO    R5 8152  13.882   0.504   9.062 -0.1087 -0.2838 -0.1609
  556ERGO    C1 8153  13.909   0.509   8.681 -0.2752 -0.2806 -0.1750
  556ERGO    C2 8154  13.780   0.647   8.394  0.1501 -0.3828  0.1944
  557ERGO   ROH 8155   8.492  17.047   9.848 -0.1208  0.0534  0.0372
  557ERGO    R1 8156   8.358  16.944   9.621  0.1118 -0.1236 -0.0215
  557ERGO    R2 8157   8.205  17.102   9.454 -0.0804 -0.3371 -0.0413
  557ERGO    R3 8158   8.367  16.999   9.262  0.1409 -0.0585 -0.0130
  557ERGO    R4 8159   8.179  17.170   9.116 -0.0489 -0.2573 -0.0290
  557ERGO    R5 8160   8.222  16.961   9.075  0.2547 -0.1977 -0.0821
  557ERGO    C1 8161   8.316  17.113   8.739  0.1772  0.0508  0.0047
  557ERGO    C2 8162   8.402  17.038   8.339 -0.1504  0.1162 -0.1433
  558ERGO   ROH 8163  12.256  17.647   9.581 -0.0829 -0.0664  0.0961
  558ERGO    R1 8164  12.269  17.797   9.341  0.0291 -0.1080  0.0755
  558ERGO    R2 8165  12.448  17.738   9.138 -0.0518 -0.3048  0.0586
  558ERGO    R3 8166  12.223  17.732   8.986 -0.0797 -0.1096  0.0899
  558ERGO    R4 8167  12.444  17.730   8.793 -0.1117 -0.1037  0.0539
  558ERGO    R5 8168  12.276  17.869   8.797 -0.0453 -0.0253  0.1606
  558ERGO    C1 8169  12.231  17.721   8.448 -0.1728  0.1968  0.0805
  558ERGO    C2 8170  12.302  17.535   8.158  0.0917 -0.0841  0.0040
  559ERGO   ROH 8171   6.392  12.629   9.726 -0.0110  0.0695 -0.1721
  559ERGO    R1 8172   6.512  12.471   9.525  0.1095  0.0638 -0.0968
  559ERGO    R2 8173   6.739  12.320   9.570  0.0072 -0.0415  0.0810
  559ERGO    R3 8174   6.584  12.118   9.474  0.0083  0.0442 -0.1057
  559ERGO    R4 8175   6.859  12.013   9.463 -0.0384 -0.1340  0.2911
  559ERGO    R5 8176   6.716  12.021   9.298  0.1930 -0.0642  0.0885
  559ERGO    C1 8177   6.783  11.645   9.311 -0.0639 -0.1075  0.2381
  559ERGO    C2 8178   7.058  11.518   9.476 -0.0888 -0.2007  0.0498
  560ERGO   ROH 8179  10.685   5.639   9.936 -0.0540 -0.1350  0.0022
  560ERGO    R1 8180  10.798   5.642   9.677 -0.1419  0.2187 -0.0357
  560ERGO    R2 8181  10.784   5.426   9.506  0.2903  0.2441 -0.1055
  560ERGO    R3 8182  10.678   5.609   9.335 -0.1824  0.0733 -0.0099
  560ERGO    R4 8183  10.763   5.388   9.163  0.3149  0.3191 -0.1159
  560ERGO    R5 8184  10.817   5.598   9.141 -0.1798  0.4745 -0.0450
  560ERGO    C1 8185  10.651   5.539   8.803 -0.1145  0.2024 -0.0323
  560ERGO    C2 8186  10.444   5.531   8.483  0.4807 -0.1918  0.0221
  561ERGO   ROH 8187   9.307  15.339   9.947 -0.1090 -0.0090 -0.0414
  561ERGO    R1 8188   9.292  15.293   9.668  0.0412  0.0892 -0.0660
  561ERGO    R2 8189   9.469  15.408   9.489  0.2935 -0.0474  0.0949
  561ERGO    R3 8190   9.507  15.150   9.412  0.0719 -0.0678  0.0445
  561ERGO    R4 8191   9.521  15.305   9.163  0.3739  0.0014  0.0921
  561ERGO    R5 8192   9.393  15.133   9.202  0.1696  0.1167 -0.0295
  561ERGO    C1 8193   9.588  15.004   8.901  0.2126  0.0107  0.0432
  561ERGO    C2 8194   9.678  14.961   8.685 -0.1819 -0.1758  0.0365
  562ERGO   ROH 8195  16.315   8.598   9.987 -0.0973  0.0425  0.0376
  562ERGO    R1 8196  16.379   8.749   9.756 -0.0395  0.0469  0.0553
  562ERGO    R2 8197  16.541   8.651   9.554 -0.1311 -0.0185  0.0068
  562ERGO    R3 8198  16.329   8.716   9.397 -0.1197  0.1432  0.0586
  562ERGO    R4 8199  16.546   8.657   9.209 -0.2366 -0.0898  0.0041
  562ERGO    R5 8200  16.425   8.839   9.215 -0.0678  0.0186  0.0057
  562ERGO    C1 8201  16.350   8.722   8.859 -0.2874  0.0203  0.0512
  562ERGO    C2 8202  16.165   8.444   8.648 -0.1181  0.0545  0.1953
  563ERGO   ROH 8203   8.987  16.948   9.862 -0.1799  0.0206  0.1535
  563ERGO    R1 8204   8.859  16.864   9.624 -0.0535 -0.1817  0.1536
  563ERGO    R2 8205   8.755  17.042   9.439 -0.2503 -0.3369  0.1034
  563ERGO    R3 8206   8.913  16.904   9.266 -0.0574 -0.1836  0.1546
  563ERGO    R4 8207   8.743  17.069   9.095 -0.0169 -0.2128  0.1040
  563ERGO    R5 8208   8.770  16.854   9.081  0.1051 -0.1876  0.0341
  563ERGO    C1 8209   8.885  16.955   8.732  0.3001  0.0034  0.1522
  563ERGO    C2 8210   8.963  17.153   8.494 -0.0575  0.0683 -0.0099
  564ERGO   ROH 8211   7.179   4.961   9.821  0.0126  0.0653  0.0800
  564ERGO    R1 8212   6.976   5.046   9.643  0.0311 -0.1077 -0.0254
  564ERGO    R2 8213   7.002   5.272   9.486 -0.0804 -0.0865 -0.0070
  564ERGO    R3 8214   6.944   5.099   9.284  0.1708 -0.1323 -0.0431
  564ERGO    R4 8215   6.844   5.358   9.191 -0.1297 -0.2310 -0.0245
  564ERGO    R5 8216   6.731   5.172   9.202  0.0920 -0.3765 -0.0728
  564ERGO    C1 8217   6.698   5.246   8.830  0.0774 -0.3582 -0.0685
  564ERGO    C2 8218   6.669   5.321   8.486  0.0245 -0.1809  0.2416
  565ERGO   ROH 8219   5.717  11.969   9.662  0.1545 -0.0262 -0.0015
  565ERGO    R1 8220   5.845  11.981   9.410  0.1078 -0.0464 -0.0268
  565ERGO    R2 8221   5.822  11.780   9.222  0.0057 -0.0261 -0.0409
  565ERGO    R3 8222   5.741  11.984   9.061  0.0363  0.0142 -0.0043
  565ERGO    R4 8223   5.800  11.763   8.877  0.1835  0.1050 -0.0595
  565ERGO    R5 8224   5.880  11.966   8.867  0.1367  0.1266  0.0589
  565ERGO    C1 8225   5.711  11.945   8.526  0.3156  0.2193 -0.0360
  565ERGO    C2 8226   5.573  11.722   8.207 -0.1017 -0.1078 -0.2333
  566ERGO   ROH 8227   7.969  10.501  10.081 -0.1003 -0.0302  0.0131
  566ERGO    R1 8228   8.080  10.540   9.824 -0.0394 -0.1122  0.0269
  566ERGO    R2 8229   8.129  10.331   9.650 -0.1748 -0.1490  0.0326
  566ERGO    R3 8230   7.978  10.480   9.480 -0.0431 -0.0342  0.0141
  566ERGO    R4 8231   8.126  10.297   9.306 -0.0433 -0.0394  0.0196
  566ERGO    R5 8232   8.119  10.514   9.289  0.0517 -0.0303  0.0839
  566ERGO    C1 8233   7.983  10.416   8.946  0.1568  0.1324 -0.0054
  566ERGO    C2 8234   7.954  10.358   8.630  0.0312 -0.1859 -0.3197
  567ERGO   ROH 8235  14.471   6.399   9.594  0.0915  0.2600 -0.0025
  567ERGO    R1 8236  14.571   6.417   9.329  0.0987  0.1340 -0.0102
  567ERGO    R2 8237  14.653   6.195   9.186  0.1463  0.0650  0.1094
  567ERGO    R3 8238  14.476   6.289   9.002  0.1312 -0.0647  0.0587
  567ERGO    R4 8239  14.680   6.148   8.845  0.2216  0.0153  0.1229
  567ERGO    R5 8240  14.613   6.354   8.816  0.1218 -0.0314  0.0700
  567ERGO    C1 8241  14.530   6.209   8.473  0.2513 -0.1354  0.0833
  567ERGO    C2 8242  14.614   6.116   8.241 -0.3504  0.1504  0.0286
  568ERGO   ROH 8243   4.495  12.441   9.526  0.1391 -0.1628 -0.0541
  568ERGO    R1 8244   4.452  12.340   9.265  0.0435 -0.0852 -0.0687
  568ERGO    R2 8245   4.262  12.445   9.094  0.0033 -0.0139  0.0217
  568ERGO    R3 8246   4.474  12.468   8.925 -0.0483  0.0050 -0.0416
  568ERGO    R4 8247   4.241  12.444   8.749 -0.0896 -0.1370  0.0266
  568ERGO    R5 8248   4.421  12.321   8.743 -0.0462 -0.0763  0.0209
  568ERGO    C1 8249   4.428  12.464   8.390 -0.1920 -0.1911 -0.0300
  568ERGO    C2 8250   4.441  12.510   8.081  0.1171  0.1898 -0.2237
  569ERGO   ROH 8251   3.661  11.697   9.675  0.0554 -0.2065 -0.0783
  569ERGO    R1 8252   3.611  11.914   9.500 -0.0698 -0.1232  0.0583
  569ERGO    R2 8253   3.535  11.878   9.237  0.1321 -0.0056 -0.0188
  569ERGO    R3 8254   3.328  12.039   9.309 -0.0900 -0.2830 -0.0179
  569ERGO    R4 8255   3.299  12.004   9.019  0.2041  0.0092 -0.0886
  569ERGO    R5 8256   3.308  12.193   9.126 -0.0739 -0.0976  0.1346
  569ERGO    C1 8257   2.967  12.229   8.959  0.0376 -0.2424 -0.1285
  569ERGO    C2 8258   2.676  12.248   8.655 -0.2259  0.1831  0.0580
  570ERGO   ROH 8259  15.402   8.368   9.820  0.1342 -0.1066 -0.1880
  570ERGO    R1 8260  15.495   8.399   9.554  0.0061  0.1120 -0.2091
  570ERGO    R2 8261  15.376   8.272   9.339  0.0966  0.0363 -0.2131
  570ERGO    R3 8262  15.360   8.525   9.240 -0.2638  0.0564 -0.1192
  570ERGO    R4 8263  15.366   8.352   9.003  0.0909  0.1476 -0.1869
  570ERGO    R5 8264  15.498   8.520   9.044 -0.1826  0.3449 -0.0746
  570ERGO    C1 8265  15.346   8.636   8.714 -0.2508  0.2313 -0.0835
  570ERGO    C2 8266  15.209   8.695   8.415 -0.2073 -0.1641 -0.1550
  571ERGO   ROH 8267  12.565   5.177   9.820 -0.1872  0.1691 -0.2130
  571ERGO    R1 8268  12.597   5.085   9.555 -0.0988  0.0753 -0.1700
  571ERGO    R2 8269  12.769   5.204   9.375 -0.0079 -0.0142 -0.1420
  571ERGO    R3 8270  12.868   4.951   9.352 -0.0416 -0.0397 -0.0201
  571ERGO    R4 8271  12.912   5.073   9.089 -0.0055 -0.1671 -0.0727
  571ERGO    R5 8272  12.809   4.885   9.129 -0.0348 -0.1343  0.0060
  571ERGO    C1 8273  13.088   4.761   8.900 -0.0357 -0.2801  0.0821
  571ERGO    C2 8274  13.302   4.747   8.527  0.3018 -0.2351 -0.2093
  572ERGO   ROH 8275  10.613   1.345   9.545  0.0967 -0.0761 -0.2813
  572ERGO    R1 8276  10.729   1.563   9.406 -0.0681  0.0045 -0.2947
  572ERGO    R2 8277  10.990   1.558   9.313 -0.0305  0.2363 -0.2053
  572ERGO    R3 8278  10.872   1.619   9.076 -0.0112  0.0629 -0.2601
  572ERGO    R4 8279  11.151   1.564   9.008  0.0750  0.3532 -0.1486
  572ERGO    R5 8280  11.038   1.743   8.957 -0.1017  0.2216 -0.2229
  572ERGO    C1 8281  11.134   1.624   8.607  0.1546  0.2585 -0.1670
  572ERGO    C2 8282  11.256   1.505   8.454 -0.1838 -0.0746  0.1852
  573ERGO   ROH 8283   6.575  10.216   9.709  0.2474 -0.0793 -0.1297
  573ERGO    R1 8284   6.655  10.051   9.494  0.2658 -0.0430 -0.1506
  573ERGO    R2 8285   6.497  10.009   9.271  0.1942 -0.1713 -0.0763
  573ERGO    R3 8286   6.719  10.093   9.138  0.0788 -0.0300 -0.1842
  573ERGO    R4 8287   6.516  10.061   8.930  0.0816 -0.4790 -0.1324
  573ERGO    R5 8288   6.715   9.972   8.932  0.1943 -0.2401 -0.0682
  573ERGO    C1 8289   6.735  10.170   8.606 -0.0922 -0.5254 -0.2661
  573ERGO    C2 8290   6.842  10.225   8.464  0.0584 -0.2059  0.2659
  574ERGO   ROH 8291  15.044  12.749   9.832 -0.0554  0.2615  0.0132
  574ERGO    R1 8292  14.933  12.872   9.603 -0.0508  0.0992 -0.0768
  574ERGO    R2 8293  15.057  12.866   9.355 -0.0470 -0.0756 -0.0672
  574ERGO    R3 8294  14.818  12.765   9.275 -0.0452 -0.1310 -0.0066
  574ERGO    R4 8295  14.933  12.882   9.033 -0.1192 -0.1127 -0.0420
  574ERGO    R5 8296  14.736  12.923   9.115 -0.1134 -0.1502  0.0039
  574ERGO    C1 8297  14.637  12.795   8.770 -0.1595 -0.1864  0.0294
  574ERGO    C2 8298  14.655  12.612   8.435  0.0378  0.3734  0.0699
  575ERGO   ROH 8299   6.988  14.047   9.616 -0.0626  0.0306 -0.1350
  575ERGO    R1 8300   6.891  14.078   9.352 -0.0817  0.0082 -0.1305
  575ERGO    R2 8301   7.056  14.139   9.139 -0.0961 -0.0168 -0.1486
  575ERGO    R3 8302   6.944  13.916   9.030 -0.1107 -0.0241 -0.1191
  575ERGO    R4 8303   6.989  14.097   8.802 -0.0078 -0.0976 -0.1569
  575ERGO    R5 8304   6.800  14.001   8.858 -0.0436 -0.0429 -0.1843
  575ERGO    C1 8305   6.844  13.864   8.504  0.0298 -0.1516 -0.1338
  575ERGO    C2 8306   7.067  13.896   8.224 -0.0517  0.0439 -0.2253
  576ERGO   ROH 8307  17.273   1.813   9.599  0.1133  0.0633 -0.0913
  576ERGO    R1 8308  17.358   1.993   9.397  0.0165  0.1742 -0.0345
  576ERGO    R2 8309  17.424   1.910   9.142  0.2745  0.2595  0.0007
  576ERGO    R3 8310  17.240   2.096   9.068  0.0864  0.0374 -0.1030
  576ERGO    R4 8311  17.401   2.052   8.828  0.1851  0.1299 -0.0523
  576ERGO    R5 8312  17.359   2.244   8.923 -0.0429  0.1188 -0.1270
  576ERGO    C1 8313  17.215   2.310   8.576 -0.0435 -0.1541 -0.1805
  576ERGO    C2 8314  17.279   2.476   8.290  0.0564 -0.0666  0.1848
  577ERGO   ROH 8315   7.489  11.400   9.845  0.2557 -0.1189  0.0864
  577ERGO    R1 8316   7.627  11.381   9.598  0.1459 -0.0694  0.0209
  577ERGO    R2 8317   7.541  11.218   9.392  0.1017 -0.0923  0.0606
  577ERGO    R3 8318   7.553  11.448   9.248 -0.0399 -0.0869  0.0548
  577ERGO    R4 8319   7.617  11.238   9.055 -0.0285 -0.0685  0.0316
  577ERGO    R5 8320   7.736  11.415   9.098 -0.0796 -0.0200 -0.0121
  577ERGO    C1 8321   7.673  11.466   8.725 -0.2372 -0.0496  0.0092
  577ERGO    C2 8322   7.582  11.566   8.434  0.0348  0.1988  0.1307
  578ERGO   ROH 8323  15.128  17.865   9.422 -0.0343 -0.0705 -0.1015
  578ERGO    R1 8324  15.359  17.861   9.259 -0.0376 -0.0351 -0.1082
  578ERGO    R2 8325  15.405  17.663   9.071 -0.0390  0.0016 -0.1497
  578ERGO    R3 8326  15.431  17.874   8.902 -0.0474  0.0362 -0.1073
  578ERGO    R4 8327  15.605  17.667   8.789  0.0493  0.1071 -0.0861
  578ERGO    R5 8328  15.662  17.871   8.838 -0.0267  0.1155 -0.0351
  578ERGO    C1 8329  15.745  17.867   8.466  0.0929  0.2012 -0.0094
  578ERGO    C2 8330  15.851  17.824   8.145  0.0479 -0.2077  0.2365
  579ERGO   ROH 8331   1.197   7.441  10.304  0.2345  0.2751  0.1329
  579ERGO    R1 8332   1.271   7.494  10.036  0.2694  0.2114  0.1300
  579ERGO    R2 8333   1.519   7.427   9.934  0.1636 -0.1255  0.0839
  579ERGO    R3 8334   1.371   7.298   9.746 -0.0495  0.1090  0.0845
  579ERGO    R4 8335   1.574   7.444   9.593  0.4852 -0.5552  0.1063
  579ERGO    R5 8336   1.358   7.453   9.564  0.5123  0.0067 -0.0619
  579ERGO    C1 8337   1.468   7.333   9.219  0.4724 -0.5852  0.1197
  579ERGO    C2 8338   1.557   7.251   9.015  0.4417 -0.2405  0.1747
  580ERGO   ROH 8339   9.937  16.392   9.903 -0.1556  0.1719  0.0074
  580ERGO    R1 8340   9.807  16.256   9.692 -0.1348  0.1739 -0.0061
  580ERGO    R2 8341   9.622  16.378   9.527 -0.0916  0.1832 -0.0430
  580ERGO    R3 8342   9.786  16.287   9.330 -0.0714  0.1528 -0.0127
  580ERGO    R4 8343   9.536  16.356   9.193 -0.1361 -0.0567 -0.0177
  580ERGO    R5 8344   9.641  16.165   9.184 -0.0346 -0.0115  0.0804
  580ERGO    C1 8345   9.639  16.258   8.814 -0.1431 -0.2251  0.0252
  580ERGO    C2 8346   9.616  16.276   8.537 -0.0862 -0.0039  0.0297
  581ERGO   ROH 8347   6.657  10.733   9.816  0.1081 -0.0750  0.0973
  581ERGO    R1 8348   6.760  10.691   9.556  0.0724  0.0276  0.0694
  581ERGO    R2 8349   6.651  10.507   9.380  0.0625  0.0934  0.0270
  581ERGO    R3 8350   6.637  10.722   9.215  0.0291  0.1454  0.0916
  581ERGO    R4 8351   6.669  10.493   9.036 -0.3667  0.1356 -0.0054
  581ERGO    R5 8352   6.792  10.673   9.039 -0.2107  0.0487 -0.1115
  581ERGO    C1 8353   6.666  10.687   8.680 -0.6479  0.2088  0.0365
  581ERGO    C2 8354   6.566  10.680   8.274 -0.0157  0.0761 -0.2406
  582ERGO   ROH 8355  18.000   3.183   9.281 -0.1844 -0.1302 -0.0635
  582ERGO    R1 8356  18.074   3.228   9.011 -0.0621 -0.2287 -0.0467
  582ERGO    R2 8357  17.962   3.088   8.800 -0.1746 -0.1042 -0.0684
  582ERGO    R3 8358  17.908   3.338   8.707  0.1449 -0.0434 -0.0948
  582ERGO    R4 8359  17.947   3.176   8.466 -0.2669 -0.1690 -0.0817
  582ERGO    R5 8360  18.049   3.362   8.515  0.0535 -0.3106 -0.1983
  582ERGO    C1 8361  17.887   3.461   8.184 -0.0208 -0.1496 -0.1143
  582ERGO    C2 8362  17.775   3.546   7.891 -0.0435  0.0275 -0.0786
  583ERGO   ROH 8363  12.088  12.617  10.174  0.3343  0.1421  0.0329
  583ERGO    R1 8364  12.247  12.519   9.961  0.1860 -0.0109 -0.0104
  583ERGO    R2 8365  12.151  12.339   9.774 -0.0213  0.0389  0.0413
  583ERGO    R3 8366  12.237  12.528   9.598  0.0678 -0.0466 -0.0072
  583ERGO    R4 8367  12.161  12.300   9.431 -0.0227 -0.0537  0.0519
  583ERGO    R5 8368  12.352  12.405   9.429  0.0201 -0.1389  0.0303
  583ERGO    C1 8369  12.247  12.455   9.066  0.0601 -0.1879  0.0124
  583ERGO    C2 8370  12.190  12.533   8.653 -0.1447 -0.0754  0.2088
  584ERGO   ROH 8371  16.039  11.662   9.554 -0.0831 -0.1590 -0.1688
  584ERGO    R1 8372  16.072  11.533   9.304 -0.0464 -0.0381 -0.2269
  584ERGO    R2 8373  15.969  11.635   9.069 -0.1212  0.0111 -0.1729
  584ERGO    R3 8374  16.226  11.613   8.984 -0.1186  0.1718 -0.2108
  584ERGO    R4 8375  16.070  11.662   8.740 -0.1998 -0.0275 -0.2006
  584ERGO    R5 8376  16.209  11.497   8.775 -0.0709  0.0862 -0.1678
  584ERGO    C1 8377  16.371  11.656   8.468 -0.2430  0.1009 -0.2524
  584ERGO    C2 8378  16.560  11.602   8.235  0.1539 -0.0229 -0.1903
  585ERGO   ROH 8379  16.384   4.879   9.846 -0.1565 -0.0801 -0.0161
  585ERGO    R1 8380  16.278   4.925   9.587 -0.0340 -0.2015 -0.0888
  585ERGO    R2 8381  16.250   5.178   9.480 -0.2996 -0.2282 -0.0824
  585ERGO    R3 8382  16.394   5.073   9.276 -0.0077 -0.0152  0.0068
  585ERGO    R4 8383  16.263   5.308   9.161 -0.3050 -0.2081 -0.0746
  585ERGO    R5 8384  16.256   5.105   9.083  0.0543 -0.2287 -0.0793
  585ERGO    C1 8385  16.406   5.286   8.782 -0.0341  0.0036  0.0136
  585ERGO    C2 8386  16.415   5.576   8.548  0.3364  0.1747  0.1058
  586ERGO   ROH 8387   5.179   0.585   9.811 -0.1788 -0.2676  0.0531
  586ERGO    R1 8388   5.107   0.760   9.600 -0.1675 -0.1944  0.1100
  586ERGO    R2 8389   5.294   0.900   9.453 -0.1613 -0.1475  0.1678
  586ERGO    R3 8390   5.170   0.782   9.242 -0.1534 -0.0704  0.1188
  586ERGO    R4 8391   5.364   0.966   9.121 -0.1553 -0.0086  0.1957
  586ERGO    R5 8392   5.149   0.957   9.080 -0.1578 -0.0023  0.1884
  586ERGO    C1 8393   5.287   0.894   8.729 -0.1444  0.1447  0.1660
  586ERGO    C2 8394   5.399   0.772   8.434  0.2874  0.0990  0.0002
  587ERGO   ROH 8395   8.618   0.827  10.009 -0.0027 -0.0481 -0.0795
  587ERGO    R1 8396   8.642   0.743   9.740 -0.1594  0.0508 -0.1264
  587ERGO    R2 8397   8.512   0.871   9.532 -0.1711  0.2159 -0.0244
  587ERGO    R3 8398   8.763   0.886   9.427 -0.2016  0.1145 -0.1125
  587ERGO    R4 8399   8.585   0.922   9.198 -0.2611 -0.1068 -0.0960
  587ERGO    R5 8400   8.746   0.776   9.215 -0.2600 -0.0890 -0.0022
  587ERGO    C1 8401   8.862   0.965   8.905 -0.3422 -0.3899 -0.2206
  587ERGO    C2 8402   8.888   1.113   8.637  0.0131  0.0567  0.1212
  588ERGO   ROH 8403   7.265   8.592  10.169 -0.2066  0.0473 -0.1110
  588ERGO    R1 8404   7.380   8.641   9.915 -0.1835  0.0109 -0.1070
  588ERGO    R2 8405   7.614   8.521   9.832 -0.1405  0.0532 -0.0400
  588ERGO    R3 8406   7.463   8.444   9.620 -0.0871 -0.0443 -0.0445
  588ERGO    R4 8407   7.734   8.354   9.553 -0.0078  0.1967 -0.0708
  588ERGO    R5 8408   7.604   8.479   9.430 -0.1223  0.1075 -0.0464
  588ERGO    C1 8409   7.660   8.186   9.192  0.1196  0.1886 -0.0929
  588ERGO    C2 8410   7.678   7.970   8.948  0.1031 -0.1365 -0.1503
  589ERGO   ROH 8411  17.669   4.246   9.927 -0.0880  0.0067 -0.2870
  589ERGO    R1 8412  17.617   4.138   9.670 -0.2053  0.0140 -0.2684
  589ERGO    R2 8413  17.519   4.291   9.462 -0.0489  0.0852 -0.2993
  589ERGO    R3 8414  17.737   4.194   9.331 -0.1467 -0.1689 -0.2771
  589ERGO    R4 8415  17.599   4.360   9.133  0.2118  0.2057 -0.2122
  589ERGO    R5 8416  17.659   4.152   9.108 -0.1163  0.1266 -0.3428
  589ERGO    C1 8417  17.850   4.310   8.818  0.2718  0.0373 -0.1408
  589ERGO    C2 8418  18.073   4.396   8.492 -0.1546  0.0519 -0.0003
  590ERGO   ROH 8419   4.596  10.080   9.890  0.1184 -0.1316  0.0881
  590ERGO    R1 8420   4.436   9.966   9.686  0.1160 -0.2707  0.1676
  590ERGO    R2 8421   4.410  10.081   9.436 -0.1542 -0.2581  0.2053
  590ERGO    R3 8422   4.489   9.835   9.351  0.0536 -0.1656  0.1134
  590ERGO    R4 8423   4.411   9.977   9.106 -0.6088 -0.3044  0.2118
  590ERGO    R5 8424   4.338   9.783   9.172 -0.2118 -0.4123  0.3920
  590ERGO    C1 8425   4.485   9.686   8.834 -0.6784 -0.2443  0.1294
  590ERGO    C2 8426   4.405   9.573   8.468  0.0701  0.2044 -0.1973
  591ERGO   ROH 8427   7.267  15.694  10.129  0.2966  0.1996 -0.0921
  591ERGO    R1 8428   7.161  15.747   9.872  0.1034  0.0778 -0.0381
  591ERGO    R2 8429   7.320  15.783   9.649 -0.0594  0.1197 -0.1434
  591ERGO    R3 8430   7.164  15.586   9.545 -0.0107  0.0060 -0.0061
  591ERGO    R4 8431   7.305  15.700   9.314 -0.1080 -0.0440 -0.1020
  591ERGO    R5 8432   7.089  15.674   9.335 -0.0984 -0.1189 -0.0332
  591ERGO    C1 8433   7.151  15.466   9.022 -0.0905 -0.2460  0.0506
  591ERGO    C2 8434   7.446  15.412   8.814 -0.0527 -0.0385 -0.2382
  592ERGO   ROH 8435   5.705  15.326  10.017 -0.1160 -0.0300  0.0023
  592ERGO    R1 8436   5.633  15.285   9.747 -0.0694 -0.0204 -0.0120
  592ERGO    R2 8437   5.535  15.488   9.586 -0.1182 -0.0311 -0.0002
  592ERGO    R3 8438   5.739  15.413   9.423 -0.0712  0.0563  0.0185
  592ERGO    R4 8439   5.547  15.547   9.246 -0.2381 -0.2729 -0.0483
  592ERGO    R5 8440   5.631  15.348   9.219 -0.0391 -0.2065  0.0855
  592ERGO    C1 8441   5.746  15.511   8.894 -0.2637 -0.3316 -0.0587
  592ERGO    C2 8442   5.742  15.637   8.522  0.0924 -0.1908 -0.1167
  593ERGO   ROH 8443   0.609   4.839  10.016  0.0785 -0.0327 -0.0959
  593ERGO    R1 8444   0.658   4.646   9.815  0.0607 -0.0537 -0.0805
  593ERGO    R2 8445   0.463   4.564   9.636  0.0181 -0.1404  0.0027
  593ERGO    R3 8446   0.649   4.635   9.451 -0.0684 -0.1179 -0.0759
  593ERGO    R4 8447   0.434   4.508   9.297 -0.0799 -0.2168  0.0235
  593ERGO    R5 8448   0.646   4.455   9.292 -0.0652 -0.1497 -0.0387
  593ERGO    C1 8449   0.592   4.542   8.925 -0.2182 -0.2403 -0.0381
  593ERGO    C2 8450   0.476   4.535   8.569 -0.1608 -0.3333  0.3622
  594ERGO   ROH 8451   3.626  13.869   9.492 -0.2210  0.1091 -0.1763
  594ERGO    R1 8452   3.575  13.746   9.242  0.0047 -0.1254 -0.1127
  594ERGO    R2 8453   3.481  13.887   9.023 -0.2313 -0.4036 -0.2063
  594ERGO    R3 8454   3.699  13.778   8.902 -0.0252 -0.0980 -0.1190
  594ERGO    R4 8455   3.525  13.860   8.681  0.0412 -0.1882 -0.1904
  594ERGO    R5 8456   3.610  13.662   8.712  0.2410 -0.1036 -0.2374
  594ERGO    C1 8457   3.755  13.742   8.369  0.3933  0.2241 -0.0992
  594ERGO    C2 8458   3.559  13.882   8.136 -0.0854 -0.2909 -0.3433
  595ERGO   ROH 8459   5.770   4.239   9.989  0.2219  0.3147 -0.0024
  595ERGO    R1 8460   5.890   4.211   9.734  0.1086  0.2048 -0.0459
  595ERGO    R2 8461   5.958   3.965   9.627  0.1845  0.1604  0.0843
  595ERGO    R3 8462   5.806   4.049   9.419  0.0281 -0.0555  0.1083
  595ERGO    R4 8463   6.009   3.876   9.297  0.1497  0.1231  0.0895
  595ERGO    R5 8464   5.963   4.081   9.240 -0.0754  0.0524  0.0444
  595ERGO    C1 8465   5.896   3.904   8.909 -0.0175 -0.1012  0.1150
  595ERGO    C2 8466   5.870   3.828   8.510  0.2786 -0.0763 -0.0324
  596ERGO   ROH 8467   6.130   2.464   9.799  0.0629  0.0643  0.1413
  596ERGO    R1 8468   5.932   2.413   9.603  0.0841  0.0930  0.1129
  596ERGO    R2 8469   5.773   2.612   9.497  0.1619  0.1221  0.0552
  596ERGO    R3 8470   5.866   2.516   9.260  0.1751  0.0611  0.0849
  596ERGO    R4 8471   5.594   2.610   9.201  0.1487 -0.0183  0.0628
  596ERGO    R5 8472   5.675   2.412   9.159  0.1922 -0.0166  0.1282
  596ERGO    C1 8473   5.578   2.520   8.806  0.1534 -0.1573  0.0950
  596ERGO    C2 8474   5.675   2.608   8.496 -0.0623  0.0462  0.1369
  597ERGO   ROH 8475   7.519  10.350   9.937 -0.0344  0.0231  0.0467
  597ERGO    R1 8476   7.643  10.272   9.695  0.0820  0.1422  0.0666
  597ERGO    R2 8477   7.531  10.089   9.522  0.3503 -0.0762  0.1148
  597ERGO    R3 8478   7.565  10.287   9.340  0.0528 -0.0688  0.0627
  597ERGO    R4 8479   7.533  10.042   9.180  0.3048 -0.1447  0.1241
  597ERGO    R5 8480   7.698  10.186   9.167  0.1271  0.0564  0.0453
  597ERGO    C1 8481   7.567  10.201   8.809 -0.0010 -0.1776  0.0805
  597ERGO    C2 8482   7.521  10.229   8.485 -0.1226  0.0125  0.1199
  598ERGO   ROH 8483   0.106   1.940   9.842  0.3237 -0.2005 -0.0653
  598ERGO    R1 8484   0.180   1.893   9.573  0.2928 -0.0234 -0.1055
  598ERGO    R2 8485  -0.001   1.899   9.365  0.2203 -0.1493 -0.0451
  598ERGO    R3 8486   0.173   2.080   9.261 -0.0086  0.0813 -0.0394
  598ERGO    R4 8487   0.061   1.942   9.028  0.2536 -0.1444 -0.0386
  598ERGO    R5 8488   0.272   1.966   9.075  0.2104  0.1747  0.0164
  598ERGO    C1 8489   0.261   2.136   8.734  0.0578  0.0750 -0.0295
  598ERGO    C2 8490   0.341   2.244   8.430  0.1824 -0.1098  0.1289
  599ERGO   ROH 8491   2.922  16.342   9.234  0.0003  0.0129  0.2500
  599ERGO    R1 8492   2.939  16.173   9.008 -0.1355 -0.0197  0.2636
  599ERGO    R2 8493   2.722  16.121   8.844 -0.1511  0.2349  0.2027
  599ERGO    R3 8494   2.890  16.207   8.649  0.0131  0.0223  0.2463
  599ERGO    R4 8495   2.695  16.038   8.510 -0.0742  0.1366  0.2203
  599ERGO    R5 8496   2.912  16.019   8.502 -0.0824 -0.0526  0.3247
  599ERGO    C1 8497   2.837  16.069   8.132  0.1248 -0.1202  0.2716
  599ERGO    C2 8498   2.964  15.998   7.792 -0.1558  0.2760 -0.2727
  600ERGO   ROH 8499  12.181   3.702  10.113  0.0305  0.0843 -0.0426
  600ERGO    R1 8500  12.249   3.587   9.863 -0.0072  0.0015 -0.0154
  600ERGO    R2 8501  12.064   3.548   9.661 -0.0067  0.0799 -0.0334
  600ERGO    R3 8502  12.243   3.690   9.514  0.0985 -0.0511 -0.0328
  600ERGO    R4 8503  12.077   3.555   9.316  0.1134 -0.0647 -0.0322
  600ERGO    R5 8504  12.294   3.549   9.328  0.1059 -0.1457  0.0418
  600ERGO    C1 8505  12.253   3.692   8.977  0.2821 -0.2719 -0.0311
  600ERGO    C2 8506  12.170   3.704   8.664 -0.0165 -0.1675  0.0348
  601ERGO   ROH 8507   2.310  15.656   9.256 -0.0107 -0.1773  0.1468
  601ERGO    R1 8508   2.208  15.682   8.994 -0.0216 -0.2587  0.1412
  601ERGO    R2 8509   2.364  15.769   8.782 -0.1022 -0.0352  0.1630
  601ERGO    R3 8510   2.278  15.537   8.667  0.1862 -0.1267  0.1275
  601ERGO    R4 8511   2.385  15.695   8.445 -0.1994  0.1210  0.1228
  601ERGO    R5 8512   2.187  15.605   8.457 -0.0510 -0.1915  0.2120
  601ERGO    C1 8513   2.317  15.436   8.141  0.0148  0.1260  0.0662
  601ERGO    C2 8514   2.331  15.118   7.970 -0.1441 -0.1202 -0.0449
  602ERGO   ROH 8515   9.432   8.549  10.049  0.1060 -0.0060 -0.2054
  602ERGO    R1 8516   9.427   8.681   9.799  0.1140  0.0034 -0.2021
  602ERGO    R2 8517   9.657   8.764   9.670  0.1212  0.0069 -0.1964
  602ERGO    R3 8518   9.556   8.617   9.465  0.1237  0.0120 -0.1992
  602ERGO    R4 8519   9.688   8.846   9.336 -0.0452  0.1166 -0.1853
  602ERGO    R5 8520   9.482   8.781   9.306 -0.0208  0.0163 -0.1266
  602ERGO    C1 8521   9.613   8.755   8.948 -0.1400  0.1852 -0.1814
  602ERGO    C2 8522   9.800   8.862   8.693  0.1576  0.0942 -0.2602
  603ERGO   ROH 8523   5.646  10.654   9.787 -0.2265 -0.1934 -0.1160
  603ERGO    R1 8524   5.707  10.788   9.545 -0.1571 -0.0506 -0.0207
  603ERGO    R2 8525   5.771  10.654   9.312  0.0993  0.0875 -0.0367
  603ERGO    R3 8526   5.569  10.804   9.209  0.0589 -0.0159 -0.1092
  603ERGO    R4 8527   5.734  10.734   8.978  0.0859 -0.0631 -0.0719
  603ERGO    R5 8528   5.673  10.934   9.037  0.0244 -0.0574 -0.1597
  603ERGO    C1 8529   5.523  10.922   8.687  0.0402 -0.2480 -0.1604
  603ERGO    C2 8530   5.621  10.993   8.393 -0.1478 -0.0254 -0.1579
  604ERGO   ROH 8531  10.562  14.159   9.943 -0.3138  0.2189 -0.3357
  604ERGO    R1 8532  10.514  14.264   9.685 -0.1098  0.1858 -0.3897
  604ERGO    R2 8533  10.717  14.309   9.502  0.0365  0.1444 -0.2467
  604ERGO    R3 8534  10.562  14.154   9.342  0.1444  0.1303 -0.3369
  604ERGO    R4 8535  10.733  14.303   9.157  0.2287  0.1413 -0.2380
  604ERGO    R5 8536  10.516  14.292   9.152  0.2375  0.1198 -0.3628
  604ERGO    C1 8537  10.598  14.154   8.805  0.4421  0.1264 -0.3175
  604ERGO    C2 8538  10.499  14.059   8.519  0.1346  0.0501  0.3013
  605ERGO   ROH 8539  12.885  16.283   9.645 -0.0079  0.0606 -0.0874
  605ERGO    R1 8540  12.841  16.435   9.410  0.0089  0.0390 -0.1040
  605ERGO    R2 8541  13.016  16.431   9.195  0.0004 -0.0160 -0.1086
  605ERGO    R3 8542  12.791  16.366   9.056 -0.0152  0.0044 -0.0942
  605ERGO    R4 8543  12.983  16.454   8.852  0.0174 -0.1181 -0.1178
  605ERGO    R5 8544  12.780  16.530   8.881  0.0382 -0.0484 -0.1481
  605ERGO    C1 8545  12.753  16.407   8.521  0.0127 -0.1583 -0.1095
  605ERGO    C2 8546  12.524  16.311   8.286 -0.1652  0.1207 -0.1431
  606ERGO   ROH 8547   9.019   3.052   9.765 -0.1849  0.0605 -0.0358
  606ERGO    R1 8548   9.145   2.962   9.528 -0.3123 -0.0893 -0.0485
  606ERGO    R2 8549   9.003   2.858   9.314 -0.4785  0.2529 -0.1135
  606ERGO    R3 8550   9.136   3.049   9.175 -0.0935  0.0628 -0.0174
  606ERGO    R4 8551   9.016   2.879   8.970 -0.4839  0.4290 -0.1033
  606ERGO    R5 8552   9.226   2.934   8.986 -0.3596 -0.0178 -0.0968
  606ERGO    C1 8553   9.149   3.071   8.638 -0.1256  0.3530 -0.0072
  606ERGO    C2 8554   9.186   3.156   8.338  0.0372  0.0702  0.3251
  607ERGO   ROH 8555   3.532   7.912  10.279  0.0459 -0.1704 -0.0150
  607ERGO    R1 8556   3.689   7.908  10.043  0.0134 -0.2847 -0.0346
  607ERGO    R2 8557   3.631   7.744   9.829 -0.2198 -0.1348 -0.0849
  607ERGO    R3 8558   3.639   7.978   9.690  0.0601 -0.0928 -0.0056
  607ERGO    R4 8559   3.717   7.772   9.495 -0.1796 -0.1340 -0.0745
  607ERGO    R5 8560   3.828   7.954   9.545  0.0402 -0.2753 -0.0097
  607ERGO    C1 8561   3.775   8.008   9.171  0.1066 -0.0940  0.0060
  607ERGO    C2 8562   3.816   7.991   8.826  0.0177  0.0816 -0.0970
  608ERGO   ROH 8563  11.393  17.411   9.843  0.0230 -0.0619  0.0716
  608ERGO    R1 8564  11.222  17.503   9.637  0.0133 -0.0391  0.0904
  608ERGO    R2 8565  11.248  17.754   9.524 -0.0433  0.0031  0.1736
  608ERGO    R3 8566  11.259  17.612   9.292  0.0074  0.0822  0.1271
  608ERGO    R4 8567  11.184  17.882   9.210 -0.2151  0.0555  0.2289
  608ERGO    R5 8568  11.079  17.698   9.161 -0.0905 -0.0096  0.1977
  608ERGO    C1 8569  11.157  17.824   8.809 -0.2676  0.1601  0.2173
  608ERGO    C2 8570  11.229  17.968   8.469  0.2689 -0.2608 -0.0578
  609ERGO   ROH 8571  12.675  15.819   9.558 -0.1105 -0.1107 -0.0025
  609ERGO    R1 8572  12.702  15.942   9.305 -0.1008 -0.0667  0.0191
  609ERGO    R2 8573  12.934  15.927   9.156 -0.0486  0.0697  0.0813
  609ERGO    R3 8574  12.767  15.832   8.964  0.0525  0.0053  0.0253
  609ERGO    R4 8575  12.988  15.956   8.816  0.0391  0.1120  0.0989
  609ERGO    R5 8576  12.776  15.998   8.791  0.0294  0.0170  0.0375
  609ERGO    C1 8577  12.862  15.884   8.437  0.1850  0.0762  0.0568
  609ERGO    C2 8578  12.837  15.785   8.096 -0.2130 -0.0097  0.3777
  610ERGO   ROH 8579   2.740   8.525   9.964 -0.0167  0.1415 -0.0082
  610ERGO    R1 8580   2.621   8.609   9.721  0.0437  0.0583 -0.0656
  610ERGO    R2 8581   2.756   8.602   9.480  0.0895 -0.0563 -0.0303
  610ERGO    R3 8582   2.540   8.457   9.401  0.0869 -0.0579 -0.0245
  610ERGO    R4 8583   2.624   8.603   9.161 -0.0091  0.0807  0.0088
  610ERGO    R5 8584   2.425   8.601   9.248  0.0129  0.0048  0.0798
  610ERGO    C1 8585   2.345   8.467   8.900 -0.0689  0.1590  0.0369
  610ERGO    C2 8586   2.281   8.494   8.501 -0.1870  0.4774 -0.0967
  611ERGO   ROH 8587  10.612  13.673   9.891 -0.2653  0.0171 -0.0089
  611ERGO    R1 8588  10.693  13.792   9.647 -0.2121  0.0523  0.0266
  611ERGO    R2 8589  10.879  13.677   9.479 -0.1112  0.1216  0.0975
  611ERGO    R3 8590  10.683  13.705   9.294 -0.0472  0.0631  0.0165
  611ERGO    R4 8591  10.926  13.661   9.137 -0.0324 -0.3333  0.1214
  611ERGO    R5 8592  10.785  13.826   9.115  0.1044 -0.2335 -0.1109
  611ERGO    C1 8593  10.768  13.679   8.764  0.0736 -0.6532  0.0593
  611ERGO    C2 8594  10.589  13.612   8.324 -0.0332 -0.0280  0.0681
  612ERGO   ROH 8595   2.932  15.245   9.342  0.1377 -0.0330 -0.0491
  612ERGO    R1 8596   3.083  15.117   9.140  0.2182 -0.0638  0.0299
  612ERGO    R2 8597   2.982  15.067   8.888  0.2586 -0.2557  0.0488
  612ERGO    R3 8598   3.205  15.201   8.808  0.1926 -0.1791 -0.0086
  612ERGO    R4 8599   3.071  15.127   8.559  0.1075 -0.1368  0.0286
  612ERGO    R5 8600   3.278  15.085   8.612  0.1387 -0.1022 -0.0728
  612ERGO    C1 8601   3.331  15.287   8.293 -0.0424  0.0044 -0.0370
  612ERGO    C2 8602   3.418  15.231   7.949 -0.0536  0.1586 -0.1522
  613ERGO   ROH 8603   7.879  13.868   9.592 -0.1311  0.1535 -0.1232
  613ERGO    R1 8604   7.976  13.877   9.326 -0.1868  0.0381 -0.1479
  613ERGO    R2 8605   8.119  13.670   9.214  0.0414  0.1058  0.0087
  613ERGO    R3 8606   7.928  13.684   9.021 -0.0136 -0.2883  0.0255
  613ERGO    R4 8607   8.182  13.657   8.874  0.0276  0.1580  0.0041
  613ERGO    R5 8608   8.031  13.813   8.846 -0.2715 -0.1255 -0.0102
  613ERGO    C1 8609   8.038  13.664   8.495 -0.0322 -0.1815  0.0174
  613ERGO    C2 8610   8.041  13.611   8.198 -0.2892 -0.1788 -0.4743
  614ERGO   ROH 8611   5.987  17.557   9.716 -0.0026  0.1499  0.0680
  614ERGO    R1 8612   5.928  17.723   9.494 -0.0602  0.1131  0.0549
  614ERGO    R2 8613   6.111  17.775   9.294 -0.0476  0.2323  0.0934
  614ERGO    R3 8614   5.913  17.684   9.132  0.0452  0.1021  0.0521
  614ERGO    R4 8615   6.141  17.728   8.953  0.0672  0.1954  0.1085
  614ERGO    R5 8616   5.940  17.809   8.930  0.0321  0.0837  0.0414
  614ERGO    C1 8617   5.971  17.616   8.602  0.2212  0.0516  0.0786
  614ERGO    C2 8618   5.988  17.666   8.228  0.0671  0.1211 -0.2392
  615ERGO   ROH 8619   4.417   7.205   9.864  0.0440  0.1772 -0.0546
  615ERGO    R1 8620   4.534   7.217   9.607  0.2653 -0.1774  0.0239
  615ERGO    R2 8621   4.618   6.991   9.471 -0.2724 -0.4418  0.1116
  615ERGO    R3 8622   4.457   7.089   9.275  0.1297  0.0020 -0.0161
  615ERGO    R4 8623   4.660   6.933   9.133 -0.3006 -0.7847  0.1629
  615ERGO    R5 8624   4.607   7.141   9.096  0.4092 -0.5976  0.0164
  615ERGO    C1 8625   4.534   6.991   8.752  0.0606 -0.5677  0.0728
  615ERGO    C2 8626   4.440   6.773   8.533 -0.0148  0.0376  0.0425
  616ERGO   ROH 8627  11.387   9.345  10.133  0.1491 -0.1499 -0.1217
  616ERGO    R1 8628  11.465   9.465   9.889 -0.0175 -0.0808 -0.1415
  616ERGO    R2 8629  11.574   9.321   9.680  0.1527  0.0294 -0.1273
  616ERGO    R3 8630  11.373   9.436   9.538 -0.0028 -0.2416 -0.1330
  616ERGO    R4 8631  11.572   9.361   9.336  0.1901  0.1798 -0.1114
  616ERGO    R5 8632  11.484   9.558   9.365 -0.1515  0.0264 -0.0458
  616ERGO    C1 8633  11.381   9.492   9.004  0.0658  0.0129 -0.1076
  616ERGO    C2 8634  11.474   9.422   8.677  0.2938 -0.2758 -0.0896
  617ERGO   ROH 8635   8.196   2.606   9.878  0.1757  0.0050  0.0055
  617ERGO    R1 8636   8.163   2.546   9.603  0.2281 -0.0852  0.0176
  617ERGO    R2 8637   7.956   2.648   9.452  0.1679 -0.2485 -0.0241
  617ERGO    R3 8638   8.158   2.731   9.290  0.1314 -0.1635 -0.0250
  617ERGO    R4 8639   7.914   2.768   9.131  0.1058  0.0037  0.0762
  617ERGO    R5 8640   8.093   2.658   9.072  0.0606  0.0191 -0.0604
  617ERGO    C1 8641   8.080   2.916   8.792  0.0354  0.2303  0.1339
  617ERGO    C2 8642   7.970   2.948   8.468 -0.4200  0.0828  0.1702
  618ERGO   ROH 8643   2.705  13.458   9.450 -0.0545  0.0713 -0.0670
  618ERGO    R1 8644   2.654  13.310   9.214 -0.0775 -0.0228 -0.0053
  618ERGO    R2 8645   2.640  13.429   8.964 -0.1684 -0.1093 -0.0501
  618ERGO    R3 8646   2.828  13.243   8.902 -0.1359 -0.0831 -0.0226
  618ERGO    R4 8647   2.722  13.330   8.643 -0.0322 -0.0366 -0.0371
  618ERGO    R5 8648   2.736  13.125   8.715 -0.0491 -0.0455 -0.0826
  618ERGO    C1 8649   2.946  13.099   8.398  0.0776  0.0304 -0.0038
  618ERGO    C2 8650   2.968  13.055   8.047 -0.3230 -0.1935  0.2905
  619ERGO   ROH 8651  10.132  13.432   9.787  0.1139  0.1731  0.0020
  619ERGO    R1 8652  10.011  13.285   9.578  0.0135  0.0477  0.1478
  619ERGO    R2 8653  10.021  13.365   9.314 -0.2713 -0.0127  0.1204
  619ERGO    R3 8654  10.121  13.115   9.275 -0.1584  0.0355  0.0892
  619ERGO    R4 8655  10.046  13.207   9.007 -0.1041  0.0861  0.0813
  619ERGO    R5 8656   9.983  13.022   9.103 -0.0670  0.0304  0.0121
  619ERGO    C1 8657  10.154  12.881   8.792  0.0993  0.1890  0.0292
  619ERGO    C2 8658  10.077  12.663   8.575 -0.1722 -0.1953 -0.1954
  620ERGO   ROH 8659  13.515   5.307   9.964 -0.2064  0.2125 -0.1417
  620ERGO    R1 8660  13.575   5.416   9.709 -0.1384  0.0106 -0.2131
  620ERGO    R2 8661  13.833   5.456   9.621 -0.1158  0.1458 -0.0885
  620ERGO    R3 8662  13.751   5.306   9.410  0.1473 -0.1373  0.0055
  620ERGO    R4 8663  13.930   5.507   9.294 -0.2683  0.1610 -0.1326
  620ERGO    R5 8664  13.725   5.465   9.232 -0.1966 -0.2818 -0.0793
  620ERGO    C1 8665  13.909   5.397   8.904 -0.1102 -0.0959 -0.0700
  620ERGO    C2 8666  14.167   5.363   8.680 -0.0513  0.1313  0.1219
  621ERGO   ROH 8667  11.397   3.554   9.776 -0.2264 -0.2214 -0.1298
  621ERGO    R1 8668  11.578   3.588   9.561 -0.2631  0.0972 -0.1139
  621ERGO    R2 8669  11.661   3.378   9.401  0.0790  0.2496 -0.1366
  621ERGO    R3 8670  11.573   3.538   9.201 -0.1593  0.1416 -0.1235
  621ERGO    R4 8671  11.734   3.333   9.067  0.2231  0.4230 -0.1309
  621ERGO    R5 8672  11.757   3.549   9.048 -0.1375  0.4778 -0.0877
  621ERGO    C1 8673  11.694   3.458   8.683  0.0832  0.4227 -0.1152
  621ERGO    C2 8674  11.729   3.479   8.397  0.0972  0.1774  0.1665
  622ERGO   ROH 8675   8.089   2.166   9.827 -0.0502  0.3124 -0.0688
  622ERGO    R1 8676   8.177   2.075   9.574 -0.0434  0.1708 -0.0176
  622ERGO    R2 8677   8.004   2.038   9.361 -0.0547 -0.0399  0.0207
  622ERGO    R3 8678   8.179   2.203   9.233 -0.1291 -0.0594 -0.1058
  622ERGO    R4 8679   8.029   2.072   9.018 -0.1070 -0.2436 -0.0035
  622ERGO    R5 8680   8.246   2.080   9.039 -0.1103 -0.1543 -0.0362
  622ERGO    C1 8681   8.207   2.246   8.698 -0.2073 -0.3805 -0.1364
  622ERGO    C2 8682   8.088   2.318   8.445  0.1949  0.1778  0.3063
  623ERGO   ROH 8683   6.974  10.427   9.890  0.2836  0.1113 -0.0084
  623ERGO    R1 8684   7.135  10.433   9.657  0.1747 -0.0913 -0.0934
  623ERGO    R2 8685   7.112  10.244   9.455 -0.1736 -0.0646 -0.0960
  623ERGO    R3 8686   7.079  10.464   9.299  0.0240 -0.0117 -0.0618
  623ERGO    R4 8687   7.122  10.245   9.110  0.0360  0.0287 -0.0894
  623ERGO    R5 8688   7.233  10.432   9.118  0.1143 -0.0299  0.0244
  623ERGO    C1 8689   7.098  10.452   8.762  0.3436  0.1329 -0.0533
  623ERGO    C2 8690   7.112  10.640   8.482  0.1756 -0.0194 -0.1764
  624ERGO   ROH 8691   8.412  11.827   9.968  0.0631  0.1592  0.1021
  624ERGO    R1 8692   8.328  11.800   9.699  0.1167  0.0636  0.0943
  624ERGO    R2 8693   8.288  12.017   9.533 -0.0382  0.0166  0.0669
  624ERGO    R3 8694   8.460  11.884   9.370  0.0903  0.1372  0.1023
  624ERGO    R4 8695   8.299  12.047   9.189  0.0551  0.0696  0.0742
  624ERGO    R5 8696   8.331  11.832   9.176  0.1820  0.0897  0.0539
  624ERGO    C1 8697   8.467  11.940   8.836  0.2298  0.2137  0.1117
  624ERGO    C2 8698   8.512  11.982   8.495 -0.0850  0.2715  0.1686
  625ERGO   ROH 8699  11.145   7.085   9.524 -0.1637 -0.0926  0.1468
  625ERGO    R1 8700  11.252   7.011   9.272 -0.2090 -0.0514  0.1155
  625ERGO    R2 8701  11.099   6.893   9.074 -0.2605  0.0453  0.0983
  625ERGO    R3 8702  11.194   7.099   8.924 -0.2199  0.0615  0.1453
  625ERGO    R4 8703  11.023   6.946   8.741 -0.2843  0.1591  0.1213
  625ERGO    R5 8704  11.231   7.004   8.708 -0.2713  0.1107  0.1137
  625ERGO    C1 8705  11.068   7.171   8.407 -0.2601  0.2405  0.1788
  625ERGO    C2 8706  10.996   7.238   8.124  0.0512 -0.2976 -0.0803
  626ERGO   ROH 8707   9.756   9.522   9.915 -0.2215 -0.1009  0.0429
  626ERGO    R1 8708   9.808   9.688   9.692 -0.3101 -0.1157  0.0124
  626ERGO    R2 8709  10.055   9.699   9.568 -0.2722  0.1126  0.1169
  626ERGO    R3 8710   9.909   9.642   9.345 -0.1141 -0.1141  0.0660
  626ERGO    R4 8711  10.158   9.760   9.244 -0.1898  0.1575  0.1507
  626ERGO    R5 8712   9.955   9.825   9.197 -0.2553 -0.0871  0.0446
  626ERGO    C1 8713  10.082   9.744   8.846  0.0066 -0.0293  0.1224
  626ERGO    C2 8714  10.115   9.688   8.519  0.1863  0.0731  0.1416
  627ERGO   ROH 8715   0.471  17.794   9.715 -0.0980  0.1643  0.0046
  627ERGO    R1 8716   0.554  17.591   9.536  0.1333  0.1740  0.0968
  627ERGO    R2 8717   0.388  17.488   9.341  0.2048 -0.1952  0.2227
  627ERGO    R3 8718   0.592  17.556   9.176  0.0410  0.0121  0.1014
  627ERGO    R4 8719   0.404  17.411   9.004  0.1401 -0.2951  0.2425
  627ERGO    R5 8720   0.616  17.368   9.029  0.2120 -0.0131  0.1587
  627ERGO    C1 8721   0.606  17.430   8.653 -0.0514 -0.1588  0.1400
  627ERGO    C2 8722   0.737  17.615   8.408 -0.2133  0.0124  0.0089
  628ERGO   ROH 8723   0.924   8.903   9.999 -0.0063  0.1252  0.2025
  628ERGO    R1 8724   0.967   8.816   9.733  0.1266  0.1716  0.2076
  628ERGO    R2 8725   0.787   8.656   9.598  0.2595  0.0771  0.1370
  628ERGO    R3 8726   0.800   8.854   9.412  0.2027  0.1016  0.1596
  628ERGO    R4 8727   0.751   8.610   9.257  0.1038  0.1314  0.1456
  628ERGO    R5 8728   0.912   8.754   9.226  0.1077  0.1149  0.0956
  628ERGO    C1 8729   0.742   8.769   8.885 -0.0401  0.1860  0.1718
  628ERGO    C2 8730   0.518   8.745   8.552 -0.0453 -0.0477  0.0106
  629ERGO   ROH 8731   6.156   6.626  10.114  0.1459 -0.0319 -0.2373
  629ERGO    R1 8732   6.087   6.546   9.852  0.2159 -0.0239 -0.2588
  629ERGO    R2 8733   5.844   6.608   9.736  0.1481 -0.2268 -0.2332
  629ERGO    R3 8734   6.001   6.710   9.539  0.0449 -0.0150 -0.2076
  629ERGO    R4 8735   5.757   6.626   9.402  0.1232 -0.2159 -0.2256
  629ERGO    R5 8736   5.960   6.569   9.350  0.1795 -0.0015 -0.2471
  629ERGO    C1 8737   5.854   6.733   9.023  0.0119 -0.0106 -0.1972
  629ERGO    C2 8738   5.792   6.632   8.732  0.0592  0.1783 -0.0066
  630ERGO   ROH 8739   7.169   2.657   9.759 -0.2882  0.2877 -0.0535
  630ERGO    R1 8740   7.177   2.512   9.516 -0.1815  0.1842  0.0103
  630ERGO    R2 8741   6.980   2.535   9.323 -0.1644  0.0046 -0.0300
  630ERGO    R3 8742   7.191   2.592   9.162 -0.1675  0.0363 -0.0233
  630ERGO    R4 8743   6.989   2.480   8.982 -0.0978 -0.1148 -0.0095
  630ERGO    R5 8744   7.195   2.413   9.003 -0.0712 -0.0200  0.0414
  630ERGO    C1 8745   7.192   2.500   8.632 -0.0619 -0.1546  0.0088
  630ERGO    C2 8746   7.037   2.457   8.326 -0.0775  0.2232 -0.3024
  631ERGO   ROH 8747  10.211  10.188   9.590  0.0748  0.2514  0.0335
  631ERGO    R1 8748   9.961  10.198   9.459  0.0465  0.1040  0.0745
  631ERGO    R2 8749   9.794  10.418   9.472 -0.0717  0.0143  0.0838
  631ERGO    R3 8750   9.805  10.402   9.201 -0.1097 -0.0014  0.0831
  631ERGO    R4 8751   9.556  10.546   9.257 -0.1020  0.0061  0.1124
  631ERGO    R5 8752   9.578  10.367   9.134 -0.1212 -0.0025  0.1187
  631ERGO    C1 8753   9.428  10.606   8.877 -0.1553 -0.0135  0.1284
  631ERGO    C2 8754   9.352  10.597   8.592 -0.1828  0.0828  0.0129
  632ERGO   ROH 8755   5.471   9.674   9.999  0.0937 -0.0326  0.0905
  632ERGO    R1 8756   5.410   9.607   9.731 -0.0311  0.0439  0.0999
  632ERGO    R2 8757   5.333   9.795   9.544  0.2515  0.1543  0.0970
  632ERGO    R3 8758   5.539   9.691   9.402  0.0805 -0.1810  0.0827
  632ERGO    R4 8759   5.346   9.776   9.199  0.2546  0.2876  0.0884
  632ERGO    R5 8760   5.435   9.578   9.218 -0.1206  0.0962  0.0150
  632ERGO    C1 8761   5.547   9.667   8.865  0.0959  0.0505  0.0699
  632ERGO    C2 8762   5.681   9.549   8.568  0.0242  0.0923  0.0763
  633ERGO   ROH 8763  11.002  12.334  10.027  0.1382 -0.1403  0.0139
  633ERGO    R1 8764  10.880  12.229   9.795  0.0269 -0.0499  0.0303
  633ERGO    R2 8765  10.753  12.389   9.608  0.0716  0.0414  0.0729
  633ERGO    R3 8766  10.922  12.265   9.435 -0.0323 -0.0356  0.0260
  633ERGO    R4 8767  10.710  12.377   9.266  0.1861  0.4031  0.0414
  633ERGO    R5 8768  10.777  12.169   9.269 -0.0995  0.3067 -0.1169
  633ERGO    C1 8769  10.843  12.253   8.903  0.1550  0.5414 -0.0209
  633ERGO    C2 8770  10.940  12.111   8.605 -0.3052  0.0789  0.2285
  634ERGO   ROH 8771   9.823   5.672  10.051  0.1308 -0.0564  0.0728
  634ERGO    R1 8772   9.745   5.735   9.786  0.2441 -0.0028  0.0505
  634ERGO    R2 8773   9.903   5.677   9.567  0.2518 -0.1444  0.0849
  634ERGO    R3 8774   9.678   5.551   9.479  0.1653  0.0348  0.0473
  634ERGO    R4 8775   9.846   5.579   9.240  0.1897 -0.0538  0.0687
  634ERGO    R5 8776   9.639   5.644   9.262  0.2422  0.0926  0.0636
  634ERGO    C1 8777   9.602   5.403   8.968  0.0724  0.1671  0.0241
  634ERGO    C2 8778   9.643   5.290   8.572  0.1174  0.3567  0.0506
  635ERGO   ROH 8779   4.153  17.841   9.506  0.2208  0.0524 -0.1940
  635ERGO    R1 8780   4.222  17.894   9.236  0.1183  0.0120 -0.2283
  635ERGO    R2 8781   4.040  17.872   9.029  0.0061  0.1084 -0.1389
  635ERGO    R3 8782   4.117  18.127   8.977  0.1194  0.0659 -0.1811
  635ERGO    R4 8783   4.047  18.016   8.715  0.2221  0.0035 -0.1842
  635ERGO    R5 8784   4.234  18.113   8.769  0.2267 -0.0420 -0.1150
  635ERGO    C1 8785   4.123  18.341   8.484  0.4542 -0.0973 -0.2505
  635ERGO    C2 8786   4.114  18.468   8.137 -0.2751  0.0561  0.0561
  636ERGO   ROH 8787   5.320  12.764   9.403  0.1070 -0.0644 -0.0138
  636ERGO    R1 8788   5.266  12.744   9.126  0.1575 -0.0488 -0.0244
  636ERGO    R2 8789   5.171  12.956   8.977 -0.0112 -0.0972  0.0147
  636ERGO    R3 8790   5.386  12.901   8.821  0.0566  0.1273  0.0248
  636ERGO    R4 8791   5.187  13.012   8.636  0.0201  0.1022  0.0473
  636ERGO    R5 8792   5.292  12.822   8.615  0.1469  0.1793 -0.0382
  636ERGO    C1 8793   5.398  12.993   8.291  0.1019  0.4291  0.0757
  636ERGO    C2 8794   5.356  13.052   8.007 -0.1212 -0.1601 -0.2447
  637ERGO   ROH 8795  10.509   0.011   9.733  0.2573 -0.1089 -0.1162
  637ERGO    R1 8796  10.272  -0.071   9.603  0.2368 -0.1168 -0.0722
  637ERGO    R2 8797  10.036   0.072   9.621  0.2210 -0.1625  0.0263
  637ERGO    R3 8798  10.049   0.066   9.350  0.1437 -0.0940  0.0195
  637ERGO    R4 8799   9.785   0.178   9.409  0.0701 -0.3033  0.1312
  637ERGO    R5 8800   9.827   0.007   9.281  0.1616 -0.2481  0.0789
  637ERGO    C1 8801   9.650   0.233   9.031 -0.0903 -0.3209  0.1860
  637ERGO    C2 8802   9.515   0.416   8.742 -0.0693  0.2419 -0.2086
  638ERGO   ROH 8803   7.991   0.007   9.738 -0.0487 -0.0033  0.0418
  638ERGO    R1 8804   7.993   0.162   9.501 -0.0053 -0.0577  0.0058
  638ERGO    R2 8805   8.108   0.072   9.266 -0.0560 -0.1571  0.0144
  638ERGO    R3 8806   7.863   0.129   9.163 -0.0431 -0.0862  0.0242
  638ERGO    R4 8807   8.021   0.040   8.933 -0.0976 -0.1569  0.0256
  638ERGO    R5 8808   7.910   0.226   8.949 -0.0321 -0.1232  0.0143
  638ERGO    C1 8809   7.741   0.075   8.643 -0.1097 -0.0903  0.0414
  638ERGO    C2 8810   7.723  -0.037   8.333  0.0773  0.1181  0.2578
  639ERGO   ROH 8811   1.612  12.395   9.818  0.0798 -0.0342 -0.0923
  639ERGO    R1 8812   1.505  12.327   9.565  0.1097 -0.0111 -0.1093
  639ERGO    R2 8813   1.449  12.517   9.372  0.2085 -0.0057 -0.1227
  639ERGO    R3 8814   1.609  12.360   9.217  0.1853 -0.0605 -0.0943
  639ERGO    R4 8815   1.450  12.516   9.026  0.3142  0.0614 -0.1240
  639ERGO    R5 8816   1.471  12.299   9.032  0.2061  0.0412 -0.1521
  639ERGO    C1 8817   1.601  12.368   8.680  0.3539  0.0493 -0.0979
  639ERGO    C2 8818   1.402  12.327   8.398  0.1777 -0.0637  0.3566
  640ERGO   ROH 8819   3.000  17.060   9.540 -0.0079  0.1396  0.0763
  640ERGO    R1 8820   3.025  16.846   9.356  0.0950  0.1799  0.0476
  640ERGO    R2 8821   2.826  16.780   9.177  0.0631  0.0052  0.1657
  640ERGO    R3 8822   3.026  16.808   8.994 -0.0702  0.2006  0.0407
  640ERGO    R4 8823   2.817  16.656   8.854 -0.0637  0.0531  0.1478
  640ERGO    R5 8824   3.027  16.600   8.875  0.0094  0.2104  0.0043
  640ERGO    C1 8825   2.999  16.611   8.495 -0.2626  0.2644  0.0201
  640ERGO    C2 8826   2.823  16.573   8.336 -0.2263 -0.1745  0.1999
  641ERGO   ROH 8827  11.323   9.018   9.318 -0.2647  0.0435 -0.0741
  641ERGO    R1 8828  11.367   9.057   9.041 -0.2763 -0.0463 -0.0879
  641ERGO    R2 8829  11.616   9.028   8.925 -0.2779 -0.0454 -0.0794
  641ERGO    R3 8830  11.483   8.855   8.761 -0.2484 -0.1232 -0.0235
  641ERGO    R4 8831  11.739   8.904   8.626 -0.3442  0.0795 -0.1602
  641ERGO    R5 8832  11.540   8.927   8.540 -0.4166 -0.0511 -0.0500
  641ERGO    C1 8833  11.686   8.670   8.300 -0.3551  0.0790 -0.1547
  641ERGO    C2 8834  11.800   8.333   8.189  0.0062  0.0391 -0.0927
  642ERGO   ROH 8835  11.821   0.546   9.613  0.0199 -0.1176  0.0562
  642ERGO    R1 8836  11.735   0.587   9.346 -0.0204 -0.2019  0.0553
  642ERGO    R2 8837  11.832   0.793   9.189 -0.1714 -0.1456  0.0317
  642ERGO    R3 8838  11.890   0.591   9.017 -0.0345 -0.1222  0.0501
  642ERGO    R4 8839  11.888   0.833   8.851 -0.1010 -0.1290  0.0455
  642ERGO    R5 8840  11.775   0.650   8.816 -0.0079 -0.1802  0.0192
  642ERGO    C1 8841  11.976   0.667   8.492  0.0685 -0.0973  0.0709
  642ERGO    C2 8842  12.176   0.742   8.273  0.1284  0.0208  0.0076
  643ERGO   ROH 8843   0.440   0.937   9.651  0.0094  0.0199 -0.0409
  643ERGO    R1 8844   0.314   0.946   9.397  0.0176  0.2164 -0.0396
  643ERGO    R2 8845   0.427   1.073   9.179  0.2317  0.0170 -0.0494
  643ERGO    R3 8846   0.390   0.831   9.060 -0.1767  0.0652 -0.0338
  643ERGO    R4 8847   0.432   1.018   8.838  0.1666 -0.0187 -0.0445
  643ERGO    R5 8848   0.264   0.881   8.863 -0.0770  0.2693 -0.0482
  643ERGO    C1 8849   0.400   0.760   8.528 -0.2546  0.0057 -0.0272
  643ERGO    C2 8850   0.651   0.714   8.360 -0.0183  0.0696  0.0456
  644ERGO   ROH 8851   5.598  13.768   9.643  0.1505 -0.2637 -0.1090
  644ERGO    R1 8852   5.617  13.871   9.380 -0.1215 -0.2747 -0.1361
  644ERGO    R2 8853   5.856  13.884   9.242 -0.1558  0.2394 -0.1705
  644ERGO    R3 8854   5.717  13.746   9.053  0.1228 -0.1288 -0.1192
  644ERGO    R4 8855   5.900  13.917   8.901 -0.0899  0.0429 -0.1825
  644ERGO    R5 8856   5.684  13.905   8.877 -0.0658 -0.3146 -0.2543
  644ERGO    C1 8857   5.795  13.808   8.525  0.2100 -0.4172 -0.1414
  644ERGO    C2 8858   5.794  13.907   8.166  0.2903  0.2680  0.2627
  645ERGO   ROH 8859  15.622  11.953   9.724  0.3978  0.4445  0.0117
  645ERGO    R1 8860  15.576  12.065   9.469  0.1621  0.3339  0.0011
  645ERGO    R2 8861  15.744  12.019   9.254  0.1361  0.4800 -0.0598
  645ERGO    R3 8862  15.513  11.941   9.133  0.1739  0.1766  0.0579
  645ERGO    R4 8863  15.707  11.967   8.914  0.0456  0.3349 -0.0277
  645ERGO    R5 8864  15.511  12.062   8.926 -0.0568  0.1098  0.0233
  645ERGO    C1 8865  15.470  11.864   8.602  0.0284 -0.0344  0.1015
  645ERGO    C2 8866  15.596  11.616   8.314  0.3152 -0.3111 -0.0870
  646ERGO   ROH 8867  16.888  15.572   9.802  0.0975  0.0559  0.0690
  646ERGO    R1 8868  16.881  15.553   9.520  0.1091 -0.1349  0.0798
  646ERGO    R2 8869  16.875  15.311   9.387 -0.1365 -0.2269  0.2481
  646ERGO    R3 8870  16.654  15.418   9.269 -0.0111 -0.0691  0.1529
  646ERGO    R4 8871  16.724  15.188   9.101 -0.0031 -0.0119  0.0820
  646ERGO    R5 8872  16.694  15.393   9.034  0.1333  0.0350  0.1665
  646ERGO    C1 8873  16.429  15.216   8.824  0.1920  0.2613 -0.1041
  646ERGO    C2 8874  16.337  15.084   8.516  0.0965 -0.3142  0.3303
  647ERGO   ROH 8875   7.555  12.481   9.835  0.1689  0.1477 -0.2338
  647ERGO    R1 8876   7.447  12.531   9.578  0.0597 -0.0051 -0.2194
  647ERGO    R2 8877   7.344  12.330   9.418  0.0486 -0.1110 -0.0847
  647ERGO    R3 8878   7.125  12.491   9.414  0.0075 -0.1681 -0.0787
  647ERGO    R4 8879   7.084  12.300   9.193  0.0964 -0.1145 -0.1390
  647ERGO    R5 8880   7.077  12.518   9.180  0.0412 -0.1139 -0.0779
  647ERGO    C1 8881   6.726  12.434   9.058  0.0856 -0.1701 -0.1648
  647ERGO    C2 8882   6.446  12.544   9.011 -0.1025  0.1063  0.3347
  648ERGO   ROH 8883  16.900  10.049   9.959 -0.3110  0.1163  0.0182
  648ERGO    R1 8884  16.780   9.917   9.740 -0.0902  0.0442 -0.0614
  648ERGO    R2 8885  16.713  10.048   9.506 -0.2201  0.0539 -0.0207
  648ERGO    R3 8886  16.865   9.854   9.391  0.0686  0.3023 -0.0717
  648ERGO    R4 8887  16.690   9.949   9.175 -0.3043 -0.1153  0.0345
  648ERGO    R5 8888  16.715   9.742   9.241  0.1546 -0.0497  0.0944
  648ERGO    C1 8889  16.819   9.709   8.875 -0.0825  0.0195  0.0188
  648ERGO    C2 8890  16.930   9.502   8.628  0.1604 -0.2575 -0.3688
  649ERGO   ROH 8891  13.395   8.194   9.921 -0.0372  0.1508 -0.1191
  649ERGO    R1 8892  13.319   8.303   9.671 -0.1335  0.0706 -0.1251
  649ERGO    R2 8893  13.502   8.399   9.488 -0.2177  0.2651 -0.1117
  649ERGO    R3 8894  13.377   8.225   9.320 -0.0236  0.1295 -0.1202
  649ERGO    R4 8895  13.538   8.394   9.144  0.0903  0.0597 -0.0804
  649ERGO    R5 8896  13.325   8.356   9.127  0.1149 -0.0043 -0.2494
  649ERGO    C1 8897  13.441   8.228   8.787  0.4518 -0.1872 -0.0702
  649ERGO    C2 8898  13.430   8.088   8.437  0.2900 -0.0549 -0.3837
  650ERGO   ROH 8899  14.153  14.603   9.833 -0.1136  0.0151  0.2873
  650ERGO    R1 8900  14.216  14.613   9.557 -0.0713  0.3295  0.3038
  650ERGO    R2 8901  14.183  14.396   9.389  0.5323  0.3157  0.1758
  650ERGO    R3 8902  14.036  14.573   9.244  0.0925  0.0242  0.2455
  650ERGO    R4 8903  14.173  14.408   9.044  0.5321  0.4458  0.1803
  650ERGO    R5 8904  14.175  14.625   9.056 -0.0144  0.4600  0.2781
  650ERGO    C1 8905  14.030  14.581   8.706  0.1192  0.2479  0.2484
  650ERGO    C2 8906  13.997  14.601   8.312 -0.0619  0.2154  0.2172
  651ERGO   ROH 8907   1.857  11.991   9.789 -0.0765  0.0735  0.2058
  651ERGO    R1 8908   1.654  11.848   9.653 -0.0361  0.0472  0.1722
  651ERGO    R2 8909   1.540  11.938   9.418 -0.0005  0.0262  0.1471
  651ERGO    R3 8910   1.612  11.692   9.327  0.0420  0.0300  0.1702
  651ERGO    R4 8911   1.376  11.765   9.168  0.0826  0.0148  0.1001
  651ERGO    R5 8912   1.404  11.582   9.284  0.0605  0.0171  0.1102
  651ERGO    C1 8913   1.348  11.433   8.937  0.1707  0.0119  0.0945
  651ERGO    C2 8914   1.158  11.412   8.647  0.2863  0.0980  0.1558
  652ERGO   ROH 8915   6.852  12.776   9.603 -0.1130 -0.0803  0.1074
  652ERGO    R1 8916   6.778  12.791   9.330 -0.0545  0.0887  0.0995
  652ERGO    R2 8917   6.778  13.028   9.188  0.2446  0.1341  0.1710
  652ERGO    R3 8918   6.937  12.888   9.018  0.1100 -0.0018  0.1538
  652ERGO    R4 8919   6.772  13.057   8.844  0.2735  0.1834  0.1740
  652ERGO    R5 8920   6.796  12.840   8.830  0.0622  0.1590  0.1470
  652ERGO    C1 8921   6.918  12.942   8.483  0.1640  0.0844  0.1597
  652ERGO    C2 8922   6.979  12.915   8.059  0.1270 -0.1285 -0.0865
  653ERGO   ROH 8923  18.099   8.188  10.292 -0.2612  0.0585 -0.1391
  653ERGO    R1 8924  18.196   8.143  10.029 -0.2588 -0.0613 -0.1177
  653ERGO    R2 8925  18.439   8.022   9.979 -0.1361  0.1597 -0.0512
  653ERGO    R3 8926  18.287   7.855   9.826  0.0199 -0.1401  0.1099
  653ERGO    R4 8927  18.545   7.869   9.688 -0.0590  0.1681 -0.0280
  653ERGO    R5 8928  18.349   7.908   9.601 -0.1693 -0.1574  0.0491
  653ERGO    C1 8929  18.465   7.623   9.375  0.1323 -0.1084  0.1368
  653ERGO    C2 8930  18.615   7.526   9.025 -0.1044 -0.1047 -0.1270
  654ERGO   ROH 8931   0.454  16.404   9.876 -0.0164  0.0225  0.0534
  654ERGO    R1 8932   0.312  16.379   9.632 -0.0249  0.0343  0.0579
  654ERGO    R2 8933   0.403  16.488   9.395  0.0161 -0.0412  0.0423
  654ERGO    R3 8934   0.373  16.234   9.304 -0.0805 -0.0449  0.0813
  654ERGO    R4 8935   0.381  16.397   9.062 -0.0259 -0.0779  0.0544
  654ERGO    R5 8936   0.227  16.254   9.116 -0.0803 -0.0153  0.0810
  654ERGO    C1 8937   0.341  16.105   8.784 -0.1410 -0.1027  0.0981
  654ERGO    C2 8938   0.446  15.889   8.512  0.0245  0.2360 -0.2941
  655ERGO   ROH 8939   4.894  16.289   9.868 -0.0132 -0.0064  0.1541
  655ERGO    R1 8940   5.014  16.227   9.620 -0.0229 -0.0231  0.1542
  655ERGO    R2 8941   4.891  16.279   9.378 -0.0216 -0.0187  0.1577
  655ERGO    R3 8942   5.123  16.411   9.325 -0.0105 -0.0407  0.1467
  655ERGO    R4 8943   5.019  16.335   9.062 -0.0419 -0.0175  0.1489
  655ERGO    R5 8944   5.218  16.293   9.140 -0.0385 -0.0440  0.1322
  655ERGO    C1 8945   5.311  16.491   8.828 -0.0433 -0.0376  0.1336
  655ERGO    C2 8946   5.355  16.526   8.481  0.0894  0.2468  0.1140
  656ERGO   ROH 8947  13.112  10.827  10.214 -0.0655 -0.2521  0.1797
  656ERGO    R1 8948  13.186  10.691   9.976 -0.1175 -0.2083  0.1378
  656ERGO    R2 8949  13.003  10.558   9.818 -0.1821 -0.0229  0.0529
  656ERGO    R3 8950  13.107  10.715   9.622 -0.0430 -0.0132  0.1335
  656ERGO    R4 8951  12.959  10.507   9.479 -0.1416  0.1313  0.0237
  656ERGO    R5 8952  13.167  10.562   9.449 -0.1008  0.0143  0.0895
  656ERGO    C1 8953  13.031  10.624   9.098  0.0126  0.2302  0.0824
  656ERGO    C2 8954  12.974  10.508   8.777  0.0998 -0.1727 -0.0272
  657ERGO   ROH 8955   8.650  15.919   9.848 -0.1211  0.0659 -0.0471
  657ERGO    R1 8956   8.678  16.053   9.600  0.0207 -0.0428 -0.0912
  657ERGO    R2 8957   8.851  15.967   9.402 -0.0949 -0.3116 -0.0783
  657ERGO    R3 8958   8.627  15.973   9.249 -0.1014 -0.0925 -0.0626
  657ERGO    R4 8959   8.848  16.000   9.058 -0.0890 -0.2639 -0.0740
  657ERGO    R5 8960   8.676  16.133   9.078  0.0290 -0.1129 -0.0452
  657ERGO    C1 8961   8.635  16.026   8.714 -0.0917 -0.0306 -0.0566
  657ERGO    C2 8962   8.656  16.029   8.373 -0.1230  0.0309 -0.1014
  658ERGO   ROH 8963  11.697   2.105   9.724  0.2954 -0.0740  0.0785
  658ERGO    R1 8964  11.741   2.251   9.485  0.1493 -0.0432  0.0703
  658ERGO    R2 8965  11.939   2.185   9.304  0.0374 -0.0181 -0.0571
  658ERGO    R3 8966  11.732   2.184   9.128 -0.0680  0.0055  0.0643
  658ERGO    R4 8967  11.969   2.219   8.961 -0.1606  0.0699 -0.0678
  658ERGO    R5 8968  11.792   2.346   8.963 -0.1762  0.0554  0.0679
  658ERGO    C1 8969  11.793   2.238   8.597 -0.3746  0.1432  0.0399
  658ERGO    C2 8970  11.781   2.359   8.278 -0.2093 -0.0552 -0.0806
  659ERGO   ROH 8971   1.101   2.036   9.766 -0.3117  0.0657 -0.1107
  659ERGO    R1 8972   1.190   2.176   9.537 -0.0600 -0.0033 -0.0563
  659ERGO    R2 8973   1.098   2.428   9.471 -0.0197 -0.0459 -0.2516
  659ERGO    R3 8974   1.363   2.489   9.468 -0.0215 -0.0021  0.0335
  659ERGO    R4 8975   1.243   2.674   9.276  0.1668 -0.1689 -0.2736
  659ERGO    R5 8976   1.410   2.540   9.239  0.2482 -0.1752  0.0388
  659ERGO    C1 8977   1.575   2.874   9.159  0.2737 -0.1994 -0.0188
  659ERGO    C2 8978   1.732   3.091   9.069 -0.2691  0.3547 -0.1206
  660ERGO   ROH 8979   5.681   5.122  10.024 -0.0630  0.1568  0.0351
  660ERGO    R1 8980   5.686   5.212   9.756 -0.0590  0.0745  0.0073
  660ERGO    R2 8981   5.881   5.134   9.576 -0.0624  0.0132  0.0331
  660ERGO    R3 8982   5.667   5.061   9.425 -0.0630 -0.0248  0.0519
  660ERGO    R4 8983   5.892   5.067   9.237 -0.0952  0.1266  0.0093
  660ERGO    R5 8984   5.702   5.172   9.216 -0.1444  0.0588  0.0794
  660ERGO    C1 8985   5.697   4.960   8.898 -0.1149  0.1569  0.0131
  660ERGO    C2 8986   5.895   4.870   8.656 -0.2081 -0.1326 -0.1942
  661ERGO   ROH 8987  14.990   9.457  10.241 -0.0029  0.1248 -0.0680
  661ERGO    R1 8988  15.132   9.467   9.997 -0.0525  0.1427 -0.0954
  661ERGO    R2 8989  15.150   9.250   9.826 -0.0150  0.1313 -0.0713
  661ERGO    R3 8990  15.053   9.427   9.644 -0.1040  0.0773 -0.0778
  661ERGO    R4 8991  15.200   9.231   9.485 -0.1153  0.0632 -0.0829
  661ERGO    R5 8992  15.227   9.446   9.481 -0.1536  0.0715 -0.1361
  661ERGO    C1 8993  15.138   9.385   9.115 -0.2572 -0.0270 -0.0957
  661ERGO    C2 8994  15.006   9.456   8.770 -0.1444  0.1138 -0.1608
  662ERGO   ROH 8995   6.436   9.456   9.806 -0.0560  0.1321  0.2442
  662ERGO    R1 8996   6.465   9.564   9.546 -0.1014  0.1344  0.2393
  662ERGO    R2 8997   6.663   9.480   9.372 -0.0227  0.2562  0.2639
  662ERGO    R3 8998   6.453   9.437   9.205  0.0214  0.0994  0.2486
  662ERGO    R4 8999   6.658   9.561   9.036  0.0250  0.0213  0.2056
  662ERGO    R5 9000   6.452   9.628   9.060  0.0101 -0.0037  0.1157
  662ERGO    C1 9001   6.458   9.567   8.684  0.0942 -0.2626  0.1572
  662ERGO    C2 9002   6.552   9.765   8.374 -0.1301 -0.1521  0.2498
  663ERGO   ROH 9003  10.119   1.278   9.503 -0.0362  0.1042 -0.1842
  663ERGO    R1 9004  10.049   1.278   9.228 -0.0034 -0.0257 -0.1940
  663ERGO    R2 9005  10.013   1.046   9.084 -0.0661 -0.0985 -0.0702
  663ERGO    R3 9006   9.772   1.157   9.025 -0.0211 -0.0458 -0.1556
  663ERGO    R4 9007   9.781   0.911   8.867 -0.1791 -0.2315  0.1315
  663ERGO    R5 9008   9.741   1.112   8.792 -0.0910 -0.3004 -0.0957
  663ERGO    C1 9009   9.419   0.936   8.686 -0.2028 -0.2595  0.1685
  663ERGO    C2 9010   9.185   0.705   8.542 -0.0418 -0.0098  0.1110
  664ERGO   ROH 9011   8.347   3.971   9.740 -0.2729 -0.0442 -0.0287
  664ERGO    R1 9012   8.437   3.799   9.535 -0.1639 -0.0214 -0.0001
  664ERGO    R2 9013   8.278   3.602   9.424 -0.0604 -0.0973 -0.0127
  664ERGO    R3 9014   8.343   3.725   9.191 -0.0729 -0.0888 -0.0117
  664ERGO    R4 9015   8.302   3.444   9.118  0.0254 -0.1105  0.0009
  664ERGO    R5 9016   8.478   3.565   9.075 -0.0067 -0.0545  0.0145
  664ERGO    C1 9017   8.377   3.468   8.720  0.0638 -0.1101  0.0096
  664ERGO    C2 9018   8.191   3.385   8.467 -0.4328 -0.2049  0.2035
  665ERGO   ROH 9019  10.003   3.567   9.878 -0.0203 -0.0049 -0.0347
  665ERGO    R1 9020   9.932   3.576   9.604  0.0786  0.0100 -0.0601
  665ERGO    R2 9021  10.089   3.701   9.414  0.2016 -0.0718 -0.0144
  665ERGO    R3 9022  10.075   3.460   9.290  0.1357 -0.0740 -0.0031
  665ERGO    R4 9023  10.064   3.656   9.072  0.0237 -0.0789 -0.0012
  665ERGO    R5 9024   9.922   3.494   9.109  0.0419 -0.0770  0.0754
  665ERGO    C1 9025  10.036   3.402   8.757 -0.1416 -0.0850  0.0171
  665ERGO    C2 9026  10.100   3.422   8.561  0.0599 -0.1216 -0.0425
  666ERGO   ROH 9027  16.844   2.022   9.396 -0.1318  0.0510  0.1189
  666ERGO    R1 9028  16.742   2.146   9.163 -0.1365 -0.0546  0.0634
  666ERGO    R2 9029  16.782   2.414   9.107 -0.1285 -0.0795 -0.0656
  666ERGO    R3 9030  16.879   2.317   8.872 -0.1405 -0.1968 -0.0223
  666ERGO    R4 9031  16.745   2.569   8.800  0.0458 -0.1238 -0.1100
  666ERGO    R5 9032  16.710   2.372   8.711 -0.0661 -0.1189 -0.0727
  666ERGO    C1 9033  16.814   2.568   8.401  0.1360 -0.2598 -0.0952
  666ERGO    C2 9034  16.669   2.699   8.091  0.1137 -0.0008 -0.1469
  667ERGO   ROH 9035   9.632   6.711  10.110 -0.2590 -0.0239 -0.1154
  667ERGO    R1 9036   9.633   6.615   9.843 -0.2978  0.0035 -0.1260
  667ERGO    R2 9037   9.503   6.746   9.638 -0.0934  0.1813 -0.1500
  667ERGO    R3 9038   9.747   6.736   9.520 -0.0681 -0.0887 -0.0812
  667ERGO    R4 9039   9.559   6.670   9.305 -0.0699  0.0316 -0.1123
  667ERGO    R5 9040   9.732   6.554   9.366 -0.1996 -0.1181 -0.0319
  667ERGO    C1 9041   9.821   6.618   9.001 -0.0324 -0.3090 -0.0258
  667ERGO    C2 9042   9.726   6.681   8.665 -0.0311 -0.0291  0.0106
  668ERGO   ROH 9043  12.213  15.828   9.744 -0.0042  0.0400 -0.1670
  668ERGO    R1 9044  12.188  15.728   9.481 -0.2955  0.1623 -0.1888
  668ERGO    R2 9045  12.111  15.887   9.268  0.1892  0.4513 -0.1623
  668ERGO    R3 9046  12.341  15.793   9.157 -0.0682 -0.2294 -0.1662
  668ERGO    R4 9047  12.158  15.826   8.931  0.0530  0.4712 -0.1853
  668ERGO    R5 9048  12.268  15.645   8.984 -0.5168  0.0775 -0.2560
  668ERGO    C1 9049  12.401  15.702   8.631 -0.2680 -0.1564 -0.2025
  668ERGO    C2 9050  12.391  15.836   8.311  0.2731  0.2194 -0.2473
  669ERGO   ROH 9051  12.118  16.797   9.707 -0.2239 -0.0398 -0.1171
  669ERGO    R1 9052  12.063  16.719   9.440 -0.0754 -0.0598 -0.1423
  669ERGO    R2 9053  11.816  16.756   9.322 -0.0551 -0.2068 -0.2332
  669ERGO    R3 9054  11.963  16.884   9.132 -0.0621 -0.1058 -0.1714
  669ERGO    R4 9055  11.718  16.799   8.993 -0.0269 -0.1141 -0.2297
  669ERGO    R5 9056  11.923  16.758   8.932 -0.0098 -0.0451 -0.2206
  669ERGO    C1 9057  11.798  16.945   8.623 -0.0173  0.0347 -0.1696
  669ERGO    C2 9058  11.561  16.989   8.391  0.2198  0.3527 -0.0855
  670ERGO   ROH 9059   2.337   1.927   9.920  0.1763  0.1218  0.0117
  670ERGO    R1 9060   2.446   1.988   9.667  0.2265  0.1152  0.0325
  670ERGO    R2 9061   2.680   1.873   9.573  0.1322 -0.0428 -0.0018
  670ERGO    R3 9062   2.524   1.806   9.361  0.0811  0.1513 -0.0281
  670ERGO    R4 9063   2.798   1.790   9.259  0.0938 -0.2530  0.0377
  670ERGO    R5 9064   2.634   1.904   9.173  0.2706 -0.0257 -0.0164
  670ERGO    C1 9065   2.720   1.678   8.877  0.0234 -0.1931  0.0360
  670ERGO    C2 9066   2.918   1.409   8.656  0.0857  0.1537  0.0470
  671ERGO   ROH 9067  12.787   8.908  10.091 -0.1367  0.0168 -0.0460
  671ERGO    R1 9068  12.655   8.940   9.842 -0.0610  0.1118 -0.0740
  671ERGO    R2 9069  12.736   9.124   9.654  0.1424  0.0201 -0.0757
  671ERGO    R3 9070  12.743   8.907   9.491 -0.0237 -0.0019 -0.0554
  671ERGO    R4 9071  12.718   9.136   9.309  0.2102  0.0112 -0.0799
  671ERGO    R5 9072  12.589   8.961   9.315  0.0502  0.1233 -0.0856
  671ERGO    C1 9073  12.714   8.939   8.955  0.0938 -0.0147 -0.0633
  671ERGO    C2 9074  12.751   9.023   8.614  0.3152 -0.0902 -0.3140
  672ERGO   ROH 9075   0.418  10.683   9.719  0.4425 -0.0323  0.0768
  672ERGO    R1 9076   0.354  10.778   9.460  0.3539 -0.0004  0.1107
  672ERGO    R2 9077   0.537  10.780   9.253  0.2337 -0.1265  0.0073
  672ERGO    R3 9078   0.343  10.641   9.124  0.0684 -0.0038  0.1177
  672ERGO    R4 9079   0.478  10.795   8.913  0.3187 -0.3815 -0.0209
  672ERGO    R5 9080   0.264  10.792   8.955  0.2987 -0.0560 -0.0485
  672ERGO    C1 9081   0.260  10.672   8.593  0.2130 -0.4148  0.0664
  672ERGO    C2 9082   0.089  10.586   8.352 -0.0956 -0.1593 -0.0145
  673ERGO   ROH 9083   8.035  15.208   9.694 -0.0936 -0.1109  0.1505
  673ERGO    R1 9084   8.073  15.295   9.427 -0.0319 -0.0338  0.1816
  673ERGO    R2 9085   8.197  15.139   9.236 -0.0422 -0.0104  0.1395
  673ERGO    R3 9086   7.969  15.186   9.096 -0.0159  0.0955  0.1368
  673ERGO    R4 9087   8.183  15.203   8.897 -0.0183  0.0694  0.1552
  673ERGO    R5 9088   8.030  15.353   8.936  0.0366  0.1037  0.1773
  673ERGO    C1 9089   7.960  15.284   8.568  0.0202  0.2153  0.1620
  673ERGO    C2 9090   8.023  15.262   8.153 -0.5722  0.4318 -0.1414
  674ERGO   ROH 9091  15.882   8.398   9.880 -0.1846 -0.0780  0.0846
  674ERGO    R1 9092  15.974   8.539   9.653 -0.0968 -0.0713  0.1248
  674ERGO    R2 9093  15.988   8.424   9.402 -0.1398 -0.0180  0.1028
  674ERGO    R3 9094  15.838   8.639   9.330 -0.0224  0.0781  0.1371
  674ERGO    R4 9095  15.947   8.536   9.078 -0.3498 -0.1612  0.0771
  674ERGO    R5 9096  15.961   8.741   9.152 -0.0958 -0.1269 -0.0410
  674ERGO    C1 9097  15.782   8.803   8.822 -0.3617 -0.1541  0.0944
  674ERGO    C2 9098  15.875   8.874   8.453  0.0905  0.3979 -0.0926
  675PSPI    C1 9099   5.338   5.664   6.099  0.1025 -0.1440  0.0614
  675PSPI    C2 9100   5.586   5.937   5.944  0.0584 -0.0140  0.2174
  675PSPI    C3 9101   5.466   5.627   5.722 -0.1607  0.2739 -0.0747
  675PSPI   PO4 9102   5.186   5.789   6.204  0.1125  0.0159  0.0465
  675PSPI   GL1 9103   5.109   5.758   6.604 -0.2623 -0.1338  0.1073
  675PSPI   GL2 9104   4.912   5.554   6.673  0.0449  0.0036  0.1018
  675PSPI   C1A 9105   5.062   6.060   6.947  0.1104  0.5424 -0.0040
  675PSPI   C2A 9106   4.957   6.247   7.361 -0.0824  0.0196  0.2500
  675PSPI   C3A 9107   4.728   6.345   7.742  0.2733  0.3133  0.0003
  675PSPI   C4A 9108   4.522   6.086   8.015 -0.2303  0.2445  0.2303
  675PSPI   C1B 9109   4.916   5.571   7.086  0.2994  0.0684  0.0556
  675PSPI   C2B 9110   5.020   5.777   7.361 -0.0205 -0.1559 -0.0965
  675PSPI   C3B 9111   5.122   6.010   7.761  0.3558 -0.3354  0.2257
  675PSPI   C4B 9112   4.989   5.873   8.171 -0.1048 -0.0337  0.1323
  676PSPI    C1 9113  13.989  13.970   5.767 -0.1162  0.0238 -0.0443
  676PSPI    C2 9114  14.300  13.782   5.598  0.0423  0.1358  0.1191
  676PSPI    C3 9115  13.941  13.773   5.422  0.1328 -0.0117 -0.0608
  676PSPI   PO4 9116  14.081  13.798   6.085 -0.0720  0.1155  0.3293
  676PSPI   GL1 9117  14.205  13.872   6.447 -0.0621 -0.2930  0.3447
  676PSPI   GL2 9118  14.463  14.084   6.532  0.0381 -0.1590 -0.2115
  676PSPI   C1A 9119  13.989  13.805   6.926 -0.2048 -0.1549  0.1099
  676PSPI   C2A 9120  13.591  13.767   7.139  0.0336  0.2443 -0.1633
  676PSPI   C3A 9121  13.519  13.698   7.619  0.0979 -0.1707  0.1773
  676PSPI   C4A 9122  13.410  13.558   7.958  0.1749  0.0205 -0.2236
  676PSPI   C1B 9123  14.658  14.379   6.805 -0.1770 -0.1095  0.1761
  676PSPI   C2B 9124  14.742  14.427   7.155  0.1199  0.0389  0.2919
  676PSPI   C3B 9125  14.550  14.479   7.615  0.1276 -0.0131  0.0366
  676PSPI   C4B 9126  14.594  14.592   8.060  0.1049  0.2628  0.1814
  677PSPI    C1 9127  15.730   3.618   5.660  0.0575 -0.0440  0.0110
  677PSPI    C2 9128  15.748   3.582   5.262 -0.0092  0.2575 -0.0217
  677PSPI    C3 9129  15.394   3.570   5.448  0.0376 -0.0871  0.0523
  677PSPI   PO4 9130  15.811   3.873   5.763  0.0268  0.0287  0.0403
  677PSPI   GL1 9131  15.746   3.728   6.216  0.0009 -0.1124 -0.1300
  677PSPI   GL2 9132  16.042   3.875   6.316  0.1399 -0.0833 -0.4219
  677PSPI   C1A 9133  15.531   3.724   6.560  0.0428  0.0805  0.2269
  677PSPI   C2A 9134  15.522   3.530   7.008  0.1006 -0.1369  0.0455
  677PSPI   C3A 9135  15.627   3.801   7.273 -0.0620 -0.0522  0.0856
  677PSPI   C4A 9136  15.742   3.865   7.590  0.1323 -0.0529  0.3627
  677PSPI   C1B 9137  15.974   4.187   6.712 -0.1432  0.5150  0.0611
  677PSPI   C2B 9138  15.832   4.307   7.184 -0.2299  0.2352 -0.0662
  677PSPI   C3B 9139  15.526   4.270   7.533  0.1907  0.1931  0.1206
  677PSPI   C4B 9140  15.455   4.093   7.894  0.1021 -0.2207  0.2904
  678PSPI    C1 9141   7.986   6.351   5.883 -0.0224 -0.1025  0.0063
  678PSPI    C2 9142   8.310   6.275   6.105  0.1688  0.2829 -0.1302
  678PSPI    C3 9143   8.249   6.074   5.764 -0.0170 -0.1624  0.1554
  678PSPI   PO4 9144   7.788   6.340   6.078 -0.1978  0.0196 -0.0814
  678PSPI   GL1 9145   7.967   6.443   6.473  0.0065 -0.1501 -0.1711
  678PSPI   GL2 9146   8.009   6.744   6.386  0.1486  0.2501 -0.3247
  678PSPI   C1A 9147   7.811   6.318   6.951  0.0346 -0.1147  0.1097
  678PSPI   C2A 9148   7.902   6.328   7.278  0.3049 -0.1799 -0.0294
  678PSPI   C3A 9149   7.767   6.227   7.675 -0.3235  0.3623 -0.0435
  678PSPI   C4A 9150   7.955   6.137   7.984  0.3490  0.2388  0.3186
  678PSPI   C1B 9151   7.908   6.999   6.736 -0.0366  0.0100  0.1163
  678PSPI   C2B 9152   7.848   7.052   7.131  0.1249  0.1530  0.0473
  678PSPI   C3B 9153   7.705   6.758   7.436  0.1176 -0.2981 -0.0388
  678PSPI   C4B 9154   7.566   6.721   7.786  0.1610 -0.2238 -0.0363
  679PSPI    C1 9155  16.225  14.690   5.784  0.2302 -0.1814  0.1356
  679PSPI    C2 9156  16.004  14.745   5.455  0.0039 -0.1305  0.2946
  679PSPI    C3 9157  16.396  14.673   5.422  0.0504  0.2172  0.0265
  679PSPI   PO4 9158  16.063  14.636   5.963  0.1065  0.1780 -0.1011
  679PSPI   GL1 9159  16.216  14.696   6.329 -0.0876 -0.1750 -0.0832
  679PSPI   GL2 9160  16.135  14.441   6.446 -0.0587  0.0631 -0.0234
  679PSPI   C1A 9161  16.031  15.049   6.579  0.0987  0.0816  0.0442
  679PSPI   C2A 9162  15.852  15.420   6.695 -0.1653  0.2605 -0.0586
  679PSPI   C3A 9163  15.529  15.552   6.940 -0.0703  0.1206 -0.2065
  679PSPI   C4A 9164  15.406  15.487   7.304  0.1161  0.0874 -0.0176
  679PSPI   C1B 9165  16.150  14.624   6.812  0.1138 -0.2048  0.1578
  679PSPI   C2B 9166  15.995  14.706   7.250  0.2930 -0.2220  0.0677
  679PSPI   C3B 9167  16.009  14.505   7.717 -0.2382  0.0250 -0.2244
  679PSPI   C4B 9168  15.692  14.234   7.842 -0.2243 -0.0908  0.1440
  680PSPI    C1 9169  10.445   2.192   5.198 -0.1826  0.0905 -0.0805
  680PSPI    C2 9170  10.830   2.084   5.185 -0.1693  0.1380 -0.0863
  680PSPI    C3 9171  10.560   1.888   4.965 -0.1572  0.0693 -0.0404
  680PSPI   PO4 9172  10.363   2.242   5.516 -0.0914 -0.1883  0.2347
  680PSPI   GL1 9173  10.321   2.008   5.974 -0.2636 -0.0230  0.3543
  680PSPI   GL2 9174  10.118   2.081   6.289 -0.0140 -0.1793  0.2671
  680PSPI   C1A 9175  10.535   1.929   6.421  0.1541  0.0179  0.2178
  680PSPI   C2A 9176  10.606   1.918   6.924  0.0675  0.0315  0.0932
  680PSPI   C3A 9177  10.747   1.804   7.222 -0.1329 -0.0603 -0.2342
  680PSPI   C4A 9178  10.865   2.007   7.621 -0.0156  0.0396 -0.0961
  680PSPI   C1B 9179  10.002   1.924   6.642  0.1992 -0.1964 -0.0214
  680PSPI   C2B 9180   9.886   2.049   7.168 -0.2339 -0.1238  0.1452
  680PSPI   C3B 9181   9.706   2.180   7.551  0.0291  0.2599  0.2030
  680PSPI   C4B 9182   9.277   2.402   7.649 -0.0584  0.2994  0.1344
  681PSPI    C1 9183  15.554  16.398   5.505 -0.0489  0.0736 -0.1272
  681PSPI    C2 9184  15.934  16.462   5.398  0.0161 -0.1413 -0.0315
  681PSPI    C3 9185  15.722  16.174   5.219 -0.1196  0.0130 -0.1215
  681PSPI   PO4 9186  15.483  16.380   5.751 -0.1485 -0.3277  0.0405
  681PSPI   GL1 9187  15.251  16.452   6.031 -0.1683 -0.0779  0.2896
  681PSPI   GL2 9188  15.487  16.731   6.113 -0.0771  0.1854  0.0550
  681PSPI   C1A 9189  15.064  16.386   6.414  0.0363 -0.0086  0.0614
  681PSPI   C2A 9190  14.968  16.491   6.791  0.1151 -0.1067  0.5351
  681PSPI   C3A 9191  14.817  16.709   7.151  0.1957  0.1347  0.0594
  681PSPI   C4A 9192  14.979  16.929   7.570 -0.1130  0.0052 -0.1525
  681PSPI   C1B 9193  15.328  16.793   6.489 -0.0327 -0.0551  0.1181
  681PSPI   C2B 9194  15.224  16.942   6.907  0.1400 -0.1332  0.2367
  681PSPI   C3B 9195  15.457  16.787   7.344  0.1820 -0.1039  0.1632
  681PSPI   C4B 9196  15.480  16.853   7.815 -0.2188  0.0924 -0.2543
  682PSPI    C1 9197   6.260  15.924   5.624  0.0856  0.2133 -0.1925
  682PSPI    C2 9198   6.099  15.635   5.400  0.0491  0.1590 -0.0969
  682PSPI    C3 9199   6.496  15.665   5.432  0.0525  0.0983 -0.0796
  682PSPI   PO4 9200   6.101  15.887   5.855 -0.1453 -0.1972 -0.1952
  682PSPI   GL1 9201   5.857  15.723   6.120  0.1395 -0.0758 -0.1751
  682PSPI   GL2 9202   5.626  15.625   6.146 -0.2259  0.2839 -0.1646
  682PSPI   C1A 9203   5.967  15.856   6.511 -0.0430 -0.1151 -0.2468
  682PSPI   C2A 9204   5.872  16.026   6.846 -0.0557 -0.0655  0.1109
  682PSPI   C3A 9205   5.799  15.944   7.269  0.1295  0.1525 -0.1821
  682PSPI   C4A 9206   5.842  15.989   7.686 -0.1300  0.0040  0.0104
  682PSPI   C1B 9207   5.539  15.505   6.600  0.1609 -0.2372  0.3084
  682PSPI   C2B 9208   5.549  15.680   6.869  0.0806  0.2565 -0.1894
  682PSPI   C3B 9209   5.348  15.560   7.176 -0.1121 -0.2135  0.0017
  682PSPI   C4B 9210   5.400  15.323   7.533  0.0314 -0.2217  0.0639
  683PSPI    C1 9211  14.207   6.637   5.835  0.0607  0.0634  0.1667
  683PSPI    C2 9212  14.581   6.511   5.899  0.0452  0.0150  0.1628
  683PSPI    C3 9213  14.272   6.298   6.038  0.0129 -0.0617 -0.0242
  683PSPI   PO4 9214  14.196   6.826   5.955  0.0412  0.3675  0.1591
  683PSPI   GL1 9215  14.362   6.758   6.401 -0.1040 -0.0377  0.1539
  683PSPI   GL2 9216  14.688   6.735   6.363 -0.0790  0.1209  0.1718
  683PSPI   C1A 9217  14.306   7.010   6.733 -0.0424 -0.0847  0.3061
  683PSPI   C2A 9218  14.409   7.059   7.105  0.3803 -0.0761 -0.1157
  683PSPI   C3A 9219  14.361   7.191   7.573 -0.1054  0.2864 -0.2459
  683PSPI   C4A 9220  14.330   7.053   8.096  0.1170 -0.1875  0.0930
  683PSPI   C1B 9221  14.760   6.842   6.821  0.0344  0.0506  0.1790
  683PSPI   C2B 9222  14.890   6.987   7.194  0.3106 -0.0401 -0.1067
  683PSPI   C3B 9223  14.998   7.280   7.581  0.1632 -0.0987 -0.2565
  683PSPI   C4B 9224  15.202   7.266   7.957  0.0650 -0.1756  0.2942
  684PSPI    C1 9225  14.067   4.923   5.714  0.1668 -0.1423  0.0258
  684PSPI    C2 9226  14.264   5.271   5.721 -0.1052  0.0131  0.1097
  684PSPI    C3 9227  14.136   5.121   5.373 -0.1468  0.0885  0.0924
  684PSPI   PO4 9228  13.812   4.997   5.971  0.0907  0.2876  0.1405
  684PSPI   GL1 9229  13.758   5.221   6.309 -0.2412 -0.0539 -0.0259
  684PSPI   GL2 9230  13.460   5.256   6.409  0.1069 -0.0230  0.1181
  684PSPI   C1A 9231  13.816   5.180   6.776  0.0441  0.0154  0.0513
  684PSPI   C2A 9232  13.763   5.150   7.107  0.1237 -0.1003  0.1282
  684PSPI   C3A 9233  13.586   4.780   7.344 -0.0564  0.3162  0.1386
  684PSPI   C4A 9234  13.637   4.708   7.802  0.0183 -0.0547  0.0268
  684PSPI   C1B 9235  13.438   4.884   6.805  0.0023  0.0820 -0.0794
  684PSPI   C2B 9236  13.288   4.456   6.816  0.1628 -0.2611  0.0424
  684PSPI   C3B 9237  13.383   4.339   7.232  0.0115  0.0036  0.2632
  684PSPI   C4B 9238  13.341   4.332   7.609  0.1379  0.1327  0.0036
  685PSPI    C1 9239  15.611  13.735   5.687  0.3411 -0.1315  0.0442
  685PSPI    C2 9240  15.938  13.802   5.466  0.2601  0.0308 -0.0282
  685PSPI    C3 9241  15.811  13.427   5.527  0.1362 -0.0061 -0.4748
  685PSPI   PO4 9242  15.633  13.856   5.896 -0.2242 -0.1252  0.0418
  685PSPI   GL1 9243  15.442  13.748   6.249 -0.0409 -0.1549  0.2267
  685PSPI   GL2 9244  15.265  13.999   6.303 -0.0357  0.0662  0.0257
  685PSPI   C1A 9245  15.572  13.800   6.665  0.2392  0.0446  0.2140
  685PSPI   C2A 9246  15.537  13.912   7.013 -0.2339 -0.2478  0.1060
  685PSPI   C3A 9247  15.552  13.981   7.371 -0.0899  0.0716 -0.3053
  685PSPI   C4A 9248  15.884  14.238   7.277 -0.1091  0.1225  0.1176
  685PSPI   C1B 9249  15.022  13.774   6.640  0.1695 -0.0138 -0.1329
  685PSPI   C2B 9250  15.068  13.734   7.074  0.3452 -0.0383 -0.2964
  685PSPI   C3B 9251  15.005  13.580   7.346 -0.2828  0.1585 -0.3084
  685PSPI   C4B 9252  15.130  13.678   7.787 -0.1411  0.0834 -0.0491
  686PSPI    C1 9253  10.469   6.451   5.792 -0.2976  0.0503  0.0301
  686PSPI    C2 9254  10.588   6.282   5.449  0.0148  0.1968  0.0625
  686PSPI    C3 9255  10.421   6.646   5.446 -0.1381  0.1275  0.0507
  686PSPI   PO4 9256  10.640   6.514   5.949  0.0368  0.0971  0.0240
  686PSPI   GL1 9257  10.871   6.597   6.459 -0.0288  0.3104  0.0246
  686PSPI   GL2 9258  11.027   6.903   6.464 -0.1452  0.1174  0.0294
  686PSPI   C1A 9259  10.967   6.419   6.920 -0.1558  0.1847  0.3792
  686PSPI   C2A 9260  10.853   6.087   7.191 -0.0884  0.0735 -0.0815
  686PSPI   C3A 9261  10.847   5.703   7.047 -0.1351  0.1489  0.2476
  686PSPI   C4A 9262  11.128   5.354   7.022 -0.1949 -0.1129 -0.0857
  686PSPI   C1B 9263  11.306   6.971   6.865  0.0515 -0.2501  0.2257
  686PSPI   C2B 9264  11.539   7.102   7.182  0.1528  0.0137  0.0041
  686PSPI   C3B 9265  11.687   7.344   7.517  0.5842 -0.2302 -0.0542
  686PSPI   C4B 9266  11.883   7.555   7.746 -0.0542 -0.2950  0.0312
  687PSPI    C1 9267   7.381   6.046   6.031  0.0397  0.0852 -0.0276
  687PSPI    C2 9268   7.170   6.035   5.691  0.0451 -0.0529 -0.0271
  687PSPI    C3 9269   7.191   6.374   5.902  0.1957  0.0866 -0.2612
  687PSPI   PO4 9270   7.360   5.764   6.213  0.2386  0.1556 -0.2645
  687PSPI   GL1 9271   7.527   5.491   6.533  0.1674  0.0122 -0.1075
  687PSPI   GL2 9272   7.838   5.423   6.530 -0.0225 -0.2004 -0.3021
  687PSPI   C1A 9273   7.341   5.163   6.869 -0.1494 -0.1685 -0.1882
  687PSPI   C2A 9274   7.341   5.090   7.417  0.0456  0.2139  0.4333
  687PSPI   C3A 9275   7.196   4.899   7.838 -0.0483  0.0370  0.1923
  687PSPI   C4A 9276   7.125   4.506   7.925 -0.1017  0.2362  0.1793
  687PSPI   C1B 9277   7.854   5.289   6.957 -0.0064 -0.0318 -0.1665
  687PSPI   C2B 9278   7.828   5.190   7.365 -0.1814 -0.0647  0.2158
  687PSPI   C3B 9279   7.670   5.356   7.776 -0.0016 -0.2228 -0.3718
  687PSPI   C4B 9280   7.522   5.765   8.058 -0.4033  0.2614 -0.2219
  688PSPI    C1 9281  11.880   7.356   6.026  0.0789  0.1845  0.0886
  688PSPI    C2 9282  11.781   7.621   5.743 -0.0859  0.1079  0.0734
  688PSPI    C3 9283  11.650   7.244   5.719  0.2291 -0.0028  0.0429
  688PSPI   PO4 9284  11.854   7.561   6.242  0.4781  0.1426  0.2911
  688PSPI   GL1 9285  12.095   7.834   6.480 -0.2146  0.0158  0.2868
  688PSPI   GL2 9286  11.988   8.100   6.540  0.0433  0.2106  0.2631
  688PSPI   C1A 9287  12.365   7.705   6.777  0.2210 -0.0087  0.2395
  688PSPI   C2A 9288  12.418   7.759   7.160  0.1996 -0.2139 -0.0532
  688PSPI   C3A 9289  12.322   7.768   7.575 -0.1192  0.1519  0.2427
  688PSPI   C4A 9290  12.208   7.787   8.068  0.2732 -0.0746  0.0080
  688PSPI   C1B 9291  12.244   8.169   6.849  0.0312  0.1854  0.0390
  688PSPI   C2B 9292  12.188   8.332   7.258 -0.0369  0.0777  0.0954
  688PSPI   C3B 9293  12.258   8.278   7.672  0.0360  0.2314 -0.0753
  688PSPI   C4B 9294  12.645   8.593   7.943 -0.0784 -0.1907 -0.1235
  689PSPI    C1 9295  14.318  10.830   5.796 -0.0138  0.0377  0.2298
  689PSPI    C2 9296  14.584  11.121   5.729 -0.0449  0.0153  0.0038
  689PSPI    C3 9297  14.574  10.800   5.490  0.0037 -0.1830  0.2646
  689PSPI   PO4 9298  14.316  10.752   5.987 -0.1158 -0.2951  0.0757
  689PSPI   GL1 9299  14.305  10.992   6.328  0.0685 -0.0134  0.2057
  689PSPI   GL2 9300  14.151  11.268   6.469 -0.1325  0.2925 -0.1324
  689PSPI   C1A 9301  14.681  10.869   6.511 -0.0773 -0.0231  0.2740
  689PSPI   C2A 9302  14.621  10.725   7.001  0.0920  0.1937 -0.2338
  689PSPI   C3A 9303  14.668  10.631   7.385 -0.2025 -0.0801 -0.3741
  689PSPI   C4A 9304  14.508  10.392   7.851 -0.1443  0.0092  0.0647
  689PSPI   C1B 9305  14.287  11.095   6.840  0.0003 -0.2099  0.1013
  689PSPI   C2B 9306  14.256  10.972   7.284  0.0991  0.1043  0.2627
  689PSPI   C3B 9307  14.193  10.812   7.619 -0.1638  0.1464 -0.0315
  689PSPI   C4B 9308  14.186  10.801   8.082 -0.0692  0.3395 -0.2177
  690PSPI    C1 9309   5.879   8.964   5.650  0.0771  0.1043  0.2899
  690PSPI    C2 9310   5.768   9.086   5.286  0.2831  0.1087  0.2272
  690PSPI    C3 9311   5.836   9.355   5.574  0.2112  0.1104  0.2430
  690PSPI   PO4 9312   6.010   8.715   5.614  0.0438 -0.0338 -0.0533
  690PSPI   GL1 9313   6.174   8.459   5.932  0.2422 -0.1511 -0.1389
  690PSPI   GL2 9314   5.820   8.355   6.011  0.0335 -0.2116  0.2190
  690PSPI   C1A 9315   6.418   8.560   6.348 -0.2172 -0.0423  0.3598
  690PSPI   C2A 9316   6.554   8.802   6.759  0.2632  0.1382 -0.1231
  690PSPI   C3A 9317   6.439   8.813   7.183  0.0363  0.1867 -0.2320
  690PSPI   C4A 9318   6.268   8.604   7.504 -0.1526  0.2258 -0.1180
  690PSPI   C1B 9319   6.003   8.208   6.286 -0.0600 -0.0597 -0.3264
  690PSPI   C2B 9320   6.016   7.975   6.641 -0.0833 -0.4057 -0.2361
  690PSPI   C3B 9321   6.050   7.890   7.012  0.2046 -0.1013 -0.1426
  690PSPI   C4B 9322   5.952   7.706   7.383  0.0099 -0.1377  0.1445
  691PSPI    C1 9323   8.879  10.647   5.823  0.1926  0.1701  0.0265
  691PSPI    C2 9324   8.773  10.647   5.438  0.0710  0.0557  0.0589
  691PSPI    C3 9325   9.126  10.799   5.549  0.0368  0.2383 -0.0774
  691PSPI   PO4 9326   8.713  10.721   6.018  0.3093  0.1237 -0.0560
  691PSPI   GL1 9327   8.343  10.724   6.248  0.1092 -0.1003  0.1285
  691PSPI   GL2 9328   8.138  10.457   6.238 -0.0284  0.0919 -0.1017
  691PSPI   C1A 9329   8.389  10.690   6.647  0.1069  0.1317 -0.2928
  691PSPI   C2A 9330   8.398  10.590   7.142 -0.0486 -0.2069  0.2534
  691PSPI   C3A 9331   8.570  10.758   7.491  0.2186 -0.1107 -0.2194
  691PSPI   C4A 9332   8.491  10.814   7.987  0.0470  0.2916  0.1757
  691PSPI   C1B 9333   8.162  10.246   6.531  0.2471 -0.1408 -0.3158
  691PSPI   C2B 9334   8.229  10.176   6.892 -0.0390  0.1127  0.1078
  691PSPI   C3B 9335   8.187  10.156   7.291  0.0518  0.0556 -0.1268
  691PSPI   C4B 9336   8.177  10.389   7.593  0.1121  0.2859 -0.2164
  692PSPI    C1 9337  15.919   7.298   5.684 -0.1093 -0.0625  0.0212
  692PSPI    C2 9338  15.961   7.689   5.611 -0.0408 -0.0858 -0.0663
  692PSPI    C3 9339  16.109   7.420   5.354 -0.0056 -0.1694  0.0403
  692PSPI   PO4 9340  15.930   7.220   5.906 -0.0966 -0.1504  0.2975
  692PSPI   GL1 9341  16.075   7.450   6.268  0.1690  0.0325 -0.3472
  692PSPI   GL2 9342  16.163   7.191   6.299  0.0535  0.0505  0.2669
  692PSPI   C1A 9343  16.078   7.541   6.725  0.1234 -0.0373  0.2475
  692PSPI   C2A 9344  15.987   7.517   7.120  0.0630  0.0928 -0.2896
  692PSPI   C3A 9345  16.200   7.166   7.492  0.1491 -0.3042 -0.1790
  692PSPI   C4A 9346  16.326   6.826   7.707 -0.1484  0.2150 -0.0792
  692PSPI   C1B 9347  16.486   6.942   6.639 -0.1020  0.0689  0.0006
  692PSPI   C2B 9348  16.499   6.894   7.038 -0.1577 -0.5978  0.0179
  692PSPI   C3B 9349  16.712   6.665   7.394 -0.0083 -0.1013 -0.0378
  692PSPI   C4B 9350  17.048   6.627   7.708  0.3433  0.1521  0.1314
  693PSPI    C1 9351  18.044  13.730   6.005 -0.0518  0.1630 -0.1028
  693PSPI    C2 9352  17.756  13.842   5.752 -0.1368 -0.0018 -0.0801
  693PSPI    C3 9353  17.957  13.503   5.688  0.1205  0.1614 -0.1498
  693PSPI   PO4 9354  17.872  13.808   6.221 -0.2030  0.0823  0.0728
  693PSPI   GL1 9355  18.037  13.991   6.527  0.1210  0.0759 -0.1691
  693PSPI   GL2 9356  17.897  14.123   6.583 -0.0954 -0.1807 -0.2684
  693PSPI   C1A 9357  17.954  13.727   6.913  0.1547  0.2148 -0.5995
  693PSPI   C2A 9358  17.878  13.383   7.385  0.1194  0.2922  0.0647
  693PSPI   C3A 9359  18.147  13.290   7.651  0.1492  0.1845 -0.2930
  693PSPI   C4A 9360  18.347  13.432   8.009 -0.0407  0.1013  0.2376
  693PSPI   C1B 9361  18.075  14.216   6.980  0.3540 -0.0238  0.1746
  693PSPI   C2B 9362  18.204  14.353   7.289 -0.2377 -0.0742  0.0158
  693PSPI   C3B 9363  18.391  14.187   7.632  0.0041  0.3563 -0.1604
  693PSPI   C4B 9364  18.610  13.808   7.794 -0.0227  0.0921  0.0513
  694PSPI    C1 9365  11.896   9.137   6.030 -0.1130 -0.0899  0.0830
  694PSPI    C2 9366  11.683   8.982   5.728  0.0063  0.2722 -0.1949
  694PSPI    C3 9367  12.050   8.843   5.806 -0.0126  0.1986 -0.2361
  694PSPI   PO4 9368  11.784   9.231   6.227 -0.0183 -0.1052 -0.1830
  694PSPI   GL1 9369  11.952   9.434   6.585 -0.0931  0.3323 -0.0218
  694PSPI   GL2 9370  11.804   9.767   6.667 -0.0157 -0.0789  0.0996
  694PSPI   C1A 9371  11.632   9.314   6.987 -0.2785 -0.1100  0.0698
  694PSPI   C2A 9372  11.555   9.348   7.380  0.1731  0.1861  0.1423
  694PSPI   C3A 9373  11.634   9.444   7.782  0.3297 -0.1653 -0.4278
  694PSPI   C4A 9374  11.449   9.563   8.236  0.1395  0.1737 -0.1842
  694PSPI   C1B 9375  11.892   9.745   7.165  0.0847 -0.2813 -0.6131
  694PSPI   C2B 9376  11.973   9.836   7.664  0.1136 -0.1233 -0.0929
  694PSPI   C3B 9377  12.016  10.029   8.089 -0.0639  0.1781  0.0668
  694PSPI   C4B 9378  11.917   9.802   8.445 -0.2305  0.0855 -0.1169
  695POPI    C1 9379  16.611   2.228   5.707 -0.2422  0.0653  0.2129
  695POPI    C2 9380  16.953   2.133   5.523 -0.1358  0.2976  0.2876
  695POPI    C3 9381  16.608   2.123   5.321 -0.1133 -0.1223  0.2614
  695POPI   PO4 9382  16.712   2.436   5.853 -0.0187 -0.0349  0.0474
  695POPI   GL1 9383  16.826   2.476   6.191  0.2136  0.0641 -0.1290
  695POPI   GL2 9384  17.044   2.652   6.156 -0.0937 -0.2496 -0.0531
  695POPI   C1A 9385  16.838   2.384   6.675 -0.1535 -0.1096  0.0326
  695POPI   D2A 9386  16.948   2.403   7.064  0.0306  0.4509 -0.1079
  695POPI   C3A 9387  16.685   2.469   7.491 -0.0768  0.0216 -0.2101
  695POPI   C4A 9388  16.374   2.582   7.534 -0.0609  0.0992  0.2177
  695POPI   C1B 9389  17.277   2.722   6.643 -0.1891  0.1924  0.0442
  695POPI   C2B 9390  17.369   2.744   6.997 -0.1772  0.0714  0.1727
  695POPI   C3B 9391  17.140   2.714   7.374  0.1785  0.2014 -0.4282
  695POPI   C4B 9392  17.201   2.760   7.852  0.1996 -0.0019 -0.1546
  696POPI    C1 9393   1.714  15.820   5.434 -0.0076 -0.1601  0.1065
  696POPI    C2 9394   1.916  15.865   5.091  0.0958 -0.0454  0.1817
  696POPI    C3 9395   1.521  15.927   5.100  0.0805 -0.1243  0.0666
  696POPI   PO4 9396   1.860  15.714   5.576 -0.1980  0.0603 -0.0475
  696POPI   GL1 9397   1.751  15.839   5.970 -0.1949  0.2089 -0.0251
  696POPI   GL2 9398   1.601  15.503   5.917  0.3385  0.0781 -0.0136
  696POPI   C1A 9399   1.958  15.658   6.277  0.2827  0.2518 -0.1334
  696POPI   D2A 9400   2.101  15.837   6.562  0.1024  0.2579  0.1982
  696POPI   C3A 9401   2.293  15.796   7.047 -0.0456 -0.0568  0.0660
  696POPI   C4A 9402   2.630  15.644   7.416 -0.1633 -0.1265  0.1012
  696POPI   C1B 9403   1.425  15.448   6.327  0.2328  0.1016  0.1295
  696POPI   C2B 9404   1.344  15.254   6.706 -0.0797  0.1088  0.0897
  696POPI   C3B 9405   1.464  15.432   7.082 -0.4478 -0.1755 -0.0961
  696POPI   C4B 9406   1.575  15.600   7.478  0.2741  0.1343  0.3622
  697POPI    C1 9407  17.379  16.543   5.940  0.1991 -0.1468 -0.0288
  697POPI    C2 9408  17.516  16.465   5.572  0.1639 -0.0322 -0.0667
  697POPI    C3 9409  17.433  16.165   5.823  0.5003 -0.1038 -0.0368
  697POPI   PO4 9410  17.517  16.716   6.037  0.4382 -0.0986 -0.0145
  697POPI   GL1 9411  17.361  17.058   6.327 -0.0207  0.0135  0.0141
  697POPI   GL2 9412  17.242  17.396   6.308 -0.1747 -0.0149 -0.0680
  697POPI   C1A 9413  17.581  17.144   6.727 -0.3778  0.1164 -0.2203
  697POPI   D2A 9414  17.669  17.326   7.127 -0.0896 -0.1535 -0.1564
  697POPI   C3A 9415  17.510  17.192   7.502  0.1792 -0.3874 -0.1327
  697POPI   C4A 9416  17.392  17.410   7.910  0.1100  0.0681  0.0660
  697POPI   C1B 9417  17.187  17.435   6.680  0.3751  0.0636 -0.0617
  697POPI   C2B 9418  17.167  17.253   7.061 -0.2863 -0.0544  0.4526
  697POPI   C3B 9419  17.076  17.388   7.508 -0.0886  0.2983  0.1507
  697POPI   C4B 9420  16.751  17.400   7.910  0.0786 -0.1606  0.4234
  698POPI    C1 9421  12.768   9.535   5.826  0.1653 -0.1098  0.0725
  698POPI    C2 9422  13.077   9.767   5.723  0.0618 -0.0443 -0.0947
  698POPI    C3 9423  13.127   9.372   5.760  0.1937 -0.0193  0.0015
  698POPI   PO4 9424  12.659   9.621   5.981 -0.0770 -0.0906 -0.1111
  698POPI   GL1 9425  12.601   9.540   6.428  0.1606 -0.1459  0.0736
  698POPI   GL2 9426  12.402   9.796   6.600  0.0888 -0.0434 -0.1556
  698POPI   C1A 9427  12.815   9.482   6.778 -0.2543  0.2766  0.1420
  698POPI   D2A 9428  12.963   9.774   7.082 -0.2041  0.0450 -0.0256
  698POPI   C3A 9429  13.044   9.797   7.511  0.1528 -0.1438  0.2154
  698POPI   C4A 9430  13.416   9.843   7.728  0.0198  0.3127  0.1585
  698POPI   C1B 9431  12.438   9.732   7.029 -0.2947  0.1516  0.1128
  698POPI   C2B 9432  12.526   9.843   7.454  0.2052  0.1956 -0.0291
  698POPI   C3B 9433  12.430   9.786   7.865  0.2511 -0.3603 -0.1212
  698POPI   C4B 9434  12.462   9.922   8.285 -0.1702 -0.0802 -0.0118
  699POPI    C1 9435  11.490  16.250   5.818  0.2195  0.1584  0.0957
  699POPI    C2 9436  11.598  16.146   5.447  0.0548  0.1384  0.0525
  699POPI    C3 9437  11.801  16.006   5.761  0.0370 -0.0516 -0.0193
  699POPI   PO4 9438  11.390  16.440   5.863  0.0043  0.0727  0.1796
  699POPI   GL1 9439  11.464  16.574   6.166 -0.3419 -0.0932  0.0079
  699POPI   GL2 9440  11.833  16.548   6.154 -0.0712 -0.0060 -0.0308
  699POPI   C1A 9441  11.409  16.642   6.577 -0.0837  0.1238 -0.0951
  699POPI   D2A 9442  11.611  16.771   6.869  0.0563 -0.1213 -0.0200
  699POPI   C3A 9443  11.487  16.757   7.248 -0.0971  0.4735  0.0730
  699POPI   C4A 9444  11.350  16.478   7.579  0.0754  0.2247 -0.0590
  699POPI   C1B 9445  11.920  16.644   6.525 -0.1497  0.0229 -0.1105
  699POPI   C2B 9446  12.177  16.871   6.814  0.1211  0.0448 -0.0306
  699POPI   C3B 9447  12.081  17.015   7.165  0.0109 -0.1107  0.1130
  699POPI   C4B 9448  11.975  16.855   7.536 -0.0476  0.1305  0.2181
  700POPI    C1 9449   6.760  11.065   5.724  0.1287  0.0012 -0.1281
  700POPI    C2 9450   6.724  11.427   5.558  0.0847  0.0925  0.0768
  700POPI    C3 9451   6.397  11.214   5.645  0.1025  0.1075  0.1811
  700POPI   PO4 9452   6.965  10.968   5.884 -0.1599  0.0294 -0.0047
  700POPI   GL1 9453   6.927  10.689   6.321 -0.1292  0.3491  0.0938
  700POPI   GL2 9454   6.643  10.885   6.245  0.0934  0.1696 -0.0974
  700POPI   C1A 9455   6.946  10.528   6.772 -0.0440  0.2583 -0.0718
  700POPI   D2A 9456   7.034  10.448   7.154 -0.2140 -0.3264  0.0101
  700POPI   C3A 9457   7.193  10.628   7.541 -0.0667  0.1727  0.0139
  700POPI   C4A 9458   7.189  10.985   7.667  0.2933  0.1118 -0.0623
  700POPI   C1B 9459   6.765  10.965   6.701  0.0576 -0.2026 -0.3424
  700POPI   C2B 9460   6.851  10.991   7.220  0.3332  0.0663 -0.1885
  700POPI   C3B 9461   6.686  11.024   7.693 -0.1236  0.0981  0.1996
  700POPI   C4B 9462   6.671  11.183   8.126 -0.1332  0.1902 -0.3354
  701POPI    C1 9463   5.017  14.065   5.605  0.0035 -0.0985  0.2207
  701POPI    C2 9464   5.105  13.801   5.318  0.0638 -0.2443  0.3716
  701POPI    C3 9465   4.723  13.886   5.400  0.0491  0.0450  0.0273
  701POPI   PO4 9466   5.216  13.987   5.825 -0.1249 -0.1143  0.1938
  701POPI   GL1 9467   5.193  14.176   6.212  0.2627  0.0899 -0.0495
  701POPI   GL2 9468   5.505  13.952   6.252 -0.1809  0.1439 -0.0913
  701POPI   C1A 9469   5.132  14.068   6.697 -0.0046  0.1159 -0.0097
  701POPI   D2A 9470   5.246  13.795   7.027 -0.1192 -0.0427 -0.1750
  701POPI   C3A 9471   5.197  13.840   7.410  0.0956 -0.0405  0.2149
  701POPI   C4A 9472   4.867  13.922   7.671  0.0981  0.0248 -0.1535
  701POPI   C1B 9473   5.423  13.629   6.573 -0.0122 -0.0336 -0.1757
  701POPI   C2B 9474   5.646  13.468   6.934  0.0421 -0.0983  0.2386
  701POPI   C3B 9475   5.501  13.439   7.347 -0.6104  0.4099 -0.0814
  701POPI   C4B 9476   5.737  13.258   7.654  0.1454 -0.0007  0.1273
  702POPI    C1 9477   5.668   0.440   5.812  0.1599  0.1237 -0.0167
  702POPI    C2 9478   5.599   0.641   5.474  0.1057  0.1593  0.0153
  702POPI    C3 9479   5.938   0.701   5.676 -0.0118  0.3911  0.1470
  702POPI   PO4 9480   5.413   0.395   5.891 -0.0131  0.2984 -0.3098
  702POPI   GL1 9481   5.328   0.340   6.246 -0.0679  0.0268  0.0954
  702POPI   GL2 9482   5.009   0.258   6.238  0.3634  0.3062 -0.1732
  702POPI   C1A 9483   5.389   0.221   6.658 -0.2613  0.0352 -0.2361
  702POPI   D2A 9484   5.358   0.217   7.081  0.0237 -0.1701  0.2184
  702POPI   C3A 9485   5.503   0.177   7.545 -0.0540  0.0022 -0.0425
  702POPI   C4A 9486   5.258  -0.040   7.904 -0.0498  0.0983  0.0307
  702POPI   C1B 9487   4.852   0.468   6.639  0.1129  0.1973 -0.0814
  702POPI   C2B 9488   4.938   0.449   7.010  0.1375  0.1118 -0.0764
  702POPI   C3B 9489   4.681   0.298   7.346 -0.1731  0.1422 -0.2834
  702POPI   C4B 9490   4.356   0.379   7.666 -0.2980  0.1029 -0.2974
  703POPI    C1 9491   4.158   9.119   5.610  0.0738  0.1746 -0.0111
  703POPI    C2 9492   3.831   9.348   5.585  0.0320  0.1031 -0.1239
  703POPI    C3 9493   3.938   9.116   5.276 -0.0011 -0.1309  0.0380
  703POPI   PO4 9494   4.163   9.130   5.862  0.3803  0.0528  0.1613
  703POPI   GL1 9495   4.442   9.137   6.138 -0.2060 -0.0106  0.1433
  703POPI   GL2 9496   4.602   9.414   6.259  0.0153  0.1927 -0.1318
  703POPI   C1A 9497   4.343   9.106   6.595 -0.1702  0.2037 -0.0853
  703POPI   D2A 9498   4.501   9.232   7.032 -0.1215  0.2766  0.1309
  703POPI   C3A 9499   4.404   9.227   7.538 -0.1228  0.1055  0.3023
  703POPI   C4A 9500   4.288   9.228   7.993  0.0405 -0.2537  0.0028
  703POPI   C1B 9501   4.692   9.562   6.694  0.0749  0.1333 -0.0096
  703POPI   C2B 9502   4.739   9.714   7.150 -0.2884  0.0189 -0.0049
  703POPI   C3B 9503   4.697   9.720   7.539 -0.0516  0.0076 -0.1417
  703POPI   C4B 9504   4.623   9.635   8.044  0.1112 -0.0069  0.1026
  704POPI    C1 9505   9.374   9.494   5.971  0.1255  0.1032  0.1251
  704POPI    C2 9506   9.325   9.226   5.679  0.0784 -0.0131  0.2386
  704POPI    C3 9507   9.211   9.605   5.623  0.0527 -0.0388  0.1132
  704POPI   PO4 9508   9.684   9.425   6.001  0.3231  0.1938 -0.1419
  704POPI   GL1 9509   9.837   9.545   6.402  0.0360 -0.2151 -0.2572
  704POPI   GL2 9510   9.698   9.862   6.337 -0.0053 -0.1020 -0.1572
  704POPI   C1A 9511   9.733   9.724   6.853  0.1740  0.3471 -0.3940
  704POPI   D2A 9512   9.686   9.882   7.254 -0.1197 -0.1836  0.0405
  704POPI   C3A 9513   9.742   9.943   7.676 -0.1587 -0.1003  0.4046
  704POPI   C4A 9514   9.947   9.982   8.157 -0.0939  0.2954  0.0358
  704POPI   C1B 9515   9.474  10.235   6.563 -0.0430  0.2863  0.0753
  704POPI   C2B 9516   9.344  10.341   6.978 -0.4298 -0.3294  0.0870
  704POPI   C3B 9517   9.426  10.284   7.505  0.4739 -0.0376  0.4160
  704POPI   C4B 9518   9.400  10.528   7.780  0.3157 -0.2242  0.0551
  705POPI    C1 9519   8.014  11.084   5.395  0.2946  0.3425 -0.0349
  705POPI    C2 9520   8.362  10.893   5.343  0.1767  0.1104  0.0158
  705POPI    C3 9521   8.092  10.898   5.049  0.0998  0.0299  0.0844
  705POPI   PO4 9522   7.910  10.995   5.544 -0.0965 -0.0782 -0.2328
  705POPI   GL1 9523   7.698  11.148   5.939 -0.1413  0.0691  0.4380
  705POPI   GL2 9524   7.759  10.879   6.028  0.0500 -0.1112  0.0332
  705POPI   C1A 9525   7.983  11.073   6.365  0.1024 -0.1574 -0.1538
  705POPI   D2A 9526   7.914  10.981   6.723 -0.0600  0.1666  0.2323
  705POPI   C3A 9527   7.880  11.190   7.012  0.2020  0.1165 -0.0716
  705POPI   C4A 9528   7.576  11.454   7.108  0.0651  0.1486  0.4033
  705POPI   C1B 9529   7.703  10.622   6.354 -0.0596 -0.3981  0.0978
  705POPI   C2B 9530   7.844  10.507   6.741 -0.1841 -0.0259  0.1799
  705POPI   C3B 9531   7.903  10.546   7.159 -0.0894  0.1170  0.0485
  705POPI   C4B 9532   8.077  10.824   7.409  0.0301  0.0944 -0.1715
  706POPI    C1 9533   2.510  16.717   5.265  0.1174  0.0442  0.0390
  706POPI    C2 9534   2.111  16.687   5.275  0.1205 -0.0731 -0.1366
  706POPI    C3 9535   2.283  17.030   5.162  0.0735  0.0838  0.2521
  706POPI   PO4 9536   2.660  16.718   5.600  0.4821  0.0230 -0.0173
  706POPI   GL1 9537   2.592  16.756   6.048  0.2579 -0.2016 -0.0205
  706POPI   GL2 9538   2.889  16.868   6.056  0.1149  0.0501 -0.1812
  706POPI   C1A 9539   2.684  16.525   6.354 -0.0686 -0.2149  0.3505
  706POPI   D2A 9540   2.788  16.538   6.830 -0.2398 -0.0281  0.0641
  706POPI   C3A 9541   2.472  16.718   7.208  0.0667  0.3427  0.2562
  706POPI   C4A 9542   2.504  16.832   7.580 -0.1822 -0.0777 -0.1041
  706POPI   C1B 9543   2.971  16.871   6.461 -0.3638  0.0665  0.0362
  706POPI   C2B 9544   3.098  16.961   6.848 -0.0531 -0.0923 -0.0447
  706POPI   C3B 9545   3.008  16.917   7.242  0.1630  0.1829 -0.2368
  706POPI   C4B 9546   2.971  16.951   7.696 -0.3235 -0.0411 -0.2806
  707POPI    C1 9547  15.211   3.260   5.729  0.0321 -0.0220 -0.1405
  707POPI    C2 9548  14.846   3.157   5.854  0.1577 -0.2210  0.0697
  707POPI    C3 9549  14.888   3.434   5.570 -0.1316  0.3550  0.5641
  707POPI   PO4 9550  15.349   3.299   5.946  0.1770  0.3703  0.0881
  707POPI   GL1 9551  15.532   3.253   6.300  0.5190 -0.0544  0.0903
  707POPI   GL2 9552  15.591   2.962   6.386 -0.2118  0.1571  0.1737
  707POPI   C1A 9553  15.221   3.277   6.670  0.2495 -0.0621  0.2726
  707POPI   D2A 9554  14.984   3.334   7.022 -0.0500  0.0200  0.1629
  707POPI   C3A 9555  14.885   3.159   7.282  0.0072  0.0152 -0.3883
  707POPI   C4A 9556  14.946   2.946   7.667  0.0467 -0.1473 -0.1170
  707POPI   C1B 9557  15.637   3.046   6.816 -0.1069 -0.1752 -0.2725
  707POPI   C2B 9558  15.447   3.082   7.210  0.0832  0.0734  0.1193
  707POPI   C3B 9559  15.261   3.424   7.459 -0.0883 -0.2701 -0.1200
  707POPI   C4B 9560  14.869   3.442   7.728 -0.0622 -0.0628 -0.0191
  708POPI    C1 9561  10.458  10.319   5.856 -0.2550  0.0163  0.1951
  708POPI    C2 9562  10.317  10.626   5.641  0.1271 -0.0092 -0.1033
  708POPI    C3 9563  10.678  10.651   5.813  0.1875 -0.3120 -0.1801
  708POPI   PO4 9564  10.336  10.265   6.063 -0.2116  0.2667 -0.1258
  708POPI   GL1 9565  10.154  10.489   6.298  0.1765 -0.2871  0.3155
  708POPI   GL2 9566   9.997  10.271   6.507 -0.0753  0.0690  0.0989
  708POPI   C1A 9567  10.060  10.805   6.590  0.1423 -0.0386 -0.0219
  708POPI   D2A 9568  10.012  10.797   6.966  0.1828 -0.0997 -0.1423
  708POPI   C3A 9569  10.174  11.126   7.232  0.0832 -0.0907 -0.0556
  708POPI   C4A 9570  10.339  11.435   7.532 -0.0105 -0.1055 -0.1313
  708POPI   C1B 9571   9.879  10.242   6.923  0.0783  0.3024 -0.0114
  708POPI   C2B 9572   9.923  10.318   7.321 -0.3693  0.2553  0.1230
  708POPI   C3B 9573  10.015  10.381   7.770 -0.3029  0.3735  0.3073
  708POPI   C4B 9574   9.913  10.688   7.988  0.1292  0.1331  0.0850
  709POPI    C1 9575   5.099  14.526   5.475 -0.0220 -0.0098  0.1263
  709POPI    C2 9576   4.856  14.833   5.393 -0.1096 -0.1078  0.0153
  709POPI    C3 9577   5.112  14.701   5.115  0.0665 -0.0097  0.1293
  709POPI   PO4 9578   5.272  14.549   5.848 -0.0327 -0.1572 -0.1262
  709POPI   GL1 9579   5.083  14.647   6.314  0.0541  0.1933  0.0568
  709POPI   GL2 9580   4.885  14.528   6.505 -0.1118 -0.1710 -0.0771
  709POPI   C1A 9581   5.213  14.535   6.837 -0.0759 -0.0233 -0.4044
  709POPI   D2A 9582   5.286  14.296   7.181 -0.1186  0.1361 -0.0960
  709POPI   C3A 9583   5.186  14.348   7.595 -0.1184 -0.1171  0.1065
  709POPI   C4A 9584   5.067  14.319   8.039  0.0701  0.0914  0.1220
  709POPI   C1B 9585   4.533  14.562   6.810  0.2490  0.1280 -0.1796
  709POPI   C2B 9586   4.273  14.315   7.122  0.1060 -0.1232  0.0613
  709POPI   C3B 9587   4.177  14.247   7.552  0.0859  0.3342  0.1511
  709POPI   C4B 9588   4.005  13.946   7.901  0.1365  0.0288  0.3855
  710POPI    C1 9589  15.070  13.773   5.888  0.0170  0.1077 -0.0911
  710POPI    C2 9590  14.813  13.711   5.587 -0.0424  0.2139 -0.0623
  710POPI    C3 9591  15.154  13.910   5.522  0.1456 -0.1307 -0.1532
  710POPI   PO4 9592  15.070  13.490   6.050  0.0289  0.1489 -0.0073
  710POPI   GL1 9593  15.164  13.352   6.499  0.1627 -0.1374  0.5066
  710POPI   GL2 9594  15.507  13.314   6.505 -0.0158 -0.4206  0.1779
  710POPI   C1A 9595  14.887  13.252   6.848  0.0310 -0.2238  0.1881
  710POPI   D2A 9596  14.544  13.310   7.183  0.0993 -0.1086  0.1651
  710POPI   C3A 9597  14.403  13.467   7.583 -0.5590 -0.0429  0.1942
  710POPI   C4A 9598  14.163  13.704   7.912  0.0114 -0.0044  0.0606
  710POPI   C1B 9599  15.495  13.403   6.960  0.2385 -0.2577  0.0348
  710POPI   C2B 9600  15.496  13.497   7.312  0.3470  0.0326  0.2484
  710POPI   C3B 9601  15.626  13.658   7.773 -0.1296  0.0872  0.2082
  710POPI   C4B 9602  15.814  13.745   8.150 -0.0545  0.0551 -0.0866
  711POPI    C1 9603  15.231   5.458   5.850 -0.1614  0.0925  0.0852
  711POPI    C2 9604  15.030   5.552   5.516 -0.2192  0.1400  0.1332
  711POPI    C3 9605  15.424   5.616   5.537 -0.2109  0.1123  0.0643
  711POPI   PO4 9606  15.143   5.191   5.939 -0.0027 -0.0497 -0.2743
  711POPI   GL1 9607  15.080   5.021   6.369  0.1012  0.1972  0.1987
  711POPI   GL2 9608  15.429   5.175   6.317  0.0491  0.2102  0.0243
  711POPI   C1A 9609  15.038   5.105   6.735 -0.1977  0.1188 -0.0327
  711POPI   D2A 9610  15.044   4.984   7.222 -0.1673  0.1542 -0.1277
  711POPI   C3A 9611  15.158   4.921   7.674 -0.0593 -0.1486  0.1179
  711POPI   C4A 9612  15.498   4.630   7.923 -0.2139  0.0711 -0.0402
  711POPI   C1B 9613  15.265   5.504   6.593  0.1564  0.0350 -0.0870
  711POPI   C2B 9614  15.438   5.880   6.825 -0.2549  0.1557 -0.0442
  711POPI   C3B 9615  15.473   5.860   7.343 -0.1928 -0.1158 -0.0008
  711POPI   C4B 9616  15.350   5.756   7.795 -0.2121  0.1889 -0.2070
  712POPI    C1 9617  17.433  14.315   5.797 -0.0848  0.0619  0.0638
  712POPI    C2 9618  17.373  14.072   5.485  0.1298  0.0790  0.0074
  712POPI    C3 9619  17.294  14.463   5.452 -0.0163  0.0522  0.0318
  712POPI   PO4 9620  17.355  14.113   5.987 -0.1835  0.0106  0.1453
  712POPI   GL1 9621  17.453  13.979   6.424 -0.0592 -0.1415  0.3517
  712POPI   GL2 9622  17.286  14.253   6.494 -0.1117  0.2850  0.1854
  712POPI   C1A 9623  17.521  13.927   6.807  0.0992 -0.2658  0.0753
  712POPI   D2A 9624  17.517  13.688   7.234  0.2304 -0.1380 -0.1226
  712POPI   C3A 9625  17.480  13.910   7.671  0.0963 -0.0979 -0.4231
  712POPI   C4A 9626  17.812  14.090   7.997  0.0464 -0.1707  0.2686
  712POPI   C1B 9627  17.205  14.375   6.872 -0.0474 -0.0457 -0.0287
  712POPI   C2B 9628  17.350  14.224   7.293  0.1007 -0.0720  0.1465
  712POPI   C3B 9629  17.752  14.225   7.449 -0.3005 -0.0140  0.0050
  712POPI   C4B 9630  18.080  14.528   7.730  0.1252  0.1011  0.1793
  713POPI    C1 9631  12.507   0.318   5.830  0.2939  0.0815 -0.1333
  713POPI    C2 9632  12.385   0.495   5.493 -0.0456 -0.1805 -0.1539
  713POPI    C3 9633  12.601   0.158   5.475 -0.1098 -0.2242 -0.1102
  713POPI   PO4 9634  12.270   0.391   5.982  0.0013 -0.1871 -0.3286
  713POPI   GL1 9635  12.377   0.160   6.386 -0.2193  0.2237 -0.0318
  713POPI   GL2 9636  12.067   0.061   6.535  0.3430 -0.1100 -0.0923
  713POPI   C1A 9637  12.640   0.286   6.725 -0.0043  0.0211  0.1130
  713POPI   D2A 9638  12.564   0.266   7.205 -0.1626  0.0541  0.1272
  713POPI   C3A 9639  12.661   0.487   7.576  0.1914 -0.1542 -0.1641
  713POPI   C4A 9640  12.960   0.674   7.793  0.1156 -0.0257  0.1704
  713POPI   C1B 9641  12.058   0.207   6.959 -0.0553  0.0304  0.0690
  713POPI   C2B 9642  11.890   0.482   7.251  0.0047 -0.3433  0.2134
  713POPI   C3B 9643  11.854   0.716   7.657  0.1236  0.2288 -0.1449
  713POPI   C4B 9644  11.797   0.934   7.983  0.1752  0.0053 -0.0547
  714POPI    C1 9645  13.278  10.658   6.033 -0.0062  0.0512  0.0516
  714POPI    C2 9646  13.016  10.733   5.740  0.0086  0.0352  0.0342
  714POPI    C3 9647  13.404  10.680   5.654 -0.0312 -0.2546  0.0229
  714POPI   PO4 9648  13.126  10.508   6.199 -0.1620 -0.1230 -0.0014
  714POPI   GL1 9649  13.132  10.241   6.504  0.1007 -0.2258 -0.1536
  714POPI   GL2 9650  12.854  10.084   6.585 -0.0436  0.0520 -0.1360
  714POPI   C1A 9651  13.114  10.307   6.958  0.1662  0.1081  0.2854
  714POPI   D2A 9652  13.155  10.617   7.329  0.0762  0.1008 -0.0226
  714POPI   C3A 9653  13.513  10.691   7.458 -0.4021  0.2292  0.1498
  714POPI   C4A 9654  13.744  10.659   7.936 -0.1089 -0.1441  0.1097
  714POPI   C1B 9655  12.579  10.203   6.926 -0.0002  0.0781  0.0476
  714POPI   C2B 9656  12.678  10.279   7.318 -0.1487 -0.0008 -0.0799
  714POPI   C3B 9657  12.769  10.154   7.721  0.0837  0.1877 -0.0256
  714POPI   C4B 9658  12.988   9.904   8.018 -0.2085  0.3094 -0.0582
  715POPI    C1 9659  15.535   9.199   5.841  0.0993 -0.1391 -0.0871
  715POPI    C2 9660  15.746   9.504   5.992 -0.0386 -0.1697  0.1727
  715POPI    C3 9661  15.922   9.241   5.748  0.1601 -0.0569  0.1921
  715POPI   PO4 9662  15.244   9.283   5.957  0.2693 -0.0702 -0.1043
  715POPI   GL1 9663  14.831   9.528   6.121  0.1676 -0.0905 -0.0625
  715POPI   GL2 9664  14.806   9.757   6.274  0.1801  0.1127 -0.0409
  715POPI   C1A 9665  14.515   9.406   6.336  0.0882 -0.0933  0.1132
  715POPI   D2A 9666  14.123   9.505   6.288 -0.0753 -0.1315 -0.0474
  715POPI   C3A 9667  13.827   9.542   6.606  0.0170  0.1251  0.2734
  715POPI   C4A 9668  13.851   9.552   7.020 -0.1059 -0.0553 -0.0466
  715POPI   C1B 9669  14.915   9.802   6.646 -0.1614  0.2170 -0.0976
  715POPI   C2B 9670  14.930   9.779   6.984  0.2942 -0.0287 -0.0333
  715POPI   C3B 9671  15.046   9.723   7.361  0.0106  0.0001 -0.3040
  715POPI   C4B 9672  14.883   9.905   7.787  0.0510 -0.1039 -0.0620
  716POPI    C1 9673   0.558  10.135   6.017 -0.0270  0.0930 -0.0937
  716POPI    C2 9674   0.297  10.223   5.726  0.1029  0.1883 -0.1825
  716POPI    C3 9675   0.494   9.875   5.720 -0.1535  0.0377 -0.0186
  716POPI   PO4 9676   0.679  10.363   6.050  0.1016 -0.2890  0.1051
  716POPI   GL1 9677   0.849  10.486   6.432 -0.0406  0.0830 -0.0585
  716POPI   GL2 9678   1.054  10.735   6.602  0.2111  0.0811 -0.3560
  716POPI   C1A 9679   0.893  10.356   6.875  0.2526  0.0215  0.1721
  716POPI   D2A 9680   0.692  10.471   7.229 -0.0866 -0.2339 -0.1477
  716POPI   C3A 9681   0.610  10.279   7.689  0.0195 -0.0580 -0.0525
  716POPI   C4A 9682   0.663   9.931   7.902 -0.3821  0.0531  0.2673
  716POPI   C1B 9683   0.920  10.909   6.967  0.0978  0.1366 -0.2762
  716POPI   C2B 9684   0.694  11.029   7.339  0.3095 -0.1967 -0.2615
  716POPI   C3B 9685   0.662  11.097   7.807  0.1089  0.3799 -0.1745
  716POPI   C4B 9686   0.743  10.809   8.244  0.2682 -0.0132  0.2480
  717POPI    C1 9687   1.331   9.057   6.084 -0.0261 -0.2425 -0.0954
  717POPI    C2 9688   1.699   8.944   6.190  0.0793  0.1763  0.0032
  717POPI    C3 9689   1.627   9.064   5.815 -0.0190 -0.1498 -0.0855
  717POPI   PO4 9690   1.184   8.932   6.247 -0.0452  0.2126  0.0649
  717POPI   GL1 9691   1.076   8.820   6.681  0.1734 -0.1118 -0.1658
  717POPI   GL2 9692   1.000   8.494   6.625 -0.1986 -0.0493 -0.1517
  717POPI   C1A 9693   1.445   8.671   6.872  0.1404 -0.2395  0.1929
  717POPI   D2A 9694   1.489   8.593   7.388 -0.0092  0.0960  0.0678
  717POPI   C3A 9695   1.557   8.867   7.614 -0.4968  0.0317  0.1728
  717POPI   C4A 9696   1.626   9.024   7.944 -0.0162 -0.1214 -0.1714
  717POPI   C1B 9697   0.937   8.316   6.952  0.0138 -0.2022  0.1096
  717POPI   C2B 9698   1.050   8.274   7.417 -0.1561  0.1166 -0.2413
  717POPI   C3B 9699   1.235   8.487   7.835  0.0365  0.1139  0.1744
  717POPI   C4B 9700   1.254   8.682   8.226  0.1928  0.0044 -0.3095
  718POPI    C1 9701   2.990  13.902   5.186 -0.3622 -0.0257  0.0325
  718POPI    C2 9702   3.144  13.637   5.443 -0.3239 -0.1348 -0.1022
  718POPI    C3 9703   3.150  13.562   5.050 -0.0760  0.1830 -0.1637
  718POPI   PO4 9704   2.872  14.082   5.421 -0.0904  0.2365  0.0974
  718POPI   GL1 9705   3.012  14.136   5.829 -0.1440  0.1423  0.3052
  718POPI   GL2 9706   3.341  14.170   5.958  0.0605  0.0863  0.0978
  718POPI   C1A 9707   2.893  14.426   6.096  0.1217  0.0792  0.0754
  718POPI   D2A 9708   2.810  14.735   6.287  0.0409 -0.0086  0.0603
  718POPI   C3A 9709   2.644  14.781   6.691 -0.6803 -0.0447 -0.0403
  718POPI   C4A 9710   2.640  14.660   7.116 -0.4378 -0.0645  0.3740
  718POPI   C1B 9711   3.529  13.936   6.279 -0.0151 -0.0665  0.2936
  718POPI   C2B 9712   3.482  14.015   6.632 -0.0271 -0.0608 -0.1615
  718POPI   C3B 9713   3.371  14.026   6.997  0.0531  0.0268  0.3866
  718POPI   C4B 9714   3.398  13.875   7.376  0.1178  0.2136 -0.1054
  719POPI    C1 9715   2.408   8.523   5.909 -0.0545  0.1792 -0.0267
  719POPI    C2 9716   2.717   8.664   5.698 -0.0635  0.1003 -0.0932
  719POPI    C3 9717   2.424   8.911   5.813 -0.0606  0.1430 -0.1765
  719POPI   PO4 9718   2.541   8.400   6.221  0.0774 -0.2407  0.1427
  719POPI   GL1 9719   2.425   8.483   6.605 -0.1419 -0.0708  0.0022
  719POPI   GL2 9720   2.690   8.672   6.652 -0.0143  0.1548  0.4202
  719POPI   C1A 9721   2.506   8.421   7.033 -0.2229  0.1059 -0.1207
  719POPI   D2A 9722   2.447   8.511   7.453 -0.1302  0.3600 -0.0644
  719POPI   C3A 9723   2.371   8.514   7.895 -0.0732  0.0933  0.2260
  719POPI   C4A 9724   2.063   8.722   8.162 -0.2674  0.0823  0.0403
  719POPI   C1B 9725   2.599   8.935   6.986  0.0904  0.0135  0.1637
  719POPI   C2B 9726   2.523   8.991   7.430  0.0436  0.0027  0.2642
  719POPI   C3B 9727   2.517   8.960   7.815  0.1858 -0.2000 -0.1387
  719POPI   C4B 9728   2.601   8.924   8.197 -0.0154  0.1639  0.0721
  720POPI    C1 9729   8.943   6.361   5.815  0.1754  0.0736 -0.0169
  720POPI    C2 9730   8.751   6.012   5.786  0.0502  0.1479 -0.0873
  720POPI    C3 9731   8.993   6.132   5.491  0.0811  0.1280 -0.0701
  720POPI   PO4 9732   8.770   6.465   6.107 -0.4534 -0.4305  0.2019
  720POPI   GL1 9733   8.546   6.518   6.463  0.0771  0.0449 -0.2511
  720POPI   GL2 9734   8.720   6.323   6.669 -0.0231  0.2785  0.0126
  720POPI   C1A 9735   8.323   6.659   6.789  0.1922  0.2403  0.0454
  720POPI   D2A 9736   8.177   6.698   7.191 -0.1685  0.0843  0.1709
  720POPI   C3A 9737   8.182   6.550   7.701  0.0406  0.0861  0.0622
  720POPI   C4A 9738   7.926   6.629   8.077 -0.2324  0.0851  0.0039
  720POPI   C1B 9739   8.888   6.397   7.046  0.2574 -0.0474 -0.0969
  720POPI   C2B 9740   9.054   6.444   7.390  0.0396  0.1751 -0.1270
  720POPI   C3B 9741   9.238   6.249   7.778  0.0657 -0.3183  0.0775
  720POPI   C4B 9742   9.482   6.275   8.071  0.1760  0.0891  0.2639
  721POPI    C1 9743   6.586   8.844   5.528  0.0406  0.0809  0.2142
  721POPI    C2 9744   6.965   8.772   5.423  0.0300 -0.0396  0.2568
  721POPI    C3 9745   6.861   9.132   5.563  0.1464 -0.0323  0.3265
  721POPI   PO4 9746   6.626   8.547   5.701  0.2548 -0.0382  0.2482
  721POPI   GL1 9747   6.817   8.369   6.069 -0.0101 -0.2350  0.0775
  721POPI   GL2 9748   6.935   8.178   6.042 -0.0191  0.1476  0.2031
  721POPI   C1A 9749   6.929   8.444   6.540 -0.0082  0.0680  0.0410
  721POPI   D2A 9750   6.958   8.529   7.014 -0.0139  0.3517 -0.0533
  721POPI   C3A 9751   6.838   8.416   7.388 -0.1221 -0.0682 -0.0675
  721POPI   C4A 9752   6.649   8.367   7.752 -0.0939  0.1367 -0.1319
  721POPI   C1B 9753   7.146   7.947   6.472 -0.2464  0.2004 -0.1212
  721POPI   C2B 9754   7.007   7.969   6.876  0.1344  0.2200 -0.0213
  721POPI   C3B 9755   7.083   7.987   7.237  0.0420  0.0550 -0.0834
  721POPI   C4B 9756   7.230   7.872   7.565 -0.1123  0.1248 -0.1593
  722POPI    C1 9757   2.453  10.752   6.061 -0.1153 -0.0264  0.0809
  722POPI    C2 9758   2.408  11.142   6.140 -0.0691  0.0184 -0.1077
  722POPI    C3 9759   2.731  11.014   5.942 -0.0769 -0.1182 -0.0336
  722POPI   PO4 9760   2.385  10.675   6.272  0.2148  0.0144  0.1203
  722POPI   GL1 9761   2.186  10.876   6.515  0.0569  0.1518 -0.2335
  722POPI   GL2 9762   1.815  10.835   6.663 -0.1345  0.1566  0.1491
  722POPI   C1A 9763   2.405  11.310   6.633 -0.1461  0.2735 -0.2814
  722POPI   D2A 9764   2.725  11.603   6.802  0.2210  0.2174  0.0837
  722POPI   C3A 9765   2.576  11.750   7.211 -0.1013  0.1624  0.2133
  722POPI   C4A 9766   2.783  11.887   7.625 -0.2639  0.2782 -0.0687
  722POPI   C1B 9767   2.095  11.085   6.940  0.0212 -0.0826  0.4457
  722POPI   C2B 9768   2.333  11.337   7.211  0.2241 -0.0429 -0.2379
  722POPI   C3B 9769   2.750  11.340   7.448  0.0804 -0.1723 -0.1704
  722POPI   C4B 9770   2.960  11.014   7.621  0.0683  0.0388  0.0245
  723POPI    C1 9771   2.932  15.655   5.390 -0.0267  0.0139  0.1101
  723POPI    C2 9772   2.947  15.347   5.645  0.1118 -0.0290  0.0505
  723POPI    C3 9773   3.285  15.497   5.491  0.0250 -0.0544 -0.1692
  723POPI   PO4 9774   2.814  15.834   5.525 -0.1378  0.0081  0.0653
  723POPI   GL1 9775   2.774  15.872   6.015 -0.1671  0.1775 -0.0049
  723POPI   GL2 9776   2.991  15.683   5.982  0.2142  0.0560  0.1737
  723POPI   C1A 9777   2.522  16.048   6.359  0.2402  0.1392 -0.2122
  723POPI   D2A 9778   2.402  16.215   6.710  0.0001  0.0202  0.0200
  723POPI   C3A 9779   2.598  16.205   7.145  0.1585 -0.1521 -0.2724
  723POPI   C4A 9780   2.441  16.094   7.552  0.0477  0.0505  0.2601
  723POPI   C1B 9781   3.083  15.651   6.366  0.2204 -0.1666 -0.1574
  723POPI   C2B 9782   3.130  15.511   6.807 -0.1509 -0.1558 -0.0393
  723POPI   C3B 9783   3.079  15.483   7.172  0.0125 -0.0340  0.0432
  723POPI   C4B 9784   3.111  15.485   7.604 -0.1294 -0.0081  0.0637
  724POPI    C1 9785   0.931  17.181   5.462 -0.0621 -0.0264  0.0181
  724POPI    C2 9786   1.214  16.988   5.256  0.0299  0.0542  0.0686
  724POPI    C3 9787   0.885  16.794   5.372  0.0146 -0.0123 -0.0834
  724POPI   PO4 9788   1.046  17.324   5.598  0.0592  0.1102  0.0035
  724POPI   GL1 9789   1.079  17.358   6.028  0.1169  0.0309  0.2548
  724POPI   GL2 9790   1.218  17.018   6.043  0.0958  0.0164  0.2924
  724POPI   C1A 9791   1.283  17.416   6.443 -0.1957  0.3949 -0.2298
  724POPI   D2A 9792   1.587  17.262   6.719  0.0317  0.0071  0.2226
  724POPI   C3A 9793   1.553  17.532   7.035  0.2475 -0.1059  0.0904
  724POPI   C4A 9794   1.342  17.788   7.334  0.3087 -0.1455 -0.0247
  724POPI   C1B 9795   1.319  16.888   6.516  0.3717  0.0655  0.2323
  724POPI   C2B 9796   1.146  16.819   6.886 -0.1423 -0.1960  0.2808
  724POPI   C3B 9797   0.925  16.819   7.362 -0.1674 -0.1550 -0.0125
  724POPI   C4B 9798   0.883  17.017   7.782 -0.1136 -0.0778 -0.2223
  725POPI    C1 9799  17.174  11.951   5.835 -0.1351  0.2240 -0.1172
  725POPI    C2 9800  17.401  11.967   5.506  0.1018  0.0891  0.0372
  725POPI    C3 9801  17.277  12.305   5.681  0.0623  0.1618 -0.1296
  725POPI   PO4 9802  17.274  11.794   6.037  0.0548 -0.0421 -0.2315
  725POPI   GL1 9803  17.125  11.740   6.478 -0.2925  0.0862  0.0114
  725POPI   GL2 9804  17.273  11.473   6.504  0.1024  0.1701  0.1695
  725POPI   C1A 9805  17.168  12.091   6.704  0.0224 -0.2560  0.0607
  725POPI   D2A 9806  17.292  12.405   7.037 -0.1783 -0.0033 -0.0630
  725POPI   C3A 9807  17.094  12.402   7.439  0.0721  0.1340 -0.4510
  725POPI   C4A 9808  16.851  12.394   7.834 -0.1649  0.2766  0.2695
  725POPI   C1B 9809  17.470  11.588   6.830 -0.1878  0.0157  0.1446
  725POPI   C2B 9810  17.659  11.625   7.200  0.0597 -0.2457 -0.0255
  725POPI   C3B 9811  17.716  11.419   7.616 -0.1861 -0.0147 -0.0616
  725POPI   C4B 9812  17.895  11.403   7.969  0.1089  0.1645 -0.1047
  726POPI    C1 9813   0.833   0.668   5.468 -0.0521  0.1710  0.0706
  726POPI    C2 9814   0.699   0.307   5.360 -0.0464  0.2340 -0.1513
  726POPI    C3 9815   1.092   0.374   5.386 -0.0494  0.1261  0.2357
  726POPI   PO4 9816   0.699   0.739   5.682  0.1046  0.1483  0.0056
  726POPI   GL1 9817   0.717   0.711   6.043  0.3481  0.0468 -0.3459
  726POPI   GL2 9818   0.882   1.052   6.180 -0.1923 -0.4172  0.1864
  726POPI   C1A 9819   1.102   0.505   6.286  0.0669  0.0343  0.0432
  726POPI   D2A 9820   1.345   0.428   6.615 -0.2305  0.2005 -0.0584
  726POPI   C3A 9821   1.203   0.353   7.140  0.2170 -0.2806 -0.0710
  726POPI   C4A 9822   1.229   0.129   7.484  0.0692  0.0301 -0.1626
  726POPI   C1B 9823   1.005   0.936   6.537  0.0515 -0.1151 -0.1626
  726POPI   C2B 9824   1.033   0.791   6.869 -0.0202  0.0431  0.0121
  726POPI   C3B 9825   1.145   0.949   7.223  0.0610 -0.0318 -0.0182
  726POPI   C4B 9826   1.338   0.923   7.597 -0.1419 -0.2616 -0.0680
  727POPI    C1 9827   6.311  14.972   5.842  0.0500  0.0084 -0.0241
  727POPI    C2 9828   6.365  15.111   5.471 -0.1945 -0.0345 -0.0776
  727POPI    C3 9829   6.013  15.160   5.654 -0.1427 -0.1986  0.0694
  727POPI   PO4 9830   6.564  14.984   6.067  0.0984 -0.2086  0.0985
  727POPI   GL1 9831   6.583  15.069   6.454 -0.1780  0.0692 -0.1391
  727POPI   GL2 9832   6.804  14.820   6.485 -0.0493  0.0859  0.1274
  727POPI   C1A 9833   6.701  15.005   6.986  0.1007 -0.1950 -0.1657
  727POPI   D2A 9834   6.814  15.163   7.432 -0.1863 -0.1608 -0.0598
  727POPI   C3A 9835   7.121  15.359   7.659 -0.1589  0.2338  0.1382
  727POPI   C4A 9836   7.201  15.638   7.974 -0.4363  0.2742  0.0282
  727POPI   C1B 9837   7.107  14.671   6.782 -0.2469  0.2131 -0.1656
  727POPI   C2B 9838   7.169  14.967   7.112 -0.0480 -0.1689  0.3034
  727POPI   C3B 9839   7.344  14.974   7.490 -0.0759 -0.2576 -0.1611
  727POPI   C4B 9840   7.332  14.890   7.876  0.0111 -0.1899  0.4159
  728POPI    C1 9841   3.818  17.354   5.903  0.1495  0.1850  0.1728
  728POPI    C2 9842   3.917  17.328   5.516  0.2238 -0.1937  0.2137
  728POPI    C3 9843   3.984  17.667   5.717 -0.0263  0.0853 -0.1610
  728POPI   PO4 9844   3.539  17.209   5.872  0.2409 -0.3965 -0.0611
  728POPI   GL1 9845   3.297  17.153   6.143 -0.0001 -0.0440  0.2377
  728POPI   GL2 9846   2.991  17.306   6.205 -0.0966 -0.0288  0.3242
  728POPI   C1A 9847   3.474  17.034   6.535  0.2241  0.1371 -0.1194
  728POPI   D2A 9848   3.604  16.969   6.948 -0.0611  0.0104 -0.2773
  728POPI   C3A 9849   3.735  17.285   7.212  0.4291  0.0799 -0.1575
  728POPI   C4A 9850   3.858  17.355   7.587 -0.0316 -0.1263  0.5873
  728POPI   C1B 9851   2.936  17.380   6.684  0.0937  0.2600  0.2267
  728POPI   C2B 9852   2.860  17.372   7.060 -0.1760  0.0258 -0.3217
  728POPI   C3B 9853   2.818  17.387   7.437 -0.4827 -0.3308  0.0431
  728POPI   C4B 9854   3.035  17.501   7.820 -0.0349 -0.1165 -0.1462
  729POPI    C1 9855  10.959  14.566   5.874  0.0014  0.1063 -0.2878
  729POPI    C2 9856  11.123  14.201   5.889  0.3027  0.2463 -0.0708
  729POPI    C3 9857  11.115  14.403   5.544 -0.2573 -0.1344 -0.2953
  729POPI   PO4 9858  10.916  14.598   6.159  0.0314  0.0984  0.2295
  729POPI   GL1 9859  11.067  14.529   6.621  0.0829 -0.1868  0.0600
  729POPI   GL2 9860  11.106  14.897   6.638 -0.3193  0.1238  0.0227
  729POPI   C1A 9861  11.021  14.549   7.096 -0.0150  0.2017  0.1349
  729POPI   D2A 9862  11.326  14.341   7.320  0.1014 -0.0106  0.0878
  729POPI   C3A 9863  11.335  14.225   7.670  0.0659 -0.2453  0.3424
  729POPI   C4A 9864  11.432  13.963   7.955  0.1670 -0.3241 -0.3513
  729POPI   C1B 9865  11.487  14.644   6.965  0.1877 -0.1843 -0.0211
  729POPI   C2B 9866  11.602  14.889   7.259  0.3317  0.2792 -0.0533
  729POPI   C3B 9867  11.845  15.070   7.495  0.2822 -0.0485 -0.1700
  729POPI   C4B 9868  12.042  15.232   7.829  0.0119  0.0178  0.1620
  730POPI    C1 9869  14.606  17.833   5.864 -0.0794  0.0913 -0.0296
  730POPI    C2 9870  14.703  17.937   5.490 -0.1130  0.2839  0.0146
  730POPI    C3 9871  14.831  18.157   5.799 -0.1545  0.1726  0.1115
  730POPI   PO4 9872  14.265  17.831   5.809  0.2189 -0.1028  0.2714
  730POPI   GL1 9873  14.013  17.959   6.125 -0.2652 -0.0150  0.0061
  730POPI   GL2 9874  13.709  17.822   5.985  0.0813  0.1400  0.0379
  730POPI   C1A 9875  14.162  17.937   6.526  0.0745  0.4893 -0.0353
  730POPI   D2A 9876  14.085  17.938   6.963 -0.0304 -0.2682  0.0510
  730POPI   C3A 9877  14.313  17.961   7.282 -0.1026  0.0928  0.0263
  730POPI   C4A 9878  14.360  17.729   7.683 -0.2275  0.1511 -0.0907
  730POPI   C1B 9879  13.634  18.116   6.444 -0.0502  0.2098  0.1642
  730POPI   C2B 9880  13.516  18.081   6.893  0.1166  0.0666  0.0248
  730POPI   C3B 9881  13.482  18.038   7.319 -0.1554  0.2618 -0.1621
  730POPI   C4B 9882  13.427  17.998   7.719  0.0201 -0.3053 -0.0275
  731POPI    C1 9883   5.146  12.631   5.594 -0.0170  0.0477 -0.2596
  731POPI    C2 9884   5.304  12.991   5.518  0.1664 -0.0152 -0.1813
  731POPI    C3 9885   5.145  12.775   5.221  0.0873  0.1153 -0.2343
  731POPI   PO4 9886   5.038  12.651   5.859 -0.0582  0.0537  0.3371
  731POPI   GL1 9887   4.753  12.791   6.098 -0.2135  0.3157 -0.0064
  731POPI   GL2 9888   4.605  13.135   6.133  0.1484  0.1431  0.1457
  731POPI   C1A 9889   4.585  12.661   6.544  0.0664 -0.3546 -0.0063
  731POPI   D2A 9890   4.730  12.692   6.989 -0.2499 -0.1661 -0.1601
  731POPI   C3A 9891   4.744  12.995   7.240 -0.0593  0.2788 -0.0972
  731POPI   C4A 9892   4.573  13.201   7.615  0.0919 -0.0403 -0.0139
  731POPI   C1B 9893   4.444  13.144   6.550 -0.3076  0.1434  0.0839
  731POPI   C2B 9894   4.371  13.025   6.850 -0.2504 -0.0647 -0.0686
  731POPI   C3B 9895   4.292  12.815   7.210 -0.0320  0.3301 -0.1351
  731POPI   C4B 9896   4.235  12.804   7.589  0.0431  0.0234 -0.1390
  732POPI    C1 9897   7.732  12.302   5.955 -0.0852  0.1425 -0.0303
  732POPI    C2 9898   7.704  12.075   5.627 -0.1778  0.1110 -0.0011
  732POPI    C3 9899   7.955  12.386   5.634 -0.0394  0.0015 -0.0364
  732POPI   PO4 9900   7.612  12.180   6.130  0.4871  0.1300 -0.0666
  732POPI   GL1 9901   7.734  11.864   6.409  0.0047 -0.0225  0.2204
  732POPI   GL2 9902   8.120  11.971   6.357 -0.0173 -0.0710 -0.1812
  732POPI   C1A 9903   7.823  11.937   6.912  0.0706  0.4689 -0.3317
  732POPI   D2A 9904   8.154  12.107   7.273 -0.2123 -0.0569 -0.0036
  732POPI   C3A 9905   8.006  12.250   7.670  0.0365  0.1816 -0.3636
  732POPI   C4A 9906   8.096  12.239   8.173 -0.0943  0.1333 -0.0466
  732POPI   C1B 9907   8.282  12.064   6.753  0.3459  0.4235  0.0597
  732POPI   C2B 9908   8.611  12.025   6.997 -0.1052  0.3771 -0.0285
  732POPI   C3B 9909   8.620  12.181   7.425 -0.2922  0.1679  0.4408
  732POPI   C4B 9910   9.041  12.190   7.654  0.0176 -0.1145 -0.0994
  733POPI    C1 9911  17.605   8.627   5.946 -0.1872 -0.0463 -0.0258
  733POPI    C2 9912  17.483   8.974   5.789 -0.0707  0.1058  0.2151
  733POPI    C3 9913  17.522   8.652   5.555 -0.3831  0.1991  0.0294
  733POPI   PO4 9914  17.470   8.692   6.293  0.0196  0.0674  0.2644
  733POPI   GL1 9915  17.476   8.542   6.762 -0.1081  0.0624 -0.0885
  733POPI   GL2 9916  17.212   8.630   6.905 -0.0027  0.1100  0.1199
  733POPI   C1A 9917  17.701   8.520   7.149 -0.1051 -0.3319  0.0614
  733POPI   D2A 9918  17.796   8.451   7.577  0.1136  0.1035  0.0615
  733POPI   C3A 9919  17.586   8.795   7.728 -0.2132  0.2442  0.0356
  733POPI   C4A 9920  17.640   9.004   8.134  0.0598 -0.2479 -0.2596
  733POPI   C1B 9921  17.253   8.545   7.344 -0.4308  0.0032  0.0658
  733POPI   C2B 9922  17.145   8.626   7.742 -0.0059  0.0738  0.1619
  733POPI   C3B 9923  17.287   8.535   8.150 -0.2050  0.0754 -0.1824
  733POPI   C4B 9924  17.625   8.308   8.367 -0.0156  0.2896  0.0175
  734POPI    C1 9925   7.738   2.378   5.764 -0.0258  0.1303 -0.2472
  734POPI    C2 9926   8.101   2.295   5.618 -0.0312 -0.0868 -0.1412
  734POPI    C3 9927   7.806   2.027   5.583 -0.0391 -0.1327  0.2427
  734POPI   PO4 9928   7.810   2.459   6.001  0.1531 -0.2317 -0.2972
  734POPI   GL1 9929   7.921   2.427   6.381  0.2268 -0.1697  0.2103
  734POPI   GL2 9930   8.260   2.560   6.584  0.2344  0.0468 -0.0716
  734POPI   C1A 9931   7.954   2.219   6.864  0.2366 -0.0288 -0.2810
  734POPI   D2A 9932   7.757   2.171   7.251 -0.0137 -0.0993  0.2067
  734POPI   C3A 9933   7.764   2.388   7.588 -0.2249  0.0349 -0.1530
  734POPI   C4A 9934   7.798   2.405   8.000 -0.3136  0.1338  0.1932
  734POPI   C1B 9935   8.507   2.654   6.930  0.0171  0.1541  0.1395
  734POPI   C2B 9936   8.610   2.941   7.203  0.0547 -0.0767  0.0116
  734POPI   C3B 9937   8.613   2.972   7.589  0.0026  0.0688 -0.2991
  734POPI   C4B 9938   8.698   3.369   7.871 -0.1972  0.2534  0.1339
  735POPI    C1 9939   8.013  13.134   6.003  0.2537 -0.2337  0.0108
  735POPI    C2 9940   7.857  12.883   5.733 -0.1456 -0.0402  0.0532
  735POPI    C3 9941   8.080  13.193   5.613 -0.0031 -0.1726 -0.0266
  735POPI   PO4 9942   8.177  12.963   6.187  0.0312  0.1547  0.0455
  735POPI   GL1 9943   8.197  13.171   6.580  0.0225  0.0541 -0.0227
  735POPI   GL2 9944   7.865  12.916   6.647  0.1149 -0.2816  0.2421
  735POPI   C1A 9945   8.405  13.219   6.964 -0.2987 -0.0532 -0.2492
  735POPI   D2A 9946   8.342  13.173   7.342 -0.3930  0.1246 -0.0465
  735POPI   C3A 9947   8.460  13.070   7.746 -0.1522  0.3078 -0.1649
  735POPI   C4A 9948   8.598  12.882   8.066  0.2110  0.1289  0.1296
  735POPI   C1B 9949   7.770  12.957   6.987  0.1532  0.3180 -0.0398
  735POPI   C2B 9950   7.668  12.959   7.325 -0.0687  0.0574 -0.1270
  735POPI   C3B 9951   7.570  12.812   7.652  0.3121 -0.0961  0.3408
  735POPI   C4B 9952   7.469  12.774   8.060 -0.0401 -0.0750  0.0338
  736POPI    C1 9953   0.207   5.309   6.099 -0.2284  0.0105  0.1639
  736POPI    C2 9954   0.272   5.119   5.754  0.2457  0.0201  0.2410
  736POPI    C3 9955   0.331   5.514   5.779 -0.1873  0.0905  0.2305
  736POPI   PO4 9956   0.387   5.100   6.275 -0.0221  0.1193 -0.0078
  736POPI   GL1 9957   0.444   4.799   6.591  0.3121  0.1252 -0.3747
  736POPI   GL2 9958   0.292   4.649   6.508  0.1649 -0.1142 -0.1829
  736POPI   C1A 9959   0.551   4.593   7.053  0.1230 -0.1359  0.0734
  736POPI   D2A 9960   0.607   4.468   7.414 -0.0403 -0.1586 -0.1770
  736POPI   C3A 9961   0.295   4.473   7.769 -0.0516  0.1625 -0.0316
  736POPI   C4A 9962   0.361   4.334   8.140  0.3226  0.0117 -0.0681
  736POPI   C1B 9963   0.168   4.427   6.873  0.0107  0.3935 -0.0923
  736POPI   C2B 9964   0.134   4.306   7.277  0.0826 -0.0047  0.1551
  736POPI   C3B 9965  -0.193   4.568   7.573  0.1930 -0.2444  0.2423
  736POPI   C4B 9966  -0.631   4.712   7.654 -0.0162 -0.1202  0.0056
  737POPI    C1 9967   0.757   7.876   5.917  0.2052 -0.0252 -0.0337
  737POPI    C2 9968   0.438   7.635   5.914  0.0655  0.1541  0.1344
  737POPI    C3 9969   0.567   7.800   5.574  0.0977 -0.0707  0.0352
  737POPI   PO4 9970   0.918   7.773   6.149  0.3113  0.0460 -0.2385
  737POPI   GL1 9971   1.183   7.995   6.466 -0.0520 -0.2479  0.0877
  737POPI   GL2 9972   1.199   7.667   6.581  0.0663  0.1487 -0.0118
  737POPI   C1A 9973   1.377   8.148   6.780  0.1925  0.1439  0.1926
  737POPI   D2A 9974   1.427   8.122   7.128  0.1631  0.2421 -0.0845
  737POPI   C3A 9975   1.475   8.039   7.505  0.0682  0.2231  0.1406
  737POPI   C4A 9976   1.280   7.994   7.861 -0.0731  0.1301  0.1278
  737POPI   C1B 9977   1.369   7.680   6.903  0.0197  0.1052 -0.2872
  737POPI   C2B 9978   1.498   7.587   7.334  0.0388  0.0584  0.1012
  737POPI   C3B 9979   1.510   7.571   7.730 -0.3124  0.0949  0.1398
  737POPI   C4B 9980   1.269   7.459   8.067 -0.2269 -0.1800  0.0643
  738POPI    C1 9981   5.744  14.697   5.612 -0.0621  0.1039  0.0252
  738POPI    C2 9982   6.098  14.725   5.427 -0.0448  0.0275  0.0464
  738POPI    C3 9983   5.922  14.368   5.471 -0.1392  0.0691  0.0089
  738POPI   PO4 9984   5.782  14.719   5.877  0.0352 -0.1630  0.0219
  738POPI   GL1 9985   5.535  14.841   6.225  0.1963  0.2660  0.4159
  738POPI   GL2 9986   5.395  15.086   6.308  0.0863 -0.1236 -0.0798
  738POPI   C1A 9987   5.489  14.392   6.495 -0.1639 -0.0780  0.0461
  738POPI   D2A 9988   5.623  14.100   6.842 -0.0105  0.1329  0.0885
  738POPI   C3A 9989   5.737  14.002   7.325 -0.2071  0.2221  0.1104
  738POPI   C4A 9990   5.535  14.050   7.773 -0.0160  0.1260  0.2770
  738POPI   C1B 9991   5.415  14.956   6.730  0.1027  0.2956  0.0058
  738POPI   C2B 9992   5.686  15.168   6.975  0.3528 -0.0202  0.1887
  738POPI   C3B 9993   5.879  15.446   7.399  0.4350  0.0918  0.1085
  738POPI   C4B 9994   6.160  15.581   7.720  0.1914 -0.0024  0.0957
  739POPI    C1 9995   7.339  11.378   5.682  0.0124 -0.0468 -0.1110
  739POPI    C2 9996   7.500  11.666   5.457  0.1655 -0.0925 -0.0615
  739POPI    C3 9997   7.496  11.289   5.326  0.1239 -0.0959 -0.0501
  739POPI   PO4 9998   7.111  11.452   5.864 -0.0120  0.2319 -0.1139
  739POPI   GL1 9999   7.067  11.438   6.234 -0.0351  0.0566 -0.1246
  739POPI   GL210000   6.943  11.384   6.515  0.1201 -0.3995 -0.0396
  739POPI   C1A10001   7.492  11.437   6.456  0.0089  0.0122 -0.0641
  739POPI   D2A10002   8.000  11.489   6.591 -0.1346  0.4055  0.0113
  739POPI   C3A10003   8.171  11.584   7.035  0.2333 -0.0418  0.0274
  739POPI   C4A10004   7.867  11.400   7.487 -0.2108  0.0908 -0.1088
  739POPI   C1B10005   7.067  11.337   6.879  0.1097  0.0818  0.1456
  739POPI   C2B10006   7.150  11.362   7.355  0.3386 -0.0572 -0.0062
  739POPI   C3B10007   7.392  11.424   7.555 -0.1133 -0.2419  0.0452
  739POPI   C4B10008   7.513  11.372   7.922  0.2741  0.2283  0.0148
  740POPI    C110009   7.173   4.351   5.753 -0.0080  0.0691  0.2267
  740POPI    C210010   6.975   4.695   5.706 -0.1588 -0.0589 -0.1037
  740POPI    C310011   7.190   4.546   5.404  0.1320 -0.1170  0.1281
  740POPI   PO410012   7.159   4.258   6.041  0.1363  0.2118  0.2455
  740POPI   GL110013   7.122   4.483   6.433  0.0413 -0.1864  0.1757
  740POPI   GL210014   6.956   4.790   6.307  0.1263 -0.1403 -0.2602
  740POPI   C1A10015   7.221   4.450   6.803 -0.1894  0.1774  0.0806
  740POPI   D2A10016   7.153   4.674   7.087 -0.2586  0.1577  0.0213
  740POPI   C3A10017   7.309   4.511   7.473 -0.0414  0.2737 -0.2024
  740POPI   C4A10018   7.589   4.350   7.800 -0.0709 -0.2081 -0.0442
  740POPI   C1B10019   6.879   4.888   6.743  0.1853  0.1296  0.3831
  740POPI   C2B10020   6.623   4.835   6.999 -0.2563  0.0609  0.2765
  740POPI   C3B10021   6.457   5.114   7.289  0.2525  0.2144  0.2061
  740POPI   C4B10022   6.452   5.224   7.709  0.1059  0.0918  0.0111
  741POPI    C110023   4.608   8.832   5.761 -0.2824 -0.0304 -0.0693
  741POPI    C210024   4.737   8.631   5.440  0.0204 -0.0746  0.0767
  741POPI    C310025   4.559   8.986   5.395  0.0964 -0.0626 -0.1377
  741POPI   PO410026   4.856   8.895   5.901  0.0129  0.1391  0.1309
  741POPI   GL110027   5.032   9.200   6.209 -0.0709 -0.0238 -0.2050
  741POPI   GL210028   4.823   9.022   6.437 -0.2565 -0.1459 -0.0499
  741POPI   C1A10029   5.110   9.324   6.659 -0.0865 -0.0811 -0.1073
  741POPI   D2A10030   5.165   9.384   6.985 -0.2977  0.0061 -0.0350
  741POPI   C3A10031   4.870   9.186   7.320 -0.0422 -0.2010  0.0537
  741POPI   C4A10032   4.777   8.726   7.390  0.0236  0.0829 -0.0429
  741POPI   C1B10033   4.889   8.939   6.861 -0.0032 -0.1309  0.1801
  741POPI   C2B10034   5.195   8.870   7.158  0.1524  0.0375 -0.1218
  741POPI   C3B10035   5.390   8.624   7.480  0.3192 -0.1313 -0.0272
  741POPI   C4B10036   5.381   8.343   7.720 -0.0265 -0.0997  0.2769
  742POPS   CNO10037  14.652   6.871   5.510 -0.0399 -0.1435 -0.1273
  742POPS   PO410038  15.004   6.802   5.862  0.0231  0.2140  0.0996
  742POPS   GL110039  15.153   7.064   6.283 -0.0842 -0.0619  0.2924
  742POPS   GL210040  14.881   7.265   6.324 -0.1905  0.0755  0.0238
  742POPS   C1A10041  15.193   7.253   6.713  0.2066 -0.0728  0.0589
  742POPS   D2A10042  15.196   7.361   7.145  0.0049 -0.0508  0.0358
  742POPS   C3A10043  15.571   7.458   7.418  0.1854  0.1011  0.2109
  742POPS   C4A10044  15.839   7.496   7.723 -0.0549 -0.0120 -0.2062
  742POPS   C1B10045  14.670   7.347   6.688  0.2751 -0.0682  0.3401
  742POPS   C2B10046  14.706   7.523   7.123 -0.1665  0.3834  0.1401
  742POPS   C3B10047  14.778   7.794   7.553 -0.1360  0.0111  0.1062
  742POPS   C4B10048  14.871   8.096   7.801  0.0118 -0.1402  0.1299
  743POPS   CNO10049   2.852   1.410   5.710 -0.0353  0.0572 -0.1862
  743POPS   PO410050   3.184   1.526   5.933 -0.1523  0.0236  0.1503
  743POPS   GL110051   3.206   1.957   6.091 -0.0889  0.0027 -0.2093
  743POPS   GL210052   3.488   2.139   6.021  0.3367 -0.0188 -0.2846
  743POPS   C1A10053   3.111   1.962   6.489 -0.4412  0.0662  0.0310
  743POPS   D2A10054   3.192   1.904   6.858  0.0224  0.0375 -0.0586
  743POPS   C3A10055   3.421   1.820   7.201 -0.0397  0.2777  0.3309
  743POPS   C4A10056   3.795   1.643   7.340  0.0441 -0.1889  0.0469
  743POPS   C1B10057   3.682   2.030   6.382  0.0154 -0.0334 -0.0873
  743POPS   C2B10058   3.752   1.929   6.839  0.2232  0.4947  0.0181
  743POPS   C3B10059   3.874   2.123   7.222 -0.2991  0.1274 -0.2773
  743POPS   C4B10060   4.053   2.426   7.567  0.2954  0.1677  0.2368
  744POPS   CNO10061  12.211  14.763   5.706  0.1006 -0.2134  0.0251
  744POPS   PO410062  12.421  14.370   5.942  0.1838 -0.1694 -0.1496
  744POPS   GL110063  12.190  14.577   6.414  0.2368  0.2291 -0.0998
  744POPS   GL210064  12.044  14.418   6.647  0.2225 -0.2041  0.2473
  744POPS   C1A10065  12.449  14.752   6.749 -0.0919  0.1823  0.2434
  744POPS   D2A10066  12.611  15.042   6.935 -0.2427 -0.1015  0.1309
  744POPS   C3A10067  13.009  15.190   7.040  0.0052  0.3286  0.1964
  744POPS   C4A10068  13.302  15.268   7.332  0.3245  0.0551  0.3829
  744POPS   C1B10069  12.199  14.374   6.944  0.1122  0.2085  0.0671
  744POPS   C2B10070  12.500  14.421   7.299 -0.2544 -0.1741 -0.0768
  744POPS   C3B10071  12.530  14.441   7.843 -0.0105 -0.0405  0.0435
  744POPS   C4B10072  12.537  14.419   8.268  0.1085 -0.0945  0.1141
  745POPS   CNO10073   0.745   9.465   5.674 -0.2391  0.1113  0.0781
  745POPS   PO410074   0.606   9.614   6.117 -0.0489  0.0248  0.1476
  745POPS   GL110075   0.512   9.866   6.464  0.0127  0.0150 -0.0227
  745POPS   GL210076   0.451  10.159   6.587 -0.0354 -0.1530  0.0761
  745POPS   C1A10077   0.441   9.512   6.759 -0.1213  0.0412  0.2823
  745POPS   D2A10078   0.397   9.171   7.011  0.2674  0.0909 -0.1345
  745POPS   C3A10079   0.554   9.016   7.379  0.0019 -0.3232 -0.0718
  745POPS   C4A10080   0.482   9.004   7.735  0.1418 -0.1195  0.2946
  745POPS   C1B10081   0.578  10.000   6.925 -0.0906 -0.1108  0.0360
  745POPS   C2B10082   0.684   9.947   7.327  0.2227  0.1976  0.1271
  745POPS   C3B10083   1.064  10.178   7.542 -0.1454 -0.1256  0.2182
  745POPS   C4B10084   1.365  10.379   7.712 -0.1375  0.1819 -0.0255
  746POPS   CNO10085   0.340   4.244   5.793 -0.0275 -0.3381 -0.0667
  746POPS   PO410086   0.661   4.002   5.920 -0.3946  0.0177  0.0813
  746POPS   GL110087   0.757   3.774   6.255 -0.1328  0.1358  0.0231
  746POPS   GL210088   1.054   3.811   6.338 -0.1088 -0.1191 -0.0244
  746POPS   C1A10089   0.745   3.379   6.449 -0.0086  0.1633  0.0977
  746POPS   D2A10090   0.456   2.991   6.451  0.0937  0.0247 -0.1222
  746POPS   C3A10091   0.394   3.118   6.927 -0.0596 -0.1495 -0.0681
  746POPS   C4A10092   0.604   3.236   7.291 -0.1551 -0.1689 -0.3621
  746POPS   C1B10093   0.872   3.830   6.701 -0.0954 -0.0525 -0.2589
  746POPS   C2B10094   1.026   4.203   7.016  0.1988  0.0359 -0.2260
  746POPS   C3B10095   1.053   4.270   7.479 -0.0142 -0.0098  0.1836
  746POPS   C4B10096   0.790   4.254   7.831 -0.1631  0.1754  0.0586
  747POPS   CNO10097  10.268   4.240   5.247 -0.0586 -0.0521 -0.1172
  747POPS   PO410098  10.344   4.088   5.680  0.3756 -0.0975 -0.1748
  747POPS   GL110099  10.610   4.089   6.077  0.2545  0.0490  0.1291
  747POPS   GL210100  10.491   4.068   6.433  0.2356 -0.1061  0.1066
  747POPS   C1A10101  10.931   4.276   6.222 -0.0346  0.0778 -0.1086
  747POPS   D2A10102  11.026   4.489   6.605  0.1150  0.0164 -0.0046
  747POPS   C3A10103  11.405   4.349   6.754  0.3769  0.5896  0.1014
  747POPS   C4A10104  11.599   4.287   7.152  0.0387 -0.0765 -0.0008
  747POPS   C1B10105  10.764   3.811   6.431  0.1728 -0.3077 -0.0495
  747POPS   C2B10106  10.958   3.443   6.688  0.0186  0.0729 -0.2946
  747POPS   C3B10107  10.954   3.157   7.027  0.1775 -0.0853 -0.0864
  747POPS   C4B10108  10.735   3.026   7.447  0.3015 -0.1379  0.3900
  748POPS   CNO10109   9.776   0.268   5.392 -0.3814  0.0981 -0.2679
  748POPS   PO410110   9.726   0.004   5.841 -0.1142  0.0434 -0.0919
  748POPS   GL110111   9.604   0.254   6.177 -0.2662  0.2001 -0.2183
  748POPS   GL210112   9.892   0.342   6.370 -0.0345 -0.0243  0.1987
  748POPS   C1A10113   9.427   0.138   6.565 -0.0457 -0.0789  0.1537
  748POPS   D2A10114   9.386   0.155   7.032  0.2159  0.1277  0.1720
  748POPS   C3A10115   9.659   0.378   7.295  0.0623 -0.1381  0.2408
  748POPS   C4A10116   9.896   0.453   7.774 -0.2297 -0.1645 -0.2455
  748POPS   C1B10117   9.850   0.306   6.776  0.3378  0.0447  0.0488
  748POPS   C2B10118  10.120   0.346   7.082  0.1066 -0.0205 -0.1345
  748POPS   C3B10119  10.268   0.263   7.507  0.0592  0.0886 -0.1471
  748POPS   C4B10120  10.283   0.286   8.002 -0.1890  0.0659 -0.2438
  749POPS   CNO10121  12.622  12.051   5.908 -0.1286  0.0784  0.1513
  749POPS   PO410122  12.904  12.272   6.066  0.2163 -0.3913 -0.1133
  749POPS   GL110123  12.741  11.938   6.355 -0.0400  0.0920 -0.1224
  749POPS   GL210124  12.478  12.050   6.396  0.0203 -0.0656  0.0827
  749POPS   C1A10125  12.963  11.926   6.747 -0.3331 -0.1880  0.1500
  749POPS   D2A10126  13.117  11.891   7.179  0.0490 -0.0654 -0.0800
  749POPS   C3A10127  13.065  11.838   7.598  0.1951  0.2023  0.0186
  749POPS   C4A10128  12.881  11.536   7.980 -0.0452  0.3304  0.1716
  749POPS   C1B10129  12.493  12.075   6.811  0.1739  0.2254  0.0741
  749POPS   C2B10130  12.628  11.955   7.213 -0.2169  0.0067 -0.3604
  749POPS   C3B10131  12.519  11.774   7.650 -0.4587  0.2110  0.0128
  749POPS   C4B10132  12.238  11.674   8.027  0.0301  0.1408  0.1989
  750POPS   CNO10133  10.414   6.066   6.175  0.0755 -0.0204 -0.0228
  750POPS   PO410134   9.909   5.977   6.076  0.2362  0.4863  0.2633
  750POPS   GL110135  10.015   5.833   6.447  0.0649 -0.0225  0.0504
  750POPS   GL210136  10.094   5.997   6.575  0.1428 -0.2109  0.0101
  750POPS   C1A10137   9.978   5.723   6.956 -0.2096 -0.2121 -0.0415
  750POPS   D2A10138  10.063   5.804   7.382  0.2307  0.0681 -0.0306
  750POPS   C3A10139  10.094   5.519   7.682  0.1527  0.0612  0.2918
  750POPS   C4A10140  10.041   5.419   8.131 -0.1019 -0.2158 -0.0224
  750POPS   C1B10141  10.458   6.341   6.608 -0.1574  0.0860  0.0443
  750POPS   C2B10142  10.509   6.426   7.049  0.1885  0.0705 -0.0964
  750POPS   C3B10143  10.587   6.505   7.469 -0.0597 -0.0947 -0.2288
  750POPS   C4B10144  10.511   6.434   7.878  0.1013  0.0981 -0.2997
  751POPS   CNO10145   7.707  17.553   5.430  0.0011 -0.0334 -0.1834
  751POPS   PO410146   7.600  17.339   5.806 -0.0810  0.1424 -0.1964
  751POPS   GL110147   7.721  17.252   6.192  0.1199  0.0626 -0.0211
  751POPS   GL210148   7.953  17.469   6.219  0.0317 -0.0332 -0.2010
  751POPS   C1A10149   7.623  17.434   6.622  0.2107 -0.2376  0.1620
  751POPS   D2A10150   7.823  17.473   7.009 -0.0289  0.3314 -0.0374
  751POPS   C3A10151   8.040  17.329   7.261 -0.0989  0.1526  0.5318
  751POPS   C4A10152   8.408  17.133   7.500  0.2208  0.2423 -0.2934
  751POPS   C1B10153   8.097  17.136   6.565  0.1183  0.2658 -0.2793
  751POPS   C2B10154   8.178  16.896   6.945 -0.1857  0.1710 -0.0476
  751POPS   C3B10155   8.100  16.750   7.341  0.0470 -0.0490  0.2647
  751POPS   C4B10156   7.762  16.551   7.495  0.6222  0.1592  0.0159
  752POPS   CNO10157  12.453  10.135   6.256  0.2147 -0.1943 -0.2427
  752POPS   PO410158  12.596  10.545   6.233  0.4561  0.2203  0.3810
  752POPS   GL110159  12.797  10.646   6.612 -0.1716  0.1811  0.2989
  752POPS   GL210160  13.113  10.743   6.605 -0.2831  0.1813 -0.0090
  752POPS   C1A10161  12.762  10.693   7.002  0.1131  0.1621  0.2094
  752POPS   D2A10162  12.626  10.854   7.327 -0.0426 -0.0535  0.0914
  752POPS   C3A10163  12.799  10.673   7.670 -0.4161 -0.1822  0.1917
  752POPS   C4A10164  13.182  10.327   7.763 -0.3452  0.0058  0.1973
  752POPS   C1B10165  13.258  10.963   6.948 -0.2891 -0.1599  0.2066
  752POPS   C2B10166  13.269  11.177   7.349  0.1133 -0.1472  0.0469
  752POPS   C3B10167  13.292  11.388   7.765  0.2809  0.1536  0.1180
  752POPS   C4B10168  13.341  11.825   8.002 -0.0689 -0.0097 -0.1495
  753POPS   CNO10169  13.703   1.760   5.524  0.3123  0.3408  0.3240
  753POPS   PO410170  13.581   1.806   5.941 -0.5257 -0.1411 -0.1532
  753POPS   GL110171  13.483   1.844   6.384 -0.1440 -0.1032 -0.2865
  753POPS   GL210172  13.356   2.055   6.424  0.2145 -0.1635 -0.2200
  753POPS   C1A10173  13.503   1.794   6.849  0.0640 -0.1071 -0.1426
  753POPS   D2A10174  13.588   1.446   7.178 -0.1774 -0.1093 -0.1401
  753POPS   C3A10175  13.292   1.472   7.578  0.1018  0.0837  0.4907
  753POPS   C4A10176  13.323   1.393   7.994  0.2194 -0.2112 -0.4704
  753POPS   C1B10177  13.424   2.304   6.761 -0.2597 -0.0430  0.0624
  753POPS   C2B10178  13.551   2.195   7.139 -0.0341 -0.1719 -0.1915
  753POPS   C3B10179  13.628   2.151   7.561  0.2531  0.0575 -0.0067
  753POPS   C4B10180  13.562   1.869   7.853  0.0512  0.1578  0.4121
  754POPS   CNO10181   1.798  17.178   5.215  0.2719  0.2605  0.4778
  754POPS   PO410182   1.834  17.567   5.426 -0.0201  0.1690  0.1558
  754POPS   GL110183   1.889  17.430   5.940  0.1507 -0.1532  0.0312
  754POPS   GL210184   1.626  17.347   6.095 -0.0942  0.0717 -0.2950
  754POPS   C1A10185   2.174  17.166   6.142 -0.1992 -0.1963 -0.2715
  754POPS   D2A10186   2.469  17.412   6.293  0.0305 -0.2899 -0.0646
  754POPS   C3A10187   2.463  17.474   6.789 -0.4125  0.0202 -0.1321
  754POPS   C4A10188   2.492  17.758   7.059  0.0199 -0.2418 -0.0811
  754POPS   C1B10189   1.736  17.025   6.318  0.2236 -0.2711  0.2117
  754POPS   C2B10190   1.861  16.780   6.607  0.0004  0.2031  0.1686
  754POPS   C3B10191   2.097  16.686   6.922  0.0331 -0.5002  0.2392
  754POPS   C4B10192   2.085  16.415   7.283  0.1539 -0.2591 -0.1257
  755POPS   CNO10193   9.207   9.966   6.025 -0.0926  0.1871 -0.3797
  755POPS   PO410194   8.912   9.673   6.049  0.1729  0.0659  0.0055
  755POPS   GL110195   8.939   9.586   6.473  0.1635  0.3355  0.1422
  755POPS   GL210196   9.226   9.746   6.520  0.2677 -0.1732 -0.0719
  755POPS   C1A10197   8.853   9.477   6.865  0.0967 -0.0088 -0.0104
  755POPS   D2A10198   8.817   9.278   7.207 -0.0925  0.0479 -0.1261
  755POPS   C3A10199   8.789   9.531   7.503 -0.0444  0.1420  0.2408
  755POPS   C4A10200   8.953   9.493   7.870 -0.1729  0.0645 -0.3154
  755POPS   C1B10201   9.231   9.854   6.890 -0.0825 -0.2183  0.0076
  755POPS   C2B10202   9.128   9.934   7.302  0.3641 -0.0538 -0.0754
  755POPS   C3B10203   9.061   9.976   7.645 -0.1389 -0.1221  0.1581
  755POPS   C4B10204   8.857   9.978   8.021 -0.0553  0.0003  0.3018
  756POPS   CNO10205   9.879  15.820   5.549 -0.5010  0.1100  0.2163
  756POPS   PO410206   9.701  16.016   5.952  0.0154 -0.0560  0.1169
  756POPS   GL110207  10.025  16.086   6.295 -0.2867  0.2440 -0.1729
  756POPS   GL210208  10.203  16.351   6.322  0.0639  0.1082 -0.2740
  756POPS   C1A10209   9.779  16.337   6.634  0.1733  0.1748 -0.0934
  756POPS   D2A10210   9.801  16.779   6.823  0.0619  0.0880  0.3435
  756POPS   C3A10211  10.216  16.979   6.839  0.1638  0.0416 -0.1249
  756POPS   C4A10212  10.576  17.129   6.720 -0.0301  0.3173  0.2811
  756POPS   C1B10213  10.628  16.160   6.591  0.2483 -0.1210  0.2076
  756POPS   C2B10214  10.638  16.253   7.062  0.0166  0.0284 -0.1251
  756POPS   C3B10215  10.760  16.083   7.407  0.1074 -0.2944  0.0018
  756POPS   C4B10216  10.997  16.031   7.755 -0.1885  0.1461  0.2626
  757POPS   CNO10217  17.710  14.753   5.655  0.1642  0.0712  0.0857
  757POPS   PO410218  17.875  15.019   5.934  0.1448 -0.2017  0.2465
  757POPS   GL110219  17.980  15.147   6.294 -0.3809  0.0279  0.2379
  757POPS   GL210220  17.990  14.935   6.478 -0.0134  0.0504  0.0721
  757POPS   C1A10221  18.352  15.379   6.515  0.1627 -0.5223 -0.0144
  757POPS   D2A10222  18.500  15.528   6.800  0.3562  0.2390  0.0803
  757POPS   C3A10223  18.338  15.366   7.156 -0.0050 -0.0951  0.0748
  757POPS   C4A10224  18.311  15.291   7.589 -0.0862  0.2883  0.0900
  757POPS   C1B10225  18.026  15.114   6.853  0.1195  0.1018  0.0393
  757POPS   C2B10226  17.856  15.211   7.213  0.1067 -0.0315 -0.0887
  757POPS   C3B10227  17.659  15.401   7.549 -0.1708  0.0479 -0.1724
  757POPS   C4B10228  17.440  15.542   7.945 -0.1098 -0.1006  0.1773
  758POPS   CNO10229   7.041  17.213   5.694  0.1121 -0.3053 -0.1120
  758POPS   PO410230   6.885  17.486   6.020  0.0643 -0.0395 -0.0228
  758POPS   GL110231   6.983  17.366   6.469  0.1320  0.1228  0.1335
  758POPS   GL210232   7.147  17.126   6.549 -0.0991 -0.3388 -0.3358
  758POPS   C1A10233   6.816  17.443   6.727 -0.0164 -0.2691 -0.0570
  758POPS   D2A10234   6.904  17.678   7.072  0.1743 -0.0794 -0.1499
  758POPS   C3A10235   6.973  17.472   7.415 -0.0863  0.1348  0.0237
  758POPS   C4A10236   7.037  17.246   7.801  0.0422 -0.0293 -0.0784
  758POPS   C1B10237   6.963  17.028   7.025  0.0644  0.2110 -0.1065
  758POPS   C2B10238   6.796  16.957   7.473 -0.1202 -0.0430  0.1029
  758POPS   C3B10239   6.526  17.019   7.765  0.0549  0.1103 -0.2524
  758POPS   C4B10240   6.510  16.727   8.024  0.0915  0.1144  0.3895
  759POPS   CNO10241   6.358  10.076   5.801  0.2106 -0.0114 -0.1599
  759POPS   PO410242   6.321   9.713   5.843 -0.3788  0.0927  0.0636
  759POPS   GL110243   6.432   9.777   6.218  0.1148  0.1381 -0.1355
  759POPS   GL210244   6.560   9.998   6.307 -0.0582 -0.3434 -0.2857
  759POPS   C1A10245   6.836   9.667   6.538  0.1139 -0.2051  0.0444
  759POPS   D2A10246   6.860   9.610   6.949  0.2806  0.0832 -0.1223
  759POPS   C3A10247   6.830   9.949   7.228  0.2721 -0.0655 -0.0843
  759POPS   C4A10248   7.011  10.115   7.577 -0.2284  0.0850  0.0150
  759POPS   C1B10249   6.967  10.196   6.367  0.2665 -0.1682  0.1759
  759POPS   C2B10250   7.349  10.320   6.514  0.2534 -0.0279  0.2812
  759POPS   C3B10251   7.459  10.262   6.935 -0.0880  0.0679 -0.0932
  759POPS   C4B10252   7.552  10.299   7.354  0.0541  0.0517  0.0919
  760POPS   CNO10253   3.468  14.994   5.571  0.2712 -0.0321 -0.1912
  760POPS   PO410254   3.870  14.965   5.505 -0.0231 -0.3572  0.2425
  760POPS   GL110255   3.946  14.901   5.930  0.0166 -0.0135  0.0930
  760POPS   GL210256   4.170  15.123   5.907 -0.1274  0.1211  0.0263
  760POPS   C1A10257   3.841  14.868   6.337 -0.1693 -0.2857  0.2064
  760POPS   D2A10258   3.906  14.951   6.672 -0.1449  0.0951  0.0621
  760POPS   C3A10259   4.007  14.749   7.028  0.5553  0.0337  0.4611
  760POPS   C4A10260   3.978  14.689   7.459 -0.0861  0.1341  0.0905
  760POPS   C1B10261   4.314  15.018   6.314 -0.3182 -0.0545 -0.0579
  760POPS   C2B10262   4.426  15.079   6.777  0.1087 -0.1337  0.1337
  760POPS   C3B10263   4.181  15.322   7.046 -0.0818  0.0640  0.2560
  760POPS   C4B10264   4.069  15.548   7.352 -0.1808 -0.0603  0.1219
  761POPS   CNO10265   9.930  11.770   6.014 -0.0460 -0.3095 -0.1415
  761POPS   PO410266   9.946  11.382   5.933  0.1426  0.0324  0.0534
  761POPS   GL110267   9.921  11.285   6.334 -0.3223  0.0215 -0.0064
  761POPS   GL210268   9.971  11.551   6.474 -0.2633  0.0295  0.5282
  761POPS   C1A10269   9.785  11.226   6.860 -0.2190  0.1878 -0.0647
  761POPS   D2A10270   9.699  11.323   7.297  0.2165  0.1698  0.1204
  761POPS   C3A10271   9.286  11.036   7.481  0.0782 -0.2511 -0.0966
  761POPS   C4A10272   8.960  10.908   7.779  0.2339  0.3982  0.0222
  761POPS   C1B10273   9.661  11.686   6.660  0.1870  0.2480 -0.1018
  761POPS   C2B10274   9.546  11.964   7.004  0.2672  0.1174 -0.0740
  761POPS   C3B10275   9.450  12.002   7.427 -0.0832  0.1753  0.0512
  761POPS   C4B10276   9.376  11.919   7.884 -0.0662  0.2239 -0.0276
  762POPS   CNO10277   5.935  16.655   6.021 -0.1001 -0.2262  0.0024
  762POPS   PO410278   6.253  16.866   6.031 -0.3268  0.0071  0.1286
  762POPS   GL110279   6.135  17.021   6.424 -0.1190 -0.1033  0.0094
  762POPS   GL210280   6.056  16.788   6.548 -0.0445 -0.1398 -0.1611
  762POPS   C1A10281   6.285  17.277   6.807 -0.1230  0.3168  0.1144
  762POPS   D2A10282   6.563  17.310   7.165 -0.1582 -0.0050  0.1397
  762POPS   C3A10283   6.441  17.421   7.472 -0.0142  0.0322  0.2757
  762POPS   C4A10284   6.595  17.818   7.649  0.0428  0.0394  0.0330
  762POPS   C1B10285   5.802  16.575   6.779 -0.1973 -0.0131  0.0204
  762POPS   C2B10286   5.496  16.398   6.971 -0.4196 -0.0397  0.2308
  762POPS   C3B10287   5.354  16.060   7.161  0.1345 -0.1138  0.1230
  762POPS   C4B10288   5.357  15.817   7.673  0.3191 -0.0479  0.0097
  763POPS   CNO10289   4.800  13.052   5.546  0.2033 -0.2176 -0.0091
  763POPS   PO410290   4.373  12.798   5.688 -0.2276  0.0926  0.0316
  763POPS   GL110291   4.291  12.570   6.027  0.1014  0.0448  0.1207
  763POPS   GL210292   4.376  12.351   6.150 -0.2013 -0.2221 -0.2297
  763POPS   C1A10293   4.119  12.754   6.396  0.1989 -0.1992  0.0663
  763POPS   D2A10294   3.930  12.715   6.840  0.1394 -0.2003  0.2448
  763POPS   C3A10295   3.756  12.833   7.270  0.1144  0.0516 -0.1816
  763POPS   C4A10296   3.587  12.969   7.614  0.3160  0.2703 -0.2992
  763POPS   C1B10297   4.223  12.319   6.576  0.0058 -0.2822 -0.3084
  763POPS   C2B10298   4.241  12.301   6.999  0.0845 -0.0693  0.2017
  763POPS   C3B10299   3.997  12.415   7.317 -0.1940 -0.1761 -0.1706
  763POPS   C4B10300   3.600  12.489   7.554 -0.0897  0.1335 -0.1136
  764POPS   CNO10301  15.583   3.096   5.383 -0.0332 -0.0255 -0.0234
  764POPS   PO410302  15.723   2.659   5.499 -0.0991 -0.1786 -0.1383
  764POPS   GL110303  15.805   2.584   6.013  0.2119  0.1131 -0.0714
  764POPS   GL210304  15.860   2.254   5.988  0.0193 -0.1571  0.0144
  764POPS   C1A10305  15.885   2.618   6.480 -0.2120  0.2003 -0.2895
  764POPS   D2A10306  15.880   2.551   6.847  0.3803  0.0749 -0.0215
  764POPS   C3A10307  15.727   2.419   7.259 -0.0285  0.0130  0.0092
  764POPS   C4A10308  15.960   2.419   7.749 -0.1817  0.0126 -0.0594
  764POPS   C1B10309  15.946   2.119   6.394 -0.1252 -0.1472 -0.1804
  764POPS   C2B10310  15.832   2.079   6.912  0.2368  0.0345 -0.0207
  764POPS   C3B10311  15.914   1.785   7.248  0.1312 -0.0544  0.2190
  764POPS   C4B10312  15.927   1.467   7.433  0.0676  0.3125  0.0172
  765POPS   CNO10313  16.429  17.380   5.512 -0.2739  0.0567  0.0284
  765POPS   PO410314  16.392  17.129   5.944 -0.0668  0.1947  0.0673
  765POPS   GL110315  16.654  17.134   6.348 -0.3405  0.0155  0.0028
  765POPS   GL210316  16.727  17.455   6.431 -0.3418 -0.0904  0.2383
  765POPS   C1A10317  16.770  17.144   6.790  0.0903  0.0108  0.1363
  765POPS   D2A10318  16.745  17.326   7.215 -0.1016 -0.0869  0.2718
  765POPS   C3A10319  16.670  17.102   7.545 -0.1619 -0.1348 -0.1161
  765POPS   C4A10320  16.518  16.905   7.950 -0.1346 -0.0715 -0.2938
  765POPS   C1B10321  16.737  17.635   6.792  0.1310  0.1586  0.2065
  765POPS   C2B10322  16.706  17.822   7.152 -0.1495  0.0182 -0.1196
  765POPS   C3B10323  16.585  17.764   7.494  0.0254  0.0778  0.0836
  765POPS   C4B10324  16.144  17.786   7.605 -0.0371 -0.1613  0.1121
  766POPS   CNO10325  17.707   0.881   5.628  0.1687  0.1130  0.0477
  766POPS   PO410326  17.176   0.918   5.592 -0.3267 -0.3066 -0.0395
  766POPS   GL110327  17.188   0.925   6.029  0.1325 -0.3887 -0.0010
  766POPS   GL210328  17.373   1.211   6.053 -0.2899 -0.0129  0.1334
  766POPS   C1A10329  17.068   0.911   6.423  0.0610 -0.0932 -0.1090
  766POPS   D2A10330  17.034   1.127   6.723  0.0790 -0.1758 -0.3914
  766POPS   C3A10331  17.063   1.230   7.052 -0.2040 -0.2155  0.2081
  766POPS   C4A10332  17.002   1.403   7.535  0.0857  0.0921 -0.1463
  766POPS   C1B10333  17.460   1.266   6.418  0.3988 -0.2142 -0.3267
  766POPS   C2B10334  17.569   1.336   6.859 -0.0490 -0.0049 -0.2420
  766POPS   C3B10335  17.838   1.394   7.126 -0.2435  0.3409 -0.1064
  766POPS   C4B10336  18.030   1.254   7.557 -0.0575 -0.2566  0.1146
  767POPS   CNO10337  12.062  12.816   5.481 -0.1819  0.3364 -0.0641
  767POPS   PO410338  12.400  12.940   5.633 -0.2126  0.0956  0.2550
  767POPS   GL110339  12.273  12.755   6.095  0.0232  0.0667 -0.0560
  767POPS   GL210340  12.463  12.494   6.175 -0.0883  0.0760  0.1921
  767POPS   C1A10341  12.371  12.813   6.577  0.2585  0.0856  0.0444
  767POPS   D2A10342  12.509  12.843   6.912 -0.1460 -0.3168 -0.2645
  767POPS   C3A10343  12.297  13.097   7.202  0.0296 -0.1378 -0.1172
  767POPS   C4A10344  12.196  13.445   7.563  0.2350  0.1107  0.1237
  767POPS   C1B10345  12.145  12.385   6.460  0.1648 -0.0227 -0.1041
  767POPS   C2B10346  12.148  12.443   6.809 -0.0292 -0.0363 -0.2256
  767POPS   C3B10347  12.328  12.445   7.248 -0.0218  0.1186  0.1579
  767POPS   C4B10348  12.475  12.312   7.605 -0.2150  0.3658  0.0662
  768POPS   CNO10349   8.979   4.940   5.878 -0.0273  0.0988 -0.0747
  768POPS   PO410350   9.289   4.767   6.002  0.1185  0.0279  0.0702
  768POPS   GL110351   9.297   4.630   6.418 -0.2255 -0.1889 -0.0814
  768POPS   GL210352   9.055   4.380   6.588 -0.2953 -0.1174  0.0534
  768POPS   C1A10353   9.435   4.565   6.866  0.1335  0.0343  0.2230
  768POPS   D2A10354   9.298   4.687   7.359  0.0133 -0.0382 -0.0804
  768POPS   C3A10355   9.501   4.581   7.690 -0.2740  0.0529  0.0967
  768POPS   C4A10356   9.829   4.447   7.942  0.0112  0.0603 -0.2598
  768POPS   C1B10357   9.062   4.235   7.072 -0.0266  0.4022 -0.1605
  768POPS   C2B10358   9.067   4.208   7.519  0.2174  0.0058  0.0027
  768POPS   C3B10359   9.259   4.144   7.879 -0.0603 -0.1124  0.1135
  768POPS   C4B10360   9.553   3.930   8.076  0.0228 -0.1738  0.2503
  769POPS   CNO10361   0.235   3.099   5.480 -0.0015  0.0375  0.2781
  769POPS   PO410362  -0.022   3.446   5.564 -0.2736 -0.3528  0.0833
  769POPS   GL110363  -0.009   3.239   5.924 -0.0082  0.1480  0.0731
  769POPS   GL210364  -0.271   3.001   6.034 -0.0865 -0.1270  0.2920
  769POPS   C1A10365  -0.020   3.236   6.352 -0.1801  0.0210 -0.3476
  769POPS   D2A10366  -0.009   3.365   6.833 -0.0903 -0.1863 -0.3314
  769POPS   C3A10367   0.112   3.300   7.323 -0.0259 -0.0058  0.1945
  769POPS   C4A10368   0.117   3.468   7.691 -0.1713 -0.1187  0.1298
  769POPS   C1B10369   0.011   2.791   6.331 -0.1625  0.3527 -0.1344
  769POPS   C2B10370   0.030   2.815   6.756 -0.1212 -0.0101  0.2244
  769POPS   C3B10371   0.142   2.754   7.243 -0.1960 -0.0391 -0.2992
  769POPS   C4B10372   0.005   2.728   7.654 -0.0159 -0.2402 -0.2014
  770POPS   CNO10373  17.895   5.076   5.958 -0.0345 -0.2052 -0.3162
  770POPS   PO410374  17.709   4.681   5.825  0.1650 -0.1156 -0.0454
  770POPS   GL110375  17.653   4.600   6.269 -0.1398 -0.2364 -0.0800
  770POPS   GL210376  17.902   4.733   6.417 -0.0859 -0.0419  0.1706
  770POPS   C1A10377  17.487   4.396   6.574  0.1452  0.0100  0.2118
  770POPS   D2A10378  17.404   4.021   6.828  0.0876 -0.1851  0.1003
  770POPS   C3A10379  17.471   4.034   7.270 -0.0590  0.0316  0.0117
  770POPS   C4A10380  17.536   4.110   7.790 -0.1243  0.0231 -0.1506
  770POPS   C1B10381  17.933   4.766   6.776  0.3060 -0.2046  0.1827
  770POPS   C2B10382  17.743   4.862   7.192  0.1715  0.0797  0.0546
  770POPS   C3B10383  17.785   5.144   7.613 -0.2111  0.4033 -0.1839
  770POPS   C4B10384  17.475   5.267   7.818 -0.1379  0.1370  0.0916
  771POPS   CNO10385   9.935   7.319   5.814 -0.2023 -0.1742 -0.0688
  771POPS   PO410386  10.082   7.737   5.832 -0.1812  0.2960  0.1972
  771POPS   GL110387  10.146   7.867   6.228 -0.5155 -0.3403  0.0843
  771POPS   GL210388   9.902   7.948   6.413 -0.1798  0.4748  0.0423
  771POPS   C1A10389  10.321   8.096   6.643  0.1519  0.1365  0.1893
  771POPS   D2A10390  10.493   8.352   6.954  0.1429 -0.0853  0.3520
  771POPS   C3A10391  10.529   8.229   7.365  0.0704  0.0259 -0.0702
  771POPS   C4A10392  10.216   8.138   7.662  0.2915 -0.0988  0.1567
  771POPS   C1B10393   9.835   7.878   6.780  0.0520 -0.0758 -0.1087
  771POPS   C2B10394   9.769   7.809   7.226  0.1219  0.0686  0.0244
  771POPS   C3B10395   9.856   7.719   7.661  0.1011  0.0546 -0.2384
  771POPS   C4B10396  10.235   7.689   7.900 -0.1360  0.1326 -0.2571
  772POPS   CNO10397  18.026   2.164   5.720 -0.1071 -0.1256  0.1995
  772POPS   PO410398  18.359   2.219   5.449 -0.0341 -0.0220  0.1846
  772POPS   GL110399  18.550   2.226   5.885 -0.1746  0.0020  0.2692
  772POPS   GL210400  18.803   2.230   6.007 -0.0420  0.0880 -0.0393
  772POPS   C1A10401  18.406   1.974   6.233 -0.1617 -0.0277 -0.1341
  772POPS   D2A10402  18.267   1.777   6.536  0.0056 -0.0108 -0.0516
  772POPS   C3A10403  18.458   1.783   6.939  0.2680  0.1029  0.1890
  772POPS   C4A10404  18.566   1.765   7.361 -0.2754  0.0827  0.1038
  772POPS   C1B10405  18.539   2.509   6.320 -0.0578  0.1068 -0.0244
  772POPS   C2B10406  18.597   2.613   6.754  0.1475 -0.0098  0.1523
  772POPS   C3B10407  18.734   2.657   7.183  0.0116  0.1064 -0.0437
  772POPS   C4B10408  18.908   2.659   7.658 -0.1749  0.2569  0.2723
  773POPS   CNO10409   4.910   2.734   5.537 -0.0151  0.2006  0.0951
  773POPS   PO410410   5.355   2.701   5.594 -0.0523 -0.1529  0.4776
  773POPS   GL110411   5.343   2.742   6.067  0.0757 -0.5101 -0.1237
  773POPS   GL210412   5.332   2.979   6.242 -0.0997  0.1850  0.3090
  773POPS   C1A10413   5.253   2.519   6.514 -0.0377  0.1848 -0.0163
  773POPS   D2A10414   4.922   2.585   6.836 -0.1596 -0.0780  0.1224
  773POPS   C3A10415   4.935   2.506   7.196 -0.1013  0.1532 -0.2204
  773POPS   C4A10416   5.022   2.699   7.519 -0.1281  0.0685 -0.1725
  773POPS   C1B10417   5.414   2.905   6.746  0.3414 -0.0461  0.2695
  773POPS   C2B10418   5.445   2.790   7.236 -0.0222 -0.3328 -0.3296
  773POPS   C3B10419   5.521   2.902   7.667 -0.0973  0.0118  0.0860
  773POPS   C4B10420   5.549   2.695   8.036 -0.0104  0.1433  0.0108
  774POPS   CNO10421  13.541   9.063   5.839  0.2089  0.0316  0.0045
  774POPS   PO410422  13.454   9.237   6.154  0.2152 -0.3226  0.0248
  774POPS   GL110423  13.383   8.967   6.453 -0.0859  0.0208  0.0651
  774POPS   GL210424  13.201   8.602   6.448  0.2213  0.2148 -0.2897
  774POPS   C1A10425  13.572   8.874   6.814  0.0556 -0.0532  0.1117
  774POPS   D2A10426  13.790   8.725   7.196 -0.0432  0.0790 -0.0023
  774POPS   C3A10427  13.684   8.855   7.589  0.1296  0.0364  0.0127
  774POPS   C4A10428  13.494   9.004   8.037  0.1499 -0.2469 -0.3906
  774POPS   C1B10429  13.152   8.665   6.868  0.3544  0.0848  0.1829
  774POPS   C2B10430  13.297   8.768   7.289  0.1386  0.3153 -0.0620
  774POPS   C3B10431  13.181   8.798   7.761 -0.2001 -0.3411  0.4342
  774POPS   C4B10432  13.033   8.951   8.194  0.0674  0.1193  0.0488
  775POPS   CNO10433   9.838   6.898   5.595 -0.1091  0.0960 -0.2477
  775POPS   PO410434  10.200   6.875   5.858  0.0434  0.2576 -0.2353
  775POPS   GL110435  10.252   6.643   6.250  0.2630 -0.2193  0.0570
  775POPS   GL210436  10.398   6.809   6.449  0.1322 -0.0013 -0.0249
  775POPS   C1A10437   9.978   6.475   6.605 -0.0484  0.1601  0.0322
  775POPS   D2A10438  10.044   6.425   7.032  0.0463 -0.2048  0.0612
  775POPS   C3A10439  10.015   6.676   7.324 -0.0586  0.0494  0.0240
  775POPS   C4A10440  10.254   6.768   7.640  0.0956 -0.3305 -0.1196
  775POPS   C1B10441  10.320   6.777   6.780  0.0563 -0.1373 -0.3036
  775POPS   C2B10442  10.416   6.900   7.187  0.0067 -0.0686  0.2370
  775POPS   C3B10443  10.622   7.243   7.410  0.1332  0.0032  0.0178
  775POPS   C4B10444  10.680   7.531   7.822 -0.0702  0.2401 -0.1044
  776POPS   CNO10445   2.038   2.950   5.368 -0.4045  0.0257  0.0308
  776POPS   PO410446   2.160   3.009   5.861 -0.0918 -0.2411 -0.0473
  776POPS   GL110447   1.982   2.755   6.136 -0.0032 -0.1984 -0.1186
  776POPS   GL210448   1.811   2.438   6.053 -0.2108 -0.2920 -0.0171
  776POPS   C1A10449   2.001   2.802   6.573 -0.2588 -0.1576 -0.1035
  776POPS   D2A10450   2.135   3.198   6.891  0.1030  0.1106 -0.0147
  776POPS   C3A10451   2.058   3.080   7.296 -0.1709  0.1685 -0.1659
  776POPS   C4A10452   2.168   2.719   7.561 -0.1054 -0.0589 -0.2767
  776POPS   C1B10453   1.813   2.355   6.441  0.2579  0.3278  0.4147
  776POPS   C2B10454   1.696   2.198   6.793  0.3119 -0.0874 -0.0583
  776POPS   C3B10455   1.766   2.206   7.231 -0.4332 -0.1170 -0.0407
  776POPS   C4B10456   1.792   1.812   7.531 -0.1339 -0.0245 -0.1451
  777POPS   CNO10457   6.739   6.405   5.698  0.1924 -0.0299  0.1649
  777POPS   PO410458   6.637   5.981   5.709 -0.5454  0.1607 -0.0236
  777POPS   GL110459   6.725   6.145   6.125 -0.0595 -0.1508  0.1405
  777POPS   GL210460   6.898   5.983   6.199 -0.2631 -0.1562  0.2134
  777POPS   C1A10461   7.109   6.381   6.410 -0.1384 -0.0610 -0.4034
  777POPS   D2A10462   7.375   6.202   6.656 -0.1076  0.3064 -0.1875
  777POPS   C3A10463   7.285   5.755   6.877  0.1763  0.2319 -0.1397
  777POPS   C4A10464   7.470   5.530   7.176 -0.2334 -0.3337 -0.0838
  777POPS   C1B10465   6.824   5.891   6.655 -0.2311 -0.0233  0.1092
  777POPS   C2B10466   6.844   5.884   7.064  0.2632 -0.1012  0.1272
  777POPS   C3B10467   7.066   5.755   7.392 -0.1419  0.0404 -0.2265
  777POPS   C4B10468   7.408   5.782   7.610  0.1815 -0.1025 -0.0891
  778POPS   CNO10469   3.894  16.961   5.072  0.2032  0.0412  0.3822
  778POPS   PO410470   3.958  16.763   5.478 -0.1472  0.0574  0.3542
  778POPS   GL110471   3.997  16.588   5.835  0.0781 -0.1722  0.0884
  778POPS   GL210472   3.696  16.768   5.977 -0.0303  0.1054  0.0170
  778POPS   C1A10473   4.074  16.372   6.228  0.2244 -0.1276  0.0484
  778POPS   D2A10474   3.766  16.418   6.436 -0.1483  0.0506  0.1377
  778POPS   C3A10475   3.802  16.429   6.937 -0.0578 -0.0072 -0.1935
  778POPS   C4A10476   3.720  16.398   7.421  0.0637 -0.2574  0.3705
  778POPS   C1B10477   3.970  16.831   6.309 -0.1004 -0.1560  0.1036
  778POPS   C2B10478   4.109  16.802   6.700  0.1714 -0.3526  0.0831
  778POPS   C3B10479   4.152  16.754   7.089  0.0954  0.0571  0.0459
  778POPS   C4B10480   3.876  16.861   7.429 -0.1164  0.1417  0.1431
  779POPS   CNO10481  10.659   7.267   6.512 -0.1311 -0.1788  0.0140
  779POPS   PO410482  10.893   7.425   6.189  0.3109 -0.3002 -0.0801
  779POPS   GL110483  11.118   7.523   6.511  0.0737  0.3374  0.0627
  779POPS   GL210484  11.399   7.802   6.443 -0.3108  0.3353 -0.1835
  779POPS   C1A10485  11.229   7.467   6.934  0.1526 -0.1914  0.2395
  779POPS   D2A10486  11.124   7.412   7.263  0.0103  0.1028  0.2894
  779POPS   C3A10487  11.149   7.199   7.644 -0.0769 -0.0401 -0.3762
  779POPS   C4A10488  11.478   7.223   7.921  0.3076  0.2312  0.2046
  779POPS   C1B10489  11.449   7.948   6.808 -0.3654 -0.1235  0.0415
  779POPS   C2B10490  11.408   7.811   7.230 -0.1502 -0.1875  0.2135
  779POPS   C3B10491  11.357   7.748   7.647  0.3375 -0.0701 -0.1260
  779POPS   C4B10492  11.040   7.783   8.059  0.1963 -0.1460  0.1908
  780POPS   CNO10493   3.230   0.517   5.640 -0.1667 -0.3162 -0.2079
  780POPS   PO410494   3.375   0.971   5.744  0.0348  0.1974 -0.2292
  780POPS   GL110495   3.300   1.065   6.159  0.1383  0.2818  0.3034
  780POPS   GL210496   2.952   1.133   6.172  0.1132 -0.2194  0.2232
  780POPS   C1A10497   3.241   1.107   6.674 -0.1891  0.1653 -0.2393
  780POPS   D2A10498   3.254   0.785   6.970 -0.2548  0.1863 -0.1221
  780POPS   C3A10499   3.124   0.711   7.412 -0.0349 -0.4561  0.1354
  780POPS   C4A10500   3.185   0.923   7.718  0.0322 -0.3577  0.1883
  780POPS   C1B10501   2.784   0.980   6.480  0.2025  0.0038 -0.2205
  780POPS   C2B10502   2.422   0.933   6.652 -0.1722 -0.1254 -0.0865
  780POPS   C3B10503   2.270   0.772   6.957 -0.3877  0.0373 -0.1052
  780POPS   C4B10504   2.015   0.945   7.364  0.2531 -0.0284 -0.1110
  781POPS   CNO10505   0.877   0.243   5.841 -0.1803 -0.2493  0.3293
  781POPS   PO410506   0.584  -0.051   5.672 -0.1566 -0.0374  0.0440
  781POPS   GL110507   0.452  -0.008   6.083  0.2535  0.1783 -0.3024
  781POPS   GL210508   0.676   0.172   6.307  0.0562 -0.6140 -0.1783
  781POPS   C1A10509   0.366  -0.114   6.537  0.0268  0.0388  0.1069
  781POPS   D2A10510   0.469   0.093   6.910  0.3241  0.2497 -0.0371
  781POPS   C3A10511   0.318  -0.033   7.303  0.2088 -0.0664 -0.2590
  781POPS   C4A10512  -0.037   0.182   7.568 -0.1558 -0.2366  0.0560
  781POPS   C1B10513   0.667   0.488   6.650  0.0213  0.0425  0.1285
  781POPS   C2B10514   0.700   0.487   7.097  0.2150  0.0641 -0.1014
  781POPS   C3B10515   0.908   0.606   7.541 -0.2679 -0.0863  0.1728
  781POPS   C4B10516   0.883   0.359   7.907 -0.0259  0.1681  0.0994
  782POPS   CNO10517   9.028  13.348   6.028 -0.1064  0.0771 -0.1008
  782POPS   PO410518   9.301  13.320   6.295  0.1268  0.0811  0.1605
  782POPS   GL110519   9.056  13.259   6.676  0.5617  0.2814 -0.0025
  782POPS   GL210520   8.812  12.991   6.756  0.2546 -0.1398  0.0126
  782POPS   C1A10521   9.313  13.011   7.106 -0.0088 -0.1287  0.1523
  782POPS   D2A10522   9.582  12.973   7.397 -0.0634  0.4808 -0.0382
  782POPS   C3A10523   9.792  13.007   7.753  0.0745 -0.1104  0.2542
  782POPS   C4A10524   9.802  12.725   8.183 -0.1763 -0.2370  0.2357
  782POPS   C1B10525   8.778  12.890   7.207 -0.2461  0.0901 -0.3183
  782POPS   C2B10526   8.768  12.631   7.545 -0.2841  0.0795  0.3639
  782POPS   C3B10527   8.462  12.388   7.821  0.0619 -0.0699 -0.1078
  782POPS   C4B10528   8.458  11.992   7.912  0.0877 -0.1827  0.1025
  783POPS   CNO10529  17.105   9.327   5.747 -0.2240  0.0443  0.1233
  783POPS   PO410530  17.152   9.466   6.217 -0.1718 -0.0117  0.1083
  783POPS   GL110531  17.030   9.570   6.629 -0.3063 -0.0582 -0.1795
  783POPS   GL210532  16.739   9.737   6.797  0.1365  0.2236  0.1326
  783POPS   C1A10533  17.193   9.489   7.058 -0.0842 -0.1039  0.1821
  783POPS   D2A10534  17.274   9.623   7.444 -0.2726  0.1982 -0.1473
  783POPS   C3A10535  17.410   9.558   7.901 -0.2241 -0.2145 -0.0179
  783POPS   C4A10536  17.717   9.518   8.262  0.2841  0.3657  0.1755
  783POPS   C1B10537  16.811   9.763   7.241 -0.1631 -0.0073  0.3098
  783POPS   C2B10538  16.808   9.783   7.645  0.1871 -0.0860 -0.2036
  783POPS   C3B10539  16.680  10.069   7.892  0.0866  0.1822  0.2114
  783POPS   C4B10540  16.899  10.390   7.932 -0.1916  0.0190  0.0408
  784POPS   CNO10541   4.029   5.197   6.084 -0.0691  0.0321  0.2287
  784POPS   PO410542   4.078   4.816   6.174  0.0595 -0.3114 -0.1058
  784POPS   GL110543   3.996   4.850   6.558  0.2192  0.2576  0.1191
  784POPS   GL210544   4.153   4.522   6.681 -0.1386  0.3048  0.0153
  784POPS   C1A10545   4.102   4.879   6.968 -0.2338 -0.1905  0.0250
  784POPS   D2A10546   4.203   4.915   7.419 -0.2248 -0.1119  0.0224
  784POPS   C3A10547   4.103   5.028   7.728  0.1080 -0.2142 -0.2364
  784POPS   C4A10548   3.766   4.918   7.989 -0.0923 -0.1884  0.0249
  784POPS   C1B10549   4.577   4.712   6.879  0.1486  0.0156  0.1955
  784POPS   C2B10550   4.607   4.710   7.339 -0.0510  0.1040  0.2693
  784POPS   C3B10551   4.728   4.984   7.680 -0.1499  0.0082  0.1875
  784POPS   C4B10552   5.165   4.875   7.812 -0.0578  0.0955  0.0456
  785POPS   CNO10553   1.615   9.464   6.127 -0.0724  0.1865  0.2487
  785POPS   PO410554   2.047   9.259   6.009 -0.0243 -0.0446 -0.0403
  785POPS   GL110555   2.062   9.410   6.399 -0.1796  0.1017 -0.1442
  785POPS   GL210556   1.965   9.702   6.447  0.0529 -0.0672 -0.1031
  785POPS   C1A10557   2.169   9.363   6.807 -0.0569  0.1902  0.0367
  785POPS   D2A10558   2.418   9.451   7.182  0.2955  0.1083 -0.1804
  785POPS   C3A10559   2.283   9.369   7.556  0.0371  0.0431 -0.0080
  785POPS   C4A10560   2.143   9.302   7.934  0.0890 -0.0884 -0.0790
  785POPS   C1B10561   1.919  10.063   6.688 -0.1070  0.2451  0.3656
  785POPS   C2B10562   1.639  10.106   7.107 -0.2779  0.0673  0.1069
  785POPS   C3B10563   1.833  10.349   7.405 -0.1428 -0.2036  0.1622
  785POPS   C4B10564   1.804  10.385   7.908 -0.1632 -0.0252 -0.1090
  786POPS   CNO10565   5.061   9.343   5.684 -0.1701  0.0041 -0.0331
  786POPS   PO410566   4.909   9.635   5.955 -0.1269  0.4353 -0.1597
  786POPS   GL110567   5.112   9.657   6.297  0.0910  0.0570 -0.3452
  786POPS   GL210568   5.436   9.855   6.225  0.1238 -0.0599 -0.1778
  786POPS   C1A10569   5.150   9.809   6.689  0.0194  0.0067 -0.0467
  786POPS   D2A10570   5.223   9.959   7.133 -0.3228  0.1686 -0.0844
  786POPS   C3A10571   5.221   9.651   7.445  0.1033 -0.1042  0.0239
  786POPS   C4A10572   5.077   9.638   7.823 -0.0729 -0.0805  0.0740
  786POPS   C1B10573   5.623  10.055   6.475  0.1710  0.0798  0.3294
  786POPS   C2B10574   5.687  10.084   6.923  0.2136 -0.2288 -0.1999
  786POPS   C3B10575   5.709   9.868   7.255  0.0133 -0.1733  0.0614
  786POPS   C4B10576   5.892   9.765   7.664 -0.1858 -0.1265 -0.0364
  787POPS   CNO10577  15.666   8.855   5.414 -0.0098  0.0988 -0.1229
  787POPS   PO410578  15.809   8.736   5.820 -0.1074 -0.3014  0.0249
  787POPS   GL110579  15.875   8.807   6.245  0.0433  0.3925  0.0717
  787POPS   GL210580  15.750   9.046   6.383  0.0479 -0.0548  0.0498
  787POPS   C1A10581  15.859   8.519   6.697  0.0061 -0.1307  0.3624
  787POPS   D2A10582  15.734   8.650   7.136  0.2084 -0.3254  0.0190
  787POPS   C3A10583  15.842   8.507   7.519  0.0592  0.2274 -0.0129
  787POPS   C4A10584  15.625   8.265   7.880  0.1205  0.0758  0.1486
  787POPS   C1B10585  15.793   9.063   6.889 -0.0272  0.0195 -0.2372
  787POPS   C2B10586  15.705   9.099   7.276  0.1852  0.0252 -0.0162
  787POPS   C3B10587  15.599   8.928   7.571 -0.1149  0.2559 -0.3415
  787POPS   C4B10588  15.596   8.715   8.038  0.0723  0.0475  0.1165
  788POPS   CNO10589  17.059   3.381   5.880  0.3917  0.0204  0.0489
  788POPS   PO410590  17.303   2.983   5.914 -0.0321  0.1506 -0.0091
  788POPS   GL110591  17.329   3.080   6.327  0.0065 -0.1627  0.2624
  788POPS   GL210592  17.064   3.303   6.411  0.0605  0.1705  0.0912
  788POPS   C1A10593  17.691   2.942   6.576 -0.0987  0.3898  0.2922
  788POPS   D2A10594  17.839   3.017   7.097 -0.0903  0.1719  0.1007
  788POPS   C3A10595  17.664   2.707   7.427 -0.2690  0.1717 -0.3033
  788POPS   C4A10596  17.671   2.544   7.835 -0.0505 -0.3187  0.1156
  788POPS   C1B10597  17.188   3.181   6.787 -0.4958  0.1833  0.2261
  788POPS   C2B10598  17.124   3.278   7.159 -0.3082 -0.1401  0.1011
  788POPS   C3B10599  17.354   3.119   7.416 -0.0797 -0.0725 -0.1130
  788POPS   C4B10600  17.737   3.158   7.547 -0.1861  0.4654 -0.2347
  789POPS   CNO10601   8.210  16.574   5.435 -0.0099  0.1928 -0.1712
  789POPS   PO410602   8.396  16.626   5.814  0.1729  0.0392  0.0163
  789POPS   GL110603   8.547  16.524   6.186 -0.4220 -0.1325 -0.0215
  789POPS   GL210604   8.874  16.563   6.298 -0.0514 -0.0094 -0.1753
  789POPS   C1A10605   8.604  16.898   6.540 -0.2640 -0.0360  0.0328
  789POPS   D2A10606   8.716  16.898   7.004 -0.2380 -0.0535 -0.2160
  789POPS   C3A10607   9.043  16.868   7.350  0.2260 -0.1060  0.3642
  789POPS   C4A10608   9.107  16.645   7.695 -0.1228 -0.0032 -0.2983
  789POPS   C1B10609   8.837  16.505   6.742  0.0407  0.3663 -0.0618
  789POPS   C2B10610   8.432  16.484   7.055 -0.1558  0.0216 -0.0300
  789POPS   C3B10611   8.570  16.486   7.584 -0.1854 -0.4230  0.0705
  789POPS   C4B10612   8.685  16.360   7.945  0.0172  0.3448  0.0534
  790POPS   CNO10613  16.301   1.745   5.589 -0.2363 -0.0304  0.0635
  790POPS   PO410614  16.683   1.737   5.659 -0.0290  0.0197  0.1835
  790POPS   GL110615  16.929   1.904   6.034  0.0526 -0.1912 -0.0533
  790POPS   GL210616  17.166   2.138   5.929  0.5008 -0.0130 -0.0210
  790POPS   C1A10617  17.223   1.711   6.184  0.0729  0.0662 -0.1651
  790POPS   D2A10618  17.170   1.582   6.619  0.0695  0.1082 -0.1936
  790POPS   C3A10619  17.302   1.710   6.956 -0.0289  0.3062  0.0239
  790POPS   C4A10620  17.171   1.802   7.280 -0.1243 -0.1634 -0.1600
  790POPS   C1B10621  17.220   2.204   6.434 -0.1107  0.0606  0.0810
  790POPS   C2B10622  17.337   2.242   6.781  0.0833  0.0803 -0.0689
  790POPS   C3B10623  17.491   2.231   7.147  0.1194  0.1997  0.1923
  790POPS   C4B10624  17.304   2.270   7.501  0.1253 -0.2412 -0.0351
  791POPS   CNO10625   5.409  11.539   6.001  0.0939 -0.1784  0.2075
  791POPS   PO410626   5.150  11.857   6.011 -0.2467  0.2064  0.2899
  791POPS   GL110627   5.348  11.970   6.409  0.2155  0.1828 -0.0436
  791POPS   GL210628   5.466  11.709   6.496  0.1971  0.0431 -0.1761
  791POPS   C1A10629   5.489  12.162   6.778 -0.2648 -0.1300 -0.3446
  791POPS   D2A10630   5.347  12.097   7.269 -0.1105  0.2959 -0.1524
  791POPS   C3A10631   5.119  11.882   7.434  0.0474  0.1182  0.3283
  791POPS   C4A10632   4.778  11.929   7.697 -0.2615 -0.1656  0.2069
  791POPS   C1B10633   5.152  11.710   6.916 -0.0309  0.1230 -0.4170
  791POPS   C2B10634   5.346  11.397   7.280  0.0983 -0.0686  0.0369
  791POPS   C3B10635   5.300  11.543   7.741  0.1996  0.0647  0.1728
  791POPS   C4B10636   5.310  12.004   7.902  0.1591  0.1376  0.0860
  792POPS   CNO10637  14.100  12.889   5.913 -0.0649 -0.0969 -0.1606
  792POPS   PO410638  14.138  13.114   6.157 -0.0919 -0.0735  0.3458
  792POPS   GL110639  14.128  12.976   6.483 -0.0088 -0.2548 -0.2228
  792POPS   GL210640  14.425  12.762   6.526 -0.0486  0.2002 -0.0007
  792POPS   C1A10641  13.906  12.976   6.910 -0.0296  0.2062 -0.1101
  792POPS   D2A10642  13.868  12.943   7.364  0.3386 -0.0943  0.2224
  792POPS   C3A10643  13.951  13.318   7.669  0.1986 -0.0422  0.0325
  792POPS   C4A10644  13.973  13.261   8.155  0.0016 -0.1740 -0.0640
  792POPS   C1B10645  14.365  12.716   6.945  0.0472  0.0616  0.0526
  792POPS   C2B10646  14.335  12.835   7.330 -0.0685 -0.0946  0.0318
  792POPS   C3B10647  14.254  12.868   7.739  0.1670 -0.0445  0.2165
  792POPS   C4B10648  14.426  13.169   8.018 -0.1702 -0.2958 -0.2142
  793POPS   CNO10649  11.511  15.724   6.004 -0.1901 -0.0181  0.2192
  793POPS   PO410650  11.636  15.328   6.126 -0.2766  0.0893  0.0377
  793POPS   GL110651  11.301  15.420   6.382  0.1725 -0.0079  0.0728
  793POPS   GL210652  11.494  15.684   6.498  0.0040  0.0575 -0.1842
  793POPS   C1A10653  11.189  15.376   6.754  0.1502  0.0516 -0.0445
  793POPS   D2A10654  11.120  15.066   7.103 -0.3667  0.1497  0.0554
  793POPS   C3A10655  10.840  15.158   7.482  0.0900 -0.1787  0.0418
  793POPS   C4A10656  10.817  15.162   7.857  0.0289  0.1810  0.1960
  793POPS   C1B10657  11.409  15.812   6.897 -0.2787  0.0213 -0.0978
  793POPS   C2B10658  11.372  15.879   7.340  0.1291 -0.3090 -0.0839
  793POPS   C3B10659  11.530  15.977   7.765  0.1065 -0.0566  0.1334
  793POPS   C4B10660  11.523  16.209   8.088 -0.0816 -0.3465 -0.2712
  794POPS   CNO10661   7.621   0.237   6.046  0.1089  0.0080  0.0625
  794POPS   PO410662   7.312  -0.022   6.091  0.1158 -0.1289 -0.0663
  794POPS   GL110663   7.384   0.142   6.512  0.1336 -0.1521 -0.1249
  794POPS   GL210664   7.302   0.420   6.476  0.0761 -0.3179 -0.0436
  794POPS   C1A10665   7.440   0.319   6.969  0.2535  0.1618 -0.0472
  794POPS   D2A10666   7.394   0.451   7.395 -0.0208  0.3539 -0.1902
  794POPS   C3A10667   7.142   0.399   7.720  0.2503  0.0764  0.1530
  794POPS   C4A10668   6.835   0.141   7.772  0.0620  0.2217 -0.0820
  794POPS   C1B10669   7.528   0.718   6.699 -0.2005 -0.2907 -0.0392
  794POPS   C2B10670   7.597   0.745   7.095  0.1348 -0.1675  0.1353
  794POPS   C3B10671   7.813   0.633   7.454 -0.1838  0.1573 -0.4113
  794POPS   C4B10672   7.951   0.701   7.871 -0.0251 -0.2008 -0.0180
  795POPS   CNO10673   4.171   1.157   5.758  0.0635 -0.1565 -0.3663
  795POPS   PO410674   3.917   0.882   5.799  0.1288  0.2741  0.0707
  795POPS   GL110675   3.780   0.871   6.251 -0.0563 -0.1012  0.1819
  795POPS   GL210676   3.925   1.196   6.218  0.1605  0.4648  0.2501
  795POPS   C1A10677   3.520   0.676   6.431  0.2315 -0.0927 -0.1810
  795POPS   D2A10678   3.398   0.338   6.739  0.1134  0.1165  0.0029
  795POPS   C3A10679   3.504   0.396   7.242  0.2166  0.2809  0.0846
  795POPS   C4A10680   3.616   0.698   7.509 -0.2611  0.1076 -0.0859
  795POPS   C1B10681   3.727   1.108   6.647 -0.1009 -0.3361  0.1915
  795POPS   C2B10682   3.770   0.986   7.065 -0.2203  0.0739  0.2261
  795POPS   C3B10683   3.870   1.168   7.429 -0.3097 -0.0621 -0.0993
  795POPS   C4B10684   3.974   1.461   7.729 -0.0209 -0.1351 -0.2632
  796POPS   CNO10685  10.823  12.123   5.420 -0.2925 -0.1169 -0.0651
  796POPS   PO410686  10.439  11.990   5.675  0.1050  0.2279 -0.4232
  796POPS   GL110687  10.286  12.131   6.119  0.3069 -0.1196  0.0442
  796POPS   GL210688  10.352  11.873   6.355 -0.0007 -0.0257  0.0913
  796POPS   C1A10689   9.897  12.089   6.419  0.0035 -0.1794 -0.1627
  796POPS   D2A10690   9.553  12.257   6.496 -0.1614 -0.0144  0.0219
  796POPS   C3A10691   9.457  12.430   6.880  0.0014 -0.0646 -0.1639
  796POPS   C4A10692   9.651  12.458   7.244 -0.1850 -0.0613 -0.0798
  796POPS   C1B10693  10.285  11.907   6.716  0.0473  0.2942 -0.1048
  796POPS   C2B10694  10.438  11.821   7.170  0.2736  0.0216 -0.2912
  796POPS   C3B10695  10.675  11.809   7.621  0.1291  0.2676 -0.0497
  796POPS   C4B10696  10.424  11.898   7.974 -0.4340 -0.0725  0.1180
  797POPS   CNO10697   1.067   5.301   5.646 -0.1890  0.1198  0.0437
  797POPS   PO410698   1.164   5.273   6.059  0.1581  0.1326 -0.0003
  797POPS   GL110699   1.136   5.499   6.441  0.3921 -0.1689 -0.1232
  797POPS   GL210700   1.247   5.881   6.402  0.0529  0.0808 -0.0850
  797POPS   C1A10701   1.183   5.303   6.791 -0.1022  0.0805 -0.1841
  797POPS   D2A10702   1.293   5.241   7.189 -0.0740  0.2895  0.1928
  797POPS   C3A10703   1.240   5.335   7.598 -0.2501  0.1473 -0.2003
  797POPS   C4A10704   1.045   5.226   8.054  0.2253 -0.0762 -0.1197
  797POPS   C1B10705   1.241   5.897   6.854 -0.0696  0.1477  0.0873
  797POPS   C2B10706   1.335   6.059   7.310  0.1719 -0.1010  0.2027
  797POPS   C3B10707   1.261   6.101   7.706  0.0919  0.1011  0.0771
  797POPS   C4B10708   1.164   6.170   8.081 -0.2254 -0.5433 -0.3260
  798POPS   CNO10709  16.382  12.232   6.100  0.1414  0.1426  0.1661
  798POPS   PO410710  16.712  12.523   6.174 -0.3199  0.1253  0.0520
  798POPS   GL110711  16.719  12.348   6.542  0.1379  0.1237  0.1500
  798POPS   GL210712  16.315  12.395   6.600 -0.1990  0.0266  0.1144
  798POPS   C1A10713  16.781  12.283   7.046 -0.0613 -0.2367  0.0590
  798POPS   D2A10714  16.747  12.071   7.465 -0.0458 -0.0371 -0.0947
  798POPS   C3A10715  16.873  11.763   7.923  0.1985  0.0516  0.0002
  798POPS   C4A10716  16.899  11.339   7.869 -0.0854  0.5038  0.0292
  798POPS   C1B10717  16.317  12.117   6.871 -0.0234 -0.2907 -0.1498
  798POPS   C2B10718  16.411  11.839   7.158  0.1742  0.1259  0.0598
  798POPS   C3B10719  16.288  11.369   7.266 -0.3135 -0.0263  0.1842
  798POPS   C4B10720  16.493  11.131   7.652  0.1248 -0.1407  0.2044
  799POPS   CNO10721   1.513   6.528   5.796  0.1140 -0.0355 -0.2122
  799POPS   PO410722   1.322   6.628   6.228  0.0158 -0.1719 -0.0403
  799POPS   GL110723   1.190   6.792   6.535 -0.0581 -0.1350 -0.1169
  799POPS   GL210724   1.399   6.958   6.678 -0.0469 -0.0345  0.1165
  799POPS   C1A10725   1.285   6.502   6.946 -0.2247 -0.1218 -0.0526
  799POPS   D2A10726   1.435   6.498   7.185  0.1994 -0.1441  0.0514
  799POPS   C3A10727   1.690   6.482   7.507 -0.1223  0.2388  0.2193
  799POPS   C4A10728   2.001   6.598   7.743 -0.1059  0.1933 -0.0321
  799POPS   C1B10729   1.428   7.004   7.065  0.0700 -0.0629  0.0273
  799POPS   C2B10730   1.644   7.100   7.417 -0.0391  0.1693 -0.0319
  799POPS   C3B10731   1.707   6.978   7.851  0.2619 -0.4498  0.0561
  799POPS   C4B10732   1.991   6.845   8.239  0.1212  0.2311  0.0375
  800POPS   CNO10733  14.681   5.039   6.053  0.1982 -0.2103  0.2854
  800POPS   PO410734  14.287   5.340   6.214  0.2056  0.2040 -0.3199
  800POPS   GL110735  14.332   5.047   6.557 -0.1543 -0.0348 -0.0959
  800POPS   GL210736  14.637   4.842   6.588 -0.2875  0.0909  0.3701
  800POPS   C1A10737  14.192   4.989   7.023  0.0882  0.0526  0.0327
  800POPS   D2A10738  14.115   4.928   7.494  0.2411  0.0402  0.0404
  800POPS   C3A10739  14.166   4.616   7.756 -0.2613  0.2603 -0.1572
  800POPS   C4A10740  14.251   4.666   8.144 -0.1705 -0.1736  0.1908
  800POPS   C1B10741  14.617   4.711   7.021 -0.4655 -0.2447 -0.2032
  800POPS   C2B10742  14.582   4.669   7.396 -0.0924  0.1751  0.3174
  800POPS   C3B10743  14.655   4.836   7.811 -0.4151 -0.1426  0.3062
  800POPS   C4B10744  14.948   4.768   8.184  0.1354 -0.2613  0.0135
  801POPS   CNO10745   9.408   1.698   5.843 -0.2801  0.0465 -0.1311
  801POPS   PO410746   9.361   1.363   6.135 -0.0411 -0.0201  0.0717
  801POPS   GL110747   9.571   1.228   6.526  0.0285 -0.0824 -0.2063
  801POPS   GL210748   9.811   1.434   6.581  0.4728 -0.0904  0.2549
  801POPS   C1A10749   9.425   1.184   6.921  0.1154  0.0773 -0.1615
  801POPS   D2A10750   9.391   1.162   7.349 -0.2342 -0.2678  0.0155
  801POPS   C3A10751   9.696   0.920   7.724 -0.1192 -0.2061 -0.0197
  801POPS   C4A10752  10.155   0.838   7.935 -0.1527  0.4294  0.1720
  801POPS   C1B10753   9.927   1.297   6.926 -0.2599 -0.0986 -0.2625
  801POPS   C2B10754   9.769   1.498   7.325 -0.1207 -0.0690  0.0470
  801POPS   C3B10755   9.870   1.730   7.578  0.4294  0.1623 -0.1343
  801POPS   C4B10756   9.993   1.788   7.988  0.0064  0.0339 -0.1048
  802POPS   CNO10757  11.095  10.902   5.635 -0.0815  0.0708  0.3849
  802POPS   PO410758  11.106  10.715   5.981 -0.2205 -0.1272 -0.5228
  802POPS   GL110759  11.135  10.552   6.396 -0.1398 -0.2708  0.0650
  802POPS   GL210760  11.199  10.837   6.602 -0.1713  0.3579 -0.1775
  802POPS   C1A10761  11.088  10.395   6.796 -0.0188  0.3101 -0.0460
  802POPS   D2A10762  10.867  10.313   7.167 -0.1067  0.3569  0.1614
  802POPS   C3A10763  11.211  10.399   7.444 -0.0710 -0.0660  0.0656
  802POPS   C4A10764  11.318  10.546   7.681 -0.1389  0.1967  0.1643
  802POPS   C1B10765  11.234  10.776   7.094 -0.0682  0.1436  0.2300
  802POPS   C2B10766  11.245  10.934   7.436 -0.0670 -0.0477 -0.1577
  802POPS   C3B10767  11.250  11.261   7.866 -0.1060  0.2088 -0.0180
  802POPS   C4B10768  11.094  11.608   8.124  0.1055  0.0373  0.1371
  803POPS   CNO10769   0.197  14.194   6.060  0.1257 -0.4229  0.1260
  803POPS   PO410770   0.051  14.620   6.129  0.2750 -0.0095 -0.1423
  803POPS   GL110771   0.134  14.501   6.542  0.1543 -0.0994 -0.1714
  803POPS   GL210772   0.338  14.281   6.501 -0.1122  0.2179  0.2339
  803POPS   C1A10773   0.091  14.667   6.898 -0.3179 -0.1813  0.1359
  803POPS   D2A10774   0.100  14.867   7.349  0.1715  0.1548  0.1008
  803POPS   C3A10775  -0.167  15.004   7.730  0.2095  0.1321  0.0593
  803POPS   C4A10776  -0.314  15.240   8.030  0.1852  0.1264 -0.1535
  803POPS   C1B10777   0.553  14.316   6.869 -0.0617  0.0425 -0.1124
  803POPS   C2B10778   0.586  14.525   7.214 -0.0580  0.0477  0.0762
  803POPS   C3B10779   0.456  14.663   7.626 -0.0350 -0.4626  0.0652
  803POPS   C4B10780   0.314  14.495   8.044  0.0021  0.0626 -0.0188
  804POPS   CNO10781   3.710   3.392   6.145  0.1312  0.0599 -0.0241
  804POPS   PO410782   3.485   3.093   6.054 -0.1714  0.2205  0.0311
  804POPS   GL110783   3.538   3.045   6.528 -0.2240  0.0320 -0.1239
  804POPS   GL210784   3.398   3.273   6.620 -0.0856 -0.3483 -0.0108
  804POPS   C1A10785   3.551   2.937   6.974  0.2553 -0.1942  0.0915
  804POPS   D2A10786   3.734   2.867   7.351 -0.1408 -0.0795 -0.1611
  804POPS   C3A10787   4.153   2.987   7.519 -0.1234  0.0739  0.0697
  804POPS   C4A10788   4.266   3.199   7.855  0.4278  0.1863  0.1667
  804POPS   C1B10789   3.373   3.397   7.003  0.2097  0.2544 -0.1481
  804POPS   C2B10790   3.352   3.218   7.360 -0.0008  0.0193  0.0055
  804POPS   C3B10791   3.385   2.887   7.668 -0.3631  0.2020 -0.0991
  804POPS   C4B10792   3.404   2.842   8.103 -0.0653  0.0396 -0.2044
  805POPS   CNO10793  11.636   9.772   6.141 -0.3887 -0.0671  0.0097
  805POPS   PO410794  11.892  10.109   6.322  0.3870  0.2740  0.3275
  805POPS   GL110795  12.181  10.385   6.609 -0.0836 -0.0281 -0.0740
  805POPS   GL210796  12.102  10.159   6.853 -0.1477 -0.0572 -0.0778
  805POPS   C1A10797  12.283  10.578   6.995  0.1232 -0.2809 -0.0824
  805POPS   D2A10798  12.149  10.681   7.395  0.0467  0.1334 -0.1062
  805POPS   C3A10799  12.330  10.869   7.731 -0.2019 -0.0068  0.0951
  805POPS   C4A10800  12.415  11.243   7.984  0.0482 -0.1330  0.0211
  805POPS   C1B10801  12.179  10.161   7.304 -0.2283 -0.1890 -0.1411
  805POPS   C2B10802  12.326  10.308   7.747  0.0699  0.1910 -0.0743
  805POPS   C3B10803  12.596  10.432   8.048 -0.2287 -0.4500 -0.1040
  805POPS   C4B10804  12.985  10.514   8.137 -0.1923  0.1799  0.1373
  806POPS   CNO10805  14.041   2.726   5.444  0.0979  0.1812 -0.2866
  806POPS   PO410806  14.236   2.608   5.824  0.1339 -0.1382 -0.0497
  806POPS   GL110807  14.132   2.746   6.285 -0.0024 -0.1108  0.2427
  806POPS   GL210808  13.789   2.682   6.425 -0.0582  0.2283 -0.0376
  806POPS   C1A10809  14.263   2.855   6.692  0.2547 -0.0510 -0.0264
  806POPS   D2A10810  14.662   2.897   6.903  0.1048 -0.0957 -0.3519
  806POPS   C3A10811  14.773   2.636   7.282  0.2073 -0.2506  0.0594
  806POPS   C4A10812  14.930   2.473   7.665  0.0611  0.0349 -0.0533
  806POPS   C1B10813  13.889   2.508   6.888 -0.2345  0.0801 -0.1093
  806POPS   C2B10814  13.937   2.530   7.357 -0.2032  0.2737  0.0898
  806POPS   C3B10815  13.943   2.483   7.707 -0.0254 -0.1601  0.1042
  806POPS   C4B10816  14.133   2.066   7.906  0.0603  0.2010 -0.0162
  807POPS   CNO10817  17.629   0.052   5.812  0.0525  0.0010 -0.0871
  807POPS   PO410818  17.257   0.101   6.052  0.0623  0.1366  0.1122
  807POPS   GL110819  17.496   0.293   6.292  0.0809 -0.0695 -0.3262
  807POPS   GL210820  17.474   0.603   6.359  0.1898 -0.1772 -0.2107
  807POPS   C1A10821  17.579   0.374   6.793 -0.1287  0.0585 -0.2007
  807POPS   D2A10822  17.448   0.169   7.124  0.0653 -0.1297  0.0265
  807POPS   C3A10823  17.397   0.340   7.485  0.3882  0.1282  0.2505
  807POPS   C4A10824  17.358   0.172   7.886 -0.1325 -0.0180  0.2943
  807POPS   C1B10825  17.461   0.840   6.776  0.2031 -0.0710  0.4102
  807POPS   C2B10826  17.523   0.932   7.168  0.0032  0.1404 -0.0014
  807POPS   C3B10827  17.429   1.350   7.393 -0.0383  0.0639 -0.1796
  807POPS   C4B10828  17.633   1.788   7.390  0.3188  0.1475  0.0769
  808POPS   CNO10829  15.228  14.595   5.358 -0.0388  0.0227  0.1645
  808POPS   PO410830  15.500  14.744   5.646 -0.2311 -0.0380 -0.0016
  808POPS   GL110831  15.532  14.712   6.031 -0.0986 -0.0596 -0.1438
  808POPS   GL210832  15.636  14.981   6.247  0.0002 -0.0043  0.2256
  808POPS   C1A10833  15.217  14.735   6.377  0.0951  0.0091  0.2231
  808POPS   D2A10834  14.944  14.751   6.787  0.0531  0.1569 -0.1733
  808POPS   C3A10835  15.127  14.739   7.166  0.1005 -0.0154 -0.1739
  808POPS   C4A10836  15.005  14.634   7.546 -0.4722  0.3139 -0.2633
  808POPS   C1B10837  15.450  15.203   6.536  0.3870 -0.3620  0.1637
  808POPS   C2B10838  15.169  15.178   6.908 -0.0253 -0.1822 -0.2062
  808POPS   C3B10839  14.983  15.173   7.371  0.2992  0.0255 -0.2253
  808POPS   C4B10840  15.115  15.129   7.738  0.1124 -0.2512  0.1930
  809POPS   CNO10841  13.068  14.674   5.218  0.3544  0.0404  0.1251
  809POPS   PO410842  13.198  15.076   5.557  0.3219 -0.1646 -0.0431
  809POPS   GL110843  13.092  15.084   6.065 -0.1497 -0.0968  0.1820
  809POPS   GL210844  13.183  14.839   6.253 -0.2547 -0.0822  0.0789
  809POPS   C1A10845  12.992  15.333   6.449 -0.1125 -0.0657 -0.2435
  809POPS   D2A10846  13.083  15.668   6.895 -0.0745  0.0942  0.0995
  809POPS   C3A10847  12.974  15.693   7.288 -0.1170  0.2559  0.0668
  809POPS   C4A10848  12.936  15.394   7.612  0.2069 -0.2633 -0.0346
  809POPS   C1B10849  13.010  14.810   6.705  0.0648 -0.0590 -0.0041
  809POPS   C2B10850  12.987  14.580   7.105  0.3877 -0.1792  0.0773
  809POPS   C3B10851  12.973  14.515   7.587  0.1888  0.0278 -0.2459
  809POPS   C4B10852  12.906  14.172   7.972  0.2918 -0.0779  0.0028
  810POPS   CNO10853  11.555  17.738   5.532  0.0666 -0.0912  0.3132
  810POPS   PO410854  11.629  17.267   5.458 -0.3253  0.0102  0.1149
  810POPS   GL110855  11.579  17.435   5.934 -0.0306  0.2849  0.0747
  810POPS   GL210856  11.824  17.546   6.132  0.2584  0.0893 -0.2218
  810POPS   C1A10857  11.385  17.561   6.348 -0.2846 -0.3351  0.0845
  810POPS   D2A10858  11.456  17.593   6.787 -0.0077 -0.1435 -0.0623
  810POPS   C3A10859  11.442  17.657   7.204 -0.1600 -0.0651 -0.2354
  810POPS   C4A10860  11.367  17.588   7.671  0.0582  0.0986  0.1808
  810POPS   C1B10861  11.927  17.688   6.584  0.0500 -0.0855  0.1945
  810POPS   C2B10862  11.967  17.723   7.042 -0.1309 -0.1449  0.0536
  810POPS   C3B10863  12.117  17.922   7.343  0.2948  0.0602 -0.1489
  810POPS   C4B10864  12.180  18.318   7.595  0.1448  0.2990 -0.0323
  811POPS   CNO10865   7.138  10.171   5.611 -0.3888  0.0688  0.0599
  811POPS   PO410866   7.445   9.959   5.902 -0.0094  0.0454  0.2330
  811POPS   GL110867   7.311   9.813   6.306 -0.2499 -0.0415 -0.2058
  811POPS   GL210868   7.443   9.534   6.392 -0.1826  0.2494 -0.0903
  811POPS   C1A10869   7.236   9.872   6.767 -0.0227  0.1082 -0.2298
  811POPS   D2A10870   7.344   9.890   7.187 -0.1555  0.0760 -0.1230
  811POPS   C3A10871   7.289   9.689   7.608 -0.0334  0.0903 -0.2315
  811POPS   C4A10872   7.580   9.786   7.975  0.2587 -0.0866 -0.0390
  811POPS   C1B10873   7.353   9.429   6.826  0.0104 -0.0345 -0.2051
  811POPS   C2B10874   7.199   9.367   7.277  0.3138 -0.1220 -0.0860
  811POPS   C3B10875   7.171   9.204   7.749  0.0561 -0.0716  0.2505
  811POPS   C4B10876   7.089   9.114   8.087 -0.0372 -0.2243  0.0662
  812YOPS   CNO10877  17.599  13.090   5.718 -0.1343  0.0613 -0.3343
  812YOPS   PO410878  17.325  13.122   6.137 -0.0058 -0.1366  0.0469
  812YOPS   GL110879  17.212  12.865   6.397 -0.1003  0.0791 -0.0646
  812YOPS   GL210880  17.548  12.602   6.553 -0.3672  0.3037  0.1456
  812YOPS   C1A10881  17.021  12.708   6.754 -0.0009 -0.0002  0.1261
  812YOPS   D2A10882  16.889  12.732   7.091 -0.3926 -0.2343  0.0728
  812YOPS   C3A10883  16.604  12.763   7.510 -0.3004 -0.1910 -0.0110
  812YOPS   C4A10884  16.271  12.819   7.891  0.1475 -0.1906  0.0028
  812YOPS   C1B10885  17.858  12.631   6.876  0.2261 -0.1179  0.3092
  812YOPS   C2B10886  17.720  12.542   7.285  0.1259  0.1348  0.2041
  812YOPS   D3B10887  17.547  12.503   7.740 -0.0325  0.3259  0.0418
  812YOPS   C4B10888  17.230  12.096   7.883  0.1133  0.1991 -0.0334
  813YOPS   CNO10889  12.175   6.885   6.165  0.1178 -0.2142  0.1347
  813YOPS   PO410890  12.495   7.081   6.075 -0.0049  0.1241  0.0070
  813YOPS   GL110891  12.693   7.014   6.440  0.1013  0.0489  0.2048
  813YOPS   GL210892  12.661   7.373   6.576 -0.1266  0.1314 -0.1232
  813YOPS   C1A10893  12.594   6.930   6.885  0.0946 -0.1779 -0.0796
  813YOPS   D2A10894  12.644   6.887   7.291 -0.0311 -0.1954  0.3137
  813YOPS   C3A10895  12.636   6.762   7.699 -0.0942  0.0103  0.0982
  813YOPS   C4A10896  12.958   6.473   7.970  0.1124 -0.0669 -0.2591
  813YOPS   C1B10897  12.648   7.362   7.039  0.1708  0.0217  0.1380
  813YOPS   C2B10898  12.592   7.401   7.476  0.2498  0.1463 -0.2077
  813YOPS   D3B10899  12.378   7.175   7.807  0.1251  0.0384  0.3259
  813YOPS   C4B10900  12.139   7.264   8.168 -0.3128 -0.0021 -0.2874
  814YOPS   CNO10901   4.943   5.766   5.617 -0.1696  0.1346  0.0909
  814YOPS   PO410902   4.715   5.643   5.994  0.0887  0.1192  0.0416
  814YOPS   GL110903   4.447   5.482   6.440  0.0228  0.1974 -0.0570
  814YOPS   GL210904   4.447   5.180   6.534 -0.0169 -0.2339 -0.1639
  814YOPS   C1A10905   4.345   5.679   6.835  0.0150  0.3259  0.2074
  814YOPS   D2A10906   4.481   5.820   7.183  0.2532 -0.0113  0.0694
  814YOPS   C3A10907   4.393   5.986   7.547 -0.2560 -0.0154  0.2819
  814YOPS   C4A10908   4.709   5.691   7.766 -0.2695 -0.1981 -0.1468
  814YOPS   C1B10909   4.491   5.256   6.998 -0.3315  0.2804  0.2960
  814YOPS   C2B10910   4.502   5.352   7.456 -0.2168  0.0592  0.0719
  814YOPS   D3B10911   4.467   5.237   7.995 -0.1380  0.2428 -0.0726
  814YOPS   C4B10912   4.086   5.248   8.202 -0.2465  0.3513  0.1654
  815YOPS   CNO10913  12.859   6.205   6.014  0.1423  0.3448  0.0569
  815YOPS   PO410914  13.315   6.240   6.125 -0.1599  0.0564  0.0690
  815YOPS   GL110915  13.435   6.338   6.561 -0.2111  0.1631  0.3439
  815YOPS   GL210916  13.446   6.636   6.654  0.1818 -0.1880  0.0146
  815YOPS   C1A10917  13.479   6.296   6.966  0.0449  0.1373 -0.0882
  815YOPS   D2A10918  13.475   6.270   7.420 -0.0071 -0.2072  0.1006
  815YOPS   C3A10919  13.348   6.198   7.791  0.1433 -0.4207 -0.0611
  815YOPS   C4A10920  13.350   6.306   8.265 -0.3673  0.0783 -0.1430
  815YOPS   C1B10921  13.342   6.712   7.175  0.2393 -0.3283  0.3521
  815YOPS   C2B10922  13.185   6.769   7.545 -0.1093  0.0745 -0.2503
  815YOPS   D3B10923  12.922   7.185   7.757  0.2336  0.0924  0.2611
  815YOPS   C4B10924  12.745   7.456   8.071 -0.0117  0.0059 -0.2677
  816YOPS   CNO10925   2.644   4.239   6.079 -0.1533  0.0777  0.3723
  816YOPS   PO410926   3.096   4.423   6.182 -0.2954 -0.2509  0.0292
  816YOPS   GL110927   3.229   4.684   6.615 -0.0174  0.0538  0.1813
  816YOPS   GL210928   3.226   5.030   6.603  0.4605  0.3877  0.1106
  816YOPS   C1A10929   3.222   4.842   7.036 -0.2371 -0.0371  0.1455
  816YOPS   D2A10930   3.334   4.849   7.538  0.1276 -0.1700  0.2611
  816YOPS   C3A10931   3.352   5.252   7.772  0.2684  0.2660  0.1945
  816YOPS   C4A10932   2.992   5.603   7.696  0.1152 -0.5056  0.2464
  816YOPS   C1B10933   3.308   5.425   6.778 -0.0453 -0.0951  0.0531
  816YOPS   C2B10934   3.286   5.881   6.749 -0.0490 -0.3615  0.1603
  816YOPS   D3B10935   3.097   6.271   6.951 -0.1276 -0.0595 -0.4233
  816YOPS   C4B10936   2.940   6.276   7.287  0.0675 -0.0482 -0.0257
  817YOPS   CNO10937  17.134   5.959   5.419  0.1243 -0.0189  0.1285
  817YOPS   PO410938  17.139   5.751   5.736  0.2903  0.0410 -0.0803
  817YOPS   GL110939  16.882   5.858   6.127 -0.0040 -0.2136  0.0520
  817YOPS   GL210940  17.010   5.754   6.416 -0.2678 -0.3069  0.0568
  817YOPS   C1A10941  16.484   5.790   6.434 -0.0065  0.1861  0.1519
  817YOPS   D2A10942  16.137   5.552   6.616 -0.0126 -0.1932  0.2562
  817YOPS   C3A10943  15.989   5.621   7.016 -0.2995 -0.1096  0.1812
  817YOPS   C4A10944  15.771   5.395   7.221 -0.0519  0.0459  0.2550
  817YOPS   C1B10945  16.888   5.923   6.765 -0.1867  0.1739 -0.1383
  817YOPS   C2B10946  16.837   5.873   7.145  0.3620 -0.1077  0.1777
  817YOPS   D3B10947  16.885   6.133   7.525 -0.2198 -0.0473  0.0909
  817YOPS   C4B10948  16.912   6.011   7.961  0.0678  0.2358 -0.1303
  818YOPS   CNO10949   5.435   9.039   5.942 -0.1953 -0.2448  0.0642
  818YOPS   PO410950   5.543   9.407   6.012  0.0963  0.1314  0.0983
  818YOPS   GL110951   5.537   9.370   6.392  0.0161 -0.3638 -0.0179
  818YOPS   GL210952   5.800   9.210   6.482  0.1327 -0.0758  0.1057
  818YOPS   C1A10953   5.640   9.516   6.809  0.0480 -0.2450 -0.3264
  818YOPS   D2A10954   5.578   9.383   7.249  0.0522 -0.3441 -0.1256
  818YOPS   C3A10955   5.293   9.133   7.639  0.1025  0.0933 -0.1253
  818YOPS   C4A10956   4.794   9.200   7.839  0.3463  0.1389  0.0222
  818YOPS   C1B10957   6.035   9.208   6.916 -0.0213 -0.4209  0.1467
  818YOPS   C2B10958   6.081   9.166   7.405 -0.0355 -0.1521 -0.0952
  818YOPS   D3B10959   6.242   9.415   7.698 -0.2737  0.0428  0.1932
  818YOPS   C4B10960   6.122   9.106   7.924 -0.0955  0.2257 -0.1960
  819YOPS   CNO10961   9.970  14.318   5.588  0.1451  0.1067 -0.3030
  819YOPS   PO410962  10.188  14.311   5.955  0.1961  0.0239 -0.0574
  819YOPS   GL110963  10.021  14.240   6.368 -0.0625 -0.1437  0.1145
  819YOPS   GL210964  10.272  13.967   6.529  0.0093 -0.2886 -0.1790
  819YOPS   C1A10965   9.940  14.382   6.775  0.1426 -0.0343 -0.0747
  819YOPS   D2A10966   9.891  14.562   7.169  0.1239  0.1296  0.0137
  819YOPS   C3A10967   9.666  14.544   7.504 -0.2073  0.1311 -0.1633
  819YOPS   C4A10968   9.373  14.791   7.596  0.3319  0.1831  0.0531
  819YOPS   C1B10969  10.627  13.965   6.791 -0.0014  0.0037 -0.2053
  819YOPS   C2B10970  10.671  14.214   7.198  0.2136  0.3416 -0.0828
  819YOPS   D3B10971  10.828  14.435   7.490 -0.1274 -0.0779 -0.1721
  819YOPS   C4B10972  10.625  14.705   7.729  0.1187  0.1342 -0.0997
  820YOPS   CNO10973  14.924  17.165   5.544 -0.1148 -0.4470  0.0299
  820YOPS   PO410974  15.378  17.293   5.448 -0.2200  0.2454 -0.0564
  820YOPS   GL110975  15.318  17.233   5.838 -0.5392 -0.0687 -0.0925
  820YOPS   GL210976  15.496  17.270   6.038 -0.1575 -0.0602  0.0276
  820YOPS   C1A10977  15.021  16.977   6.151  0.2311 -0.1009  0.1362
  820YOPS   D2A10978  14.803  17.070   6.494  0.0300 -0.1287 -0.0025
  820YOPS   C3A10979  14.563  16.966   6.797 -0.0384  0.0233 -0.0816
  820YOPS   C4A10980  14.089  17.045   6.544  0.1281 -0.1321 -0.1226
  820YOPS   C1B10981  15.317  17.305   6.445 -0.1783  0.2819  0.0151
  820YOPS   C2B10982  14.871  17.469   6.775 -0.0657  0.0382 -0.0908
  820YOPS   D3B10983  14.848  17.280   7.169 -0.1214 -0.2436  0.1325
  820YOPS   C4B10984  14.792  17.536   7.504 -0.1812 -0.0298 -0.1160
  821YOPS   CNO10985   8.217   2.827   6.130 -0.1348  0.1766 -0.1374
  821YOPS   PO410986   8.628   2.893   5.918 -0.1251 -0.0918  0.1769
  821YOPS   GL110987   8.747   2.844   6.300 -0.2428 -0.1696 -0.1241
  821YOPS   GL210988   8.516   2.976   6.503  0.3105  0.0598  0.1740
  821YOPS   C1A10989   9.099   2.807   6.641  0.0722 -0.1261 -0.0720
  821YOPS   D2A10990   9.083   2.730   7.110  0.0537 -0.0280 -0.2094
  821YOPS   C3A10991   9.097   2.870   7.479  0.0268  0.0460 -0.1120
  821YOPS   C4A10992   9.293   3.249   7.786  0.2056  0.2381 -0.1493
  821YOPS   C1B10993   8.293   3.111   6.880  0.1329 -0.0333  0.3218
  821YOPS   C2B10994   7.933   3.243   7.100 -0.2191  0.0359  0.2190
  821YOPS   D3B10995   7.605   3.175   7.320  0.2532 -0.0287 -0.2636
  821YOPS   C4B10996   7.472   2.779   7.412  0.3331 -0.0903 -0.2127
  822YOPS   CNO10997   9.906  15.322   5.664 -0.1363 -0.1162  0.1809
  822YOPS   PO410998   9.609  15.157   5.756 -0.0113 -0.0993 -0.0533
  822YOPS   GL110999   9.671  15.169   6.189  0.0229 -0.0593  0.1387
  822YOPS   GL211000   9.741  15.588   6.257  0.1347  0.3342 -0.2617
  822YOPS   C1A11001   9.761  15.134   6.533  0.0529  0.2874 -0.0034
  822YOPS   D2A11002   9.853  15.462   6.847 -0.1904 -0.1316 -0.0510
  822YOPS   C3A11003   9.878  15.474   7.292 -0.1158  0.0535 -0.0345
  822YOPS   C4A11004   9.647  15.814   7.456 -0.1130 -0.0656 -0.2162
  822YOPS   C1B11005   9.655  15.835   6.526 -0.1956  0.0169 -0.0547
  822YOPS   C2B11006   9.761  15.985   6.987  0.1590 -0.2121 -0.0743
  822YOPS   D3B11007   9.749  16.247   7.321 -0.0368 -0.0026 -0.1382
  822YOPS   C4B11008   9.352  16.206   7.499  0.3674  0.1700 -0.2963
  823YOPS   CNO11009   7.560   7.484   5.539 -0.1026  0.2245  0.2994
  823YOPS   PO411010   7.484   7.207   5.907  0.3917 -0.2340 -0.3899
  823YOPS   GL111011   7.631   7.156   6.332 -0.1638  0.2889 -0.0039
  823YOPS   GL211012   7.923   7.241   6.316 -0.0810  0.2095  0.3283
  823YOPS   C1A11013   7.434   7.178   6.716  0.1411 -0.0645  0.3056
  823YOPS   D2A11014   7.329   7.136   7.154 -0.0726 -0.0276  0.2514
  823YOPS   C3A11015   7.157   6.954   7.571 -0.2659 -0.1120  0.2015
  823YOPS   C4A11016   6.816   6.701   7.566  0.0778 -0.0013  0.1182
  823YOPS   C1B11017   8.086   7.514   6.620 -0.0849  0.0870  0.0210
  823YOPS   C2B11018   8.172   7.605   7.073 -0.0464  0.0201  0.1171
  823YOPS   D3B11019   8.146   7.546   7.523 -0.2827 -0.3276  0.0524
  823YOPS   C4B11020   8.519   7.615   7.836  0.0402 -0.0624  0.2664
  824YOPS   CNO11021   5.124  18.095   5.820  0.1030  0.1496 -0.2780
  824YOPS   PO411022   5.120  17.768   5.898 -0.1524  0.0580  0.0026
  824YOPS   GL111023   5.088  17.843   6.283  0.3360 -0.0325  0.1495
  824YOPS   GL211024   4.864  17.657   6.317 -0.0753  0.0801  0.1449
  824YOPS   C1A11025   4.970  18.098   6.639 -0.2147  0.0829  0.3844
  824YOPS   D2A11026   4.646  18.146   6.917 -0.1122 -0.0431  0.2566
  824YOPS   C3A11027   4.263  18.199   7.161  0.2528  0.0730  0.0519
  824YOPS   C4A11028   3.774  18.170   6.977  0.2231  0.0139  0.2455
  824YOPS   C1B11029   4.697  17.553   6.744  0.0182  0.0670 -0.0696
  824YOPS   C2B11030   4.613  17.602   7.182  0.0910  0.0178 -0.0693
  824YOPS   D3B11031   4.827  17.572   7.561 -0.1023 -0.0530  0.0472
  824YOPS   C4B11032   4.890  17.211   7.493 -0.0075 -0.1189 -0.1271
  825YOPS   CNO11033   7.914   1.486   5.868 -0.0443 -0.2849 -0.1613
  825YOPS   PO411034   7.870   1.486   6.232 -0.2811 -0.4207  0.0450
  825YOPS   GL111035   8.112   1.457   6.577  0.2312  0.4545  0.1630
  825YOPS   GL211036   8.028   1.703   6.809 -0.0376 -0.0260  0.1630
  825YOPS   C1A11037   8.380   1.333   6.937  0.1905  0.0724 -0.0666
  825YOPS   D2A11038   8.440   1.258   7.345  0.1916  0.1486 -0.0119
  825YOPS   C3A11039   8.297   1.025   7.655  0.3109 -0.0167 -0.0106
  825YOPS   C4A11040   8.389   0.745   8.093  0.2709 -0.0014  0.0087
  825YOPS   C1B11041   8.120   1.795   7.145  0.1815  0.1847  0.1807
  825YOPS   C2B11042   7.959   1.899   7.594 -0.2221  0.0276 -0.0257
  825YOPS   D3B11043   7.469   1.984   7.810  0.1080  0.3989 -0.0068
  825YOPS   C4B11044   7.421   2.113   8.254 -0.0778  0.2143  0.0338
  826YOPS   CNO11045  12.094  12.182   6.028  0.3596  0.3941  0.0009
  826YOPS   PO411046  11.669  12.139   5.970 -0.0349  0.5164 -0.1818
  826YOPS   GL111047  11.682  12.283   6.331 -0.2883  0.0253 -0.0789
  826YOPS   GL211048  11.408  12.555   6.404 -0.0872 -0.0582  0.2433
  826YOPS   C1A11049  11.640  12.321   6.806  0.1694 -0.1195 -0.1603
  826YOPS   D2A11050  11.766  12.445   7.142 -0.0668  0.2195  0.3539
  826YOPS   C3A11051  11.953  12.470   7.594 -0.1796  0.1058  0.0364
  826YOPS   C4A11052  11.851  12.077   7.888  0.1436  0.0479  0.1189
  826YOPS   C1B11053  11.396  12.768   6.704 -0.0993 -0.2569 -0.0145
  826YOPS   C2B11054  11.451  12.835   7.115 -0.3088  0.0501  0.0467
  826YOPS   D3B11055  11.271  13.169   7.332  0.1435  0.0332 -0.0547
  826YOPS   C4B11056  11.209  13.043   7.799  0.2869  0.2692 -0.0442
  827YOPS   CNO11057   0.059   6.837   5.868 -0.0100 -0.0133 -0.2671
  827YOPS   PO411058  -0.226   6.663   6.216  0.4759 -0.0831 -0.2126
  827YOPS   GL111059   0.092   6.646   6.529  0.0239 -0.1501 -0.2638
  827YOPS   GL211060  -0.087   6.640   6.855  0.0886  0.0009  0.1347
  827YOPS   C1A11061   0.401   6.595   6.930 -0.1680  0.0868  0.2756
  827YOPS   D2A11062   0.467   6.725   7.287 -0.2377  0.2071  0.0536
  827YOPS   C3A11063   0.470   6.796   7.743  0.2487  0.4340  0.0949
  827YOPS   C4A11064   0.221   6.876   7.941 -0.0963 -0.2086 -0.0184
  827YOPS   C1B11065  -0.440   6.570   7.054  0.0611  0.1221 -0.4639
  827YOPS   C2B11066  -0.609   6.784   7.385  0.0883 -0.0388 -0.0075
  827YOPS   D3B11067  -0.727   6.943   7.887 -0.1220 -0.1768 -0.0670
  827YOPS   C4B11068  -0.969   6.653   8.204  0.0102 -0.0193  0.0277
  828YOPS   CNO11069   8.977  13.798   5.792 -0.1748 -0.0259  0.2593
  828YOPS   PO411070   8.633  13.645   6.064 -0.0941 -0.2329  0.0639
  828YOPS   GL111071   8.826  13.695   6.532 -0.1098  0.1515  0.0433
  828YOPS   GL211072   9.128  13.814   6.521 -0.0733 -0.2445 -0.0689
  828YOPS   C1A11073   8.736  13.549   6.917  0.2787 -0.1572  0.2045
  828YOPS   D2A11074   8.988  13.381   7.189 -0.1279 -0.2118  0.3732
  828YOPS   C3A11075   8.902  13.191   7.598 -0.1823 -0.0171 -0.2909
  828YOPS   C4A11076   8.993  13.405   7.991 -0.2182  0.0968  0.1432
  828YOPS   C1B11077   9.187  13.804   6.916 -0.0633  0.1172 -0.0089
  828YOPS   C2B11078   9.222  13.865   7.384 -0.1825 -0.0451 -0.0334
  828YOPS   D3B11079   9.197  13.795   7.798 -0.2799 -0.0117 -0.0112
  828YOPS   C4B11080   8.867  14.004   8.036 -0.2447 -0.0640 -0.0324
  829YOPS   CNO11081   6.512  12.282   5.216  0.2394 -0.2238  0.2946
  829YOPS   PO411082   6.425  12.488   5.653  0.0087  0.0900  0.0719
  829YOPS   GL111083   6.489  12.580   6.058  0.1142 -0.1241  0.2270
  829YOPS   GL211084   6.648  12.366   6.212 -0.1458  0.0474 -0.3563
  829YOPS   C1A11085   6.290  12.382   6.496  0.0109 -0.1324  0.0891
  829YOPS   D2A11086   6.150  12.448   6.897  0.0120 -0.2691  0.1666
  829YOPS   C3A11087   5.849  12.339   7.082  0.0223 -0.0852 -0.1515
  829YOPS   C4A11088   5.708  12.303   7.472  0.0810  0.0723 -0.2215
  829YOPS   C1B11089   6.740  12.141   6.628 -0.3780  0.3267  0.0644
  829YOPS   C2B11090   6.586  12.217   6.969 -0.2210 -0.1349  0.0272
  829YOPS   D3B11091   6.616  12.677   7.133 -0.0142  0.2153  0.0870
  829YOPS   C4B11092   6.643  12.827   7.576 -0.0309 -0.0901  0.3200
  830YOPS   CNO11093   5.370   6.389   6.044  0.0340  0.2491 -0.1282
  830YOPS   PO411094   5.827   6.373   5.844  0.1150  0.0846  0.2776
  830YOPS   GL111095   5.852   6.386   6.282  0.0133 -0.1031  0.0131
  830YOPS   GL211096   5.647   6.103   6.419  0.0294  0.0435  0.3806
  830YOPS   C1A11097   5.661   6.546   6.699 -0.4321 -0.2378  0.0261
  830YOPS   D2A11098   5.446   6.480   7.016  0.0780 -0.0260 -0.0707
  830YOPS   C3A11099   5.350   6.550   7.380  0.0455  0.0200  0.2859
  830YOPS   C4A11100   5.418   6.930   7.527  0.1309  0.1536 -0.1727
  830YOPS   C1B11101   5.519   6.012   6.850  0.3041 -0.3137 -0.0026
  830YOPS   C2B11102   5.482   6.032   7.302 -0.1355  0.1055 -0.2494
  830YOPS   D3B11103   5.464   6.370   7.790  0.0848 -0.1154  0.1599
  830YOPS   C4B11104   5.109   6.621   7.834  0.1353  0.3198 -0.1471
  831YOPS   CNO11105  15.704  11.616   5.788  0.0035 -0.0027 -0.0651
  831YOPS   PO411106  15.631  11.209   5.858  0.0739  0.3008 -0.0326
  831YOPS   GL111107  15.579  11.064   6.281 -0.2443  0.0891 -0.0558
  831YOPS   GL211108  15.948  11.046   6.503 -0.0252 -0.3776  0.2406
  831YOPS   C1A11109  15.487  11.065   6.692  0.1343 -0.2143  0.1132
  831YOPS   D2A11110  15.332  11.185   7.086  0.0546  0.2420  0.1016
  831YOPS   C3A11111  15.292  11.444   7.435 -0.2798  0.1711  0.0009
  831YOPS   C4A11112  15.116  11.253   7.669 -0.1035  0.1472 -0.1024
  831YOPS   C1B11113  15.976  10.943   6.992  0.0922 -0.1840  0.5220
  831YOPS   C2B11114  16.098  10.847   7.399 -0.0229 -0.0745 -0.1579
  831YOPS   D3B11115  15.989  10.867   7.762  0.0866 -0.0110 -0.0373
  831YOPS   C4B11116  15.546  10.656   7.925  0.1789 -0.1710 -0.1356
  832YOPS   CNO11117  16.682   4.494   5.807  0.3123  0.2462  0.0735
  832YOPS   PO411118  16.911   4.262   5.757 -0.0083 -0.3373  0.2099
  832YOPS   GL111119  16.844   4.060   6.039  0.0906  0.0513  0.4329
  832YOPS   GL211120  16.529   4.052   6.190 -0.2194  0.0541  0.1270
  832YOPS   C1A11121  17.000   3.780   6.356  0.1034  0.2481  0.0647
  832YOPS   D2A11122  17.045   3.695   6.761 -0.0379  0.0150  0.0255
  832YOPS   C3A11123  17.023   3.776   7.157  0.1238 -0.2849 -0.1212
  832YOPS   C4A11124  16.594   3.931   7.219  0.1895 -0.1241  0.0196
  832YOPS   C1B11125  16.516   3.837   6.584 -0.1458  0.2007 -0.2053
  832YOPS   C2B11126  16.162   3.819   7.049 -0.2252  0.2871 -0.1573
  832YOPS   D3B11127  16.217   3.982   7.541 -0.2196 -0.1032 -0.2736
  832YOPS   C4B11128  16.657   3.987   7.682  0.3672 -0.1372 -0.0390
  833YOPS   CNO11129   6.388  13.776   5.344  0.0483  0.0404 -0.0122
  833YOPS   PO411130   6.222  13.478   5.695  0.3865  0.1546 -0.0606
  833YOPS   GL111131   6.140  13.433   6.103 -0.0201 -0.2712 -0.0327
  833YOPS   GL211132   6.012  13.772   6.117  0.0350  0.1542  0.0593
  833YOPS   C1A11133   6.371  13.398   6.539 -0.1195 -0.3741  0.3617
  833YOPS   D2A11134   6.195  13.315   6.870 -0.1275 -0.0823  0.0304
  833YOPS   C3A11135   6.236  13.002   7.196 -0.0750 -0.0299  0.1357
  833YOPS   C4A11136   6.182  12.937   7.642  0.1600  0.0001 -0.1342
  833YOPS   C1B11137   5.949  13.657   6.510  0.0205  0.4992 -0.1865
  833YOPS   C2B11138   5.989  13.795   6.910  0.2848  0.0806 -0.3013
  833YOPS   D3B11139   6.081  13.540   7.309 -0.0947 -0.0205  0.3317
  833YOPS   C4B11140   5.943  13.683   7.675  0.1869 -0.1491  0.0444
  834YOPS   CNO11141   8.720  16.184   5.503 -0.0025  0.1594 -0.0000
  834YOPS   PO411142   8.898  15.773   5.446 -0.1209 -0.1628 -0.0016
  834YOPS   GL111143   8.827  15.714   5.843 -0.4910  0.0763 -0.2235
  834YOPS   GL211144   8.530  15.636   5.910 -0.1972  0.2508 -0.1943
  834YOPS   C1A11145   8.717  15.623   6.368 -0.1866 -0.0399  0.3735
  834YOPS   D2A11146   8.811  15.550   6.673 -0.0833  0.0404  0.0792
  834YOPS   C3A11147   8.956  15.409   7.007  0.2094 -0.1610  0.0513
  834YOPS   C4A11148   9.388  15.367   7.116 -0.1046 -0.0110  0.0850
  834YOPS   C1B11149   8.252  15.364   6.255  0.0525  0.3254 -0.0707
  834YOPS   C2B11150   8.012  15.385   6.541  0.2520  0.4604 -0.0669
  834YOPS   D3B11151   7.875  15.525   6.975  0.0229 -0.2813  0.1182
  834YOPS   C4B11152   7.736  15.854   7.144 -0.1281 -0.0092  0.0084
  835YOPS   CNO11153   2.632   2.242   5.585  0.2696  0.0720  0.0228
  835YOPS   PO411154   2.701   1.890   5.767 -0.0189 -0.0325  0.1152
  835YOPS   GL111155   2.738   1.650   6.161 -0.1169 -0.0617  0.0707
  835YOPS   GL211156   2.439   1.370   6.236  0.4028 -0.0184 -0.2922
  835YOPS   C1A11157   2.885   1.492   6.554  0.5322 -0.1803 -0.0716
  835YOPS   D2A11158   2.962   1.447   6.970  0.0911 -0.0497  0.2075
  835YOPS   C3A11159   3.048   1.592   7.342  0.1140  0.1235  0.1814
  835YOPS   C4A11160   3.163   1.983   7.649 -0.2794 -0.1214  0.0941
  835YOPS   C1B11161   2.404   1.408   6.724  0.3210 -0.0573  0.0163
  835YOPS   C2B11162   2.418   1.215   7.140  0.2535  0.1187 -0.0373
  835YOPS   D3B11163   2.485   1.085   7.491 -0.3039 -0.0346  0.0613
  835YOPS   C4B11164   2.811   1.154   7.538  0.0353 -0.0352  0.3280
  836YOPS   CNO11165   2.935   7.152   5.613 -0.2379 -0.0444  0.1230
  836YOPS   PO411166   3.085   7.206   6.031  0.0537 -0.0792  0.0596
  836YOPS   GL111167   2.937   7.086   6.440  0.3582  0.0919  0.0405
  836YOPS   GL211168   2.583   6.984   6.499 -0.0919  0.0171  0.1984
  836YOPS   C1A11169   2.968   7.145   6.901 -0.3669 -0.0327  0.1848
  836YOPS   D2A11170   3.256   7.244   7.217 -0.1164 -0.2501 -0.2310
  836YOPS   C3A11171   3.119   7.344   7.561  0.1014 -0.3258  0.0002
  836YOPS   C4A11172   2.828   7.357   7.867  0.2821  0.2561  0.3007
  836YOPS   C1B11173   2.510   7.018   6.918  0.3071 -0.4716  0.0054
  836YOPS   C2B11174   2.648   7.208   7.369 -0.0312  0.1818 -0.1301
  836YOPS   D3B11175   2.564   7.533   7.488 -0.1069  0.0402  0.0719
  836YOPS   C4B11176   2.773   7.798   7.656  0.0090 -0.1510  0.4064
  837YOPS   CNO11177   7.623   5.222   5.441  0.0645  0.1356  0.0113
  837YOPS   PO411178   7.689   5.184   5.963  0.1227 -0.1078  0.1343
  837YOPS   GL111179   7.665   5.027   6.337 -0.1514 -0.3775 -0.1965
  837YOPS   GL211180   7.552   4.762   6.515  0.0300 -0.0728 -0.1446
  837YOPS   C1A11181   7.994   4.912   6.657 -0.0160  0.2718 -0.2263
  837YOPS   D2A11182   8.392   4.899   6.921  0.0971 -0.1141  0.0663
  837YOPS   C3A11183   8.263   4.891   7.277  0.1190 -0.2068 -0.0184
  837YOPS   C4A11184   8.481   4.811   7.614 -0.1629  0.0986  0.2013
  837YOPS   C1B11185   7.607   4.723   6.950 -0.3197  0.0744 -0.1984
  837YOPS   C2B11186   7.783   4.646   7.394 -0.1189  0.0745  0.2640
  837YOPS   D3B11187   7.740   4.846   7.679  0.0154  0.1324 -0.2846
  837YOPS   C4B11188   7.764   4.697   8.106 -0.1222 -0.0197 -0.1109
  838YOPS   CNO11189   9.525   3.700   5.467  0.1270  0.2471 -0.0332
  838YOPS   PO411190   9.229   3.734   5.796  0.0389 -0.0156 -0.0158
  838YOPS   GL111191   9.497   3.629   6.094 -0.0029 -0.2301  0.3033
  838YOPS   GL211192   9.790   3.635   6.303 -0.0431  0.0126 -0.0378
  838YOPS   C1A11193   9.335   3.694   6.626 -0.1627 -0.1007  0.1292
  838YOPS   D2A11194   9.289   3.735   7.155 -0.0948  0.0568  0.1593
  838YOPS   C3A11195   9.210   3.721   7.642  0.0200 -0.1598  0.0225
  838YOPS   C4A11196   8.840   3.898   7.808  0.0288 -0.0025 -0.3274
  838YOPS   C1B11197   9.839   3.633   6.721  0.1367  0.2631 -0.2536
  838YOPS   C2B11198   9.614   3.389   7.015 -0.1023  0.0129 -0.0149
  838YOPS   D3B11199   9.563   3.106   7.347 -0.1071  0.1932  0.0221
  838YOPS   C4B11200   9.817   3.181   7.732  0.0879 -0.3437 -0.0130
  839YOPS   CNO11201   6.672  14.688   5.595 -0.1426 -0.0215  0.0455
  839YOPS   PO411202   6.710  14.496   6.042 -0.2699 -0.0075  0.2646
  839YOPS   GL111203   6.421  14.541   6.302 -0.0056  0.1465  0.1816
  839YOPS   GL211204   6.121  14.722   6.265 -0.0222 -0.2379  0.2144
  839YOPS   C1A11205   6.372  14.737   6.736  0.0071 -0.1201 -0.1716
  839YOPS   D2A11206   6.204  14.860   7.042 -0.0371 -0.1062  0.1039
  839YOPS   C3A11207   5.914  14.917   7.380 -0.0845  0.1108  0.2159
  839YOPS   C4A11208   5.722  14.441   7.486 -0.0872  0.0610 -0.1718
  839YOPS   C1B11209   5.840  14.763   6.588  0.0998 -0.1153  0.1706
  839YOPS   C2B11210   5.692  14.643   6.986  0.2526 -0.0523 -0.3437
  839YOPS   D3B11211   5.364  14.837   7.204  0.0494  0.1755  0.2181
  839YOPS   C4B11212   4.971  15.068   7.370  0.0558  0.0580  0.0550
  840YOPS   CNO11213  13.512   3.501   6.082  0.0175  0.0316 -0.2275
  840YOPS   PO411214  13.862   3.119   6.063  0.2237  0.3175 -0.0884
  840YOPS   GL111215  13.829   3.223   6.449 -0.1675  0.3258 -0.3863
  840YOPS   GL211216  14.197   3.395   6.544  0.0567  0.1463  0.0100
  840YOPS   C1A11217  13.856   3.046   6.896  0.0065 -0.0943  0.0556
  840YOPS   D2A11218  13.999   3.001   7.234 -0.0919 -0.0698 -0.4004
  840YOPS   C3A11219  14.320   2.825   7.410  0.0742 -0.3890  0.1306
  840YOPS   C4A11220  14.480   2.731   7.759  0.1771 -0.0426  0.2392
  840YOPS   C1B11221  14.477   3.352   6.888  0.0671  0.0384  0.2233
  840YOPS   C2B11222  14.403   3.309   7.209 -0.0825 -0.2480  0.0277
  840YOPS   D3B11223  14.456   3.260   7.620 -0.0306  0.0658  0.3220
  840YOPS   C4B11224  14.312   3.472   7.967 -0.0857 -0.0110  0.0124
  841YOPS   CNO11225   2.901   0.418   5.239  0.1721 -0.0325 -0.0296
  841YOPS   PO411226   2.543   0.788   5.391 -0.1980 -0.0369 -0.0240
  841YOPS   GL111227   2.637   0.415   5.714 -0.0139  0.0654 -0.1514
  841YOPS   GL211228   2.327   0.204   5.904 -0.2236  0.1181  0.2260
  841YOPS   C1A11229   2.804   0.174   6.004  0.1802  0.0111 -0.0960
  841YOPS   D2A11230   3.228   0.138   6.261 -0.3517 -0.0807  0.1486
  841YOPS   C3A11231   3.625   0.016   6.464  0.2952 -0.1101  0.1849
  841YOPS   C4A11232   4.005   0.029   6.479 -0.0846  0.0934 -0.2514
  841YOPS   C1B11233   2.381   0.146   6.251  0.2261  0.1117 -0.2080
  841YOPS   C2B11234   2.414   0.293   6.709  0.0396  0.1337  0.2125
  841YOPS   D3B11235   2.484   0.235   7.132 -0.0555  0.0234  0.0657
  841YOPS   C4B11236   2.598   0.607   7.381  0.0945 -0.2529 -0.1541
  842POPE   NH311237   2.442  12.488   5.471  0.2704  0.0577  0.0773
  842POPE   PO411238   2.932  12.653   5.495 -0.1214  0.0959 -0.0901
  842POPE   GL111239   2.739  12.805   5.840  0.1617 -0.0675  0.0652
  842POPE   GL211240   2.605  13.067   5.827  0.0842 -0.1343 -0.0523
  842POPE   C1A11241   2.668  12.690   6.302 -0.0318 -0.0193  0.1032
  842POPE   D2A11242   2.922  12.673   6.833  0.0710 -0.2435 -0.3724
  842POPE   C3A11243   2.710  12.770   7.258  0.1367  0.2121 -0.3673
  842POPE   C4A11244   2.633  12.865   7.732  0.0698 -0.1869 -0.2261
  842POPE   C1B11245   2.696  13.232   6.060  0.0486 -0.3275  0.0484
  842POPE   C2B11246   2.613  13.629   6.396 -0.0220 -0.0291 -0.1148
  842POPE   C3B11247   2.786  13.887   6.796  0.0797 -0.0365  0.0044
  842POPE   C4B11248   2.811  14.189   7.111 -0.1880 -0.0027 -0.2268
  843POPE   NH311249  10.690   0.687   5.400 -0.0109  0.0933  0.1916
  843POPE   PO411250  10.914   0.888   5.765  0.0848 -0.0028 -0.0734
  843POPE   GL111251  10.946   0.529   6.057 -0.0837 -0.4549 -0.0167
  843POPE   GL211252  11.154   0.317   6.133 -0.0324  0.1208  0.2677
  843POPE   C1A11253  10.742   0.293   6.418 -0.1868 -0.1855 -0.0294
  843POPE   D2A11254  10.802   0.406   6.877  0.0107  0.0005  0.0770
  843POPE   C3A11255  10.723   0.229   7.321  0.0015  0.1893 -0.1230
  843POPE   C4A11256  10.816   0.140   7.790  0.0341  0.1713  0.2010
  843POPE   C1B11257  11.274   0.313   6.627  0.1662  0.2439  0.0449
  843POPE   C2B11258  11.438   0.416   7.006  0.0346  0.1776 -0.0876
  843POPE   C3B11259  11.321   0.468   7.482 -0.0384 -0.2066  0.0203
  843POPE   C4B11260  11.236   0.637   7.859 -0.0143 -0.2754 -0.2863
  844POPE   NH311261   9.802   1.252   6.103 -0.2586  0.1559 -0.1556
  844POPE   PO411262  10.049   0.949   5.877  0.0817  0.0356 -0.4165
  844POPE   GL111263  10.203   0.761   6.227  0.0643 -0.0730 -0.1578
  844POPE   GL211264   9.960   0.838   6.406  0.1840  0.1679 -0.4752
  844POPE   C1A11265  10.598   0.804   6.362  0.1698 -0.2483  0.0676
  844POPE   D2A11266  10.741   1.269   6.489  0.0025 -0.3634 -0.0160
  844POPE   C3A11267  10.800   1.396   6.889  0.1311 -0.1035  0.0662
  844POPE   C4A11268  10.503   1.247   7.247  0.0499 -0.0510  0.0534
  844POPE   C1B11269   9.796   0.789   6.793  0.0785  0.1817  0.0748
  844POPE   C2B11270   9.882   0.861   7.216  0.2389  0.1856  0.0429
  844POPE   C3B11271  10.056   1.184   7.539  0.1097  0.0672  0.2719
  844POPE   C4B11272   9.944   1.309   8.005 -0.3979 -0.0719 -0.3395
  845POPE   NH311273  14.594  13.910   6.045 -0.0750 -0.1120  0.1802
  845POPE   PO411274  14.789  14.310   5.817 -0.2844  0.0727 -0.0374
  845POPE   GL111275  14.925  14.342   6.296 -0.0269 -0.1498  0.1969
  845POPE   GL211276  14.686  14.662   6.338 -0.0623  0.2943 -0.1591
  845POPE   C1A11277  15.163  14.292   6.697  0.0551 -0.3403  0.0043
  845POPE   D2A11278  15.220  14.257   7.077 -0.0604  0.0956 -0.2971
  845POPE   C3A11279  15.499  14.459   7.402 -0.0176 -0.0030  0.0514
  845POPE   C4A11280  15.583  14.795   7.596 -0.0290 -0.3247 -0.1769
  845POPE   C1B11281  14.388  14.705   6.586 -0.0537 -0.0166  0.1361
  845POPE   C2B11282  14.434  14.775   7.010  0.1766  0.0493 -0.0480
  845POPE   C3B11283  14.439  14.959   7.424 -0.2428 -0.1598 -0.0202
  845POPE   C4B11284  14.621  15.014   7.781 -0.0980  0.1529  0.0297
  846POPE   NH311285   3.527  12.816   5.487 -0.0627  0.2310  0.1021
  846POPE   PO411286   3.780  12.442   5.651 -0.2329 -0.0499  0.1959
  846POPE   GL111287   3.807  12.655   5.954 -0.1621 -0.2050  0.1375
  846POPE   GL211288   3.851  12.379   6.153 -0.0566 -0.2376 -0.0519
  846POPE   C1A11289   3.639  12.806   6.342  0.0931  0.0068  0.1187
  846POPE   D2A11290   3.411  12.860   6.705  0.4223  0.4836  0.0365
  846POPE   C3A11291   3.239  13.034   7.063  0.1312  0.3311  0.3454
  846POPE   C4A11292   3.114  12.865   7.529  0.3049 -0.0382 -0.2935
  846POPE   C1B11293   3.696  12.394   6.592  0.1067 -0.0860  0.2932
  846POPE   C2B11294   3.584  12.418   7.051 -0.0922 -0.0663  0.2901
  846POPE   C3B11295   3.174  12.481   7.244 -0.0723  0.0198 -0.0722
  846POPE   C4B11296   2.988  12.356   7.715 -0.4219  0.2139 -0.0814
  847POPE   NH311297  17.125   8.342   6.435 -0.1970 -0.0469 -0.0939
  847POPE   PO411298  17.479   8.049   6.483  0.0154  0.2062 -0.3126
  847POPE   GL111299  17.338   8.016   6.874  0.0175 -0.2400 -0.2070
  847POPE   GL211300  17.143   8.107   6.965 -0.1415 -0.4492  0.1662
  847POPE   C1A11301  17.517   8.092   7.324 -0.0044  0.1985 -0.0913
  847POPE   D2A11302  17.427   8.210   7.748  0.6437 -0.0933  0.2980
  847POPE   C3A11303  17.053   8.040   7.972  0.4419  0.1478 -0.2484
  847POPE   C4A11304  16.577   8.133   7.807  0.1124 -0.1458 -0.0721
  847POPE   C1B11305  16.998   8.132   7.449 -0.1913 -0.0881  0.3529
  847POPE   C2B11306  16.858   7.737   7.647  0.1784 -0.2141 -0.1492
  847POPE   C3B11307  16.522   7.511   7.767  0.0377  0.2469  0.4485
  847POPE   C4B11308  16.275   7.691   8.046 -0.0199 -0.0276 -0.1035
  848POPE   NH311309   9.622  14.378   6.006 -0.0412  0.0530 -0.0660
  848POPE   PO411310   9.201  14.290   5.990 -0.0819  0.0596  0.0948
  848POPE   GL111311   9.103  14.418   6.349  0.0997 -0.1269 -0.2027
  848POPE   GL211312   8.825  14.208   6.461  0.0526  0.0399 -0.0837
  848POPE   C1A11313   9.015  14.682   6.601 -0.0149  0.2031  0.0227
  848POPE   D2A11314   8.978  14.865   7.048  0.1425  0.2356 -0.0240
  848POPE   C3A11315   8.894  14.717   7.435 -0.0287 -0.0833  0.2576
  848POPE   C4A11316   8.861  14.693   7.863  0.2187 -0.1057 -0.0959
  848POPE   C1B11317   8.776  14.089   6.857 -0.3713 -0.0449  0.0190
  848POPE   C2B11318   8.757  13.921   7.233  0.0826  0.0710 -0.1790
  848POPE   C3B11319   8.741  13.747   7.660 -0.3264 -0.0889 -0.0547
  848POPE   C4B11320   8.500  13.562   7.935  0.1610 -0.2653  0.0551
  849POPE   NH311321  11.420   7.104   6.171 -0.2906 -0.0997  0.0072
  849POPE   PO411322  11.686   6.818   5.915  0.1325 -0.3816  0.3888
  849POPE   GL111323  11.743   6.803   6.427  0.0542  0.2206  0.1036
  849POPE   GL211324  11.497   6.683   6.432  0.0960  0.4953 -0.0642
  849POPE   C1A11325  11.820   6.793   6.829  0.1003  0.3894  0.1513
  849POPE   D2A11326  11.805   6.688   7.227 -0.0029  0.4185 -0.0113
  849POPE   C3A11327  11.526   6.813   7.564 -0.2140  0.0702 -0.1007
  849POPE   C4A11328  11.117   6.724   7.807  0.2761  0.4209 -0.1474
  849POPE   C1B11329  11.434   6.504   6.906  0.2040 -0.2820 -0.0480
  849POPE   C2B11330  11.336   6.467   7.262 -0.0849  0.1410  0.0500
  849POPE   C3B11331  11.137   6.282   7.555  0.1242  0.4114  0.3211
  849POPE   C4B11332  10.982   6.262   8.053 -0.1799  0.4023  0.0571
  850POPE   NH311333  14.875  11.647   6.175 -0.0230 -0.1347  0.2843
  850POPE   PO411334  14.537  11.488   6.043  0.0034  0.3688  0.4310
  850POPE   GL111335  14.511  11.615   6.518 -0.2731  0.0483 -0.2513
  850POPE   GL211336  14.759  11.812   6.616 -0.0921 -0.1423 -0.0116
  850POPE   C1A11337  14.279  11.593   6.947  0.4073 -0.0991 -0.1690
  850POPE   D2A11338  14.040  11.432   7.229  0.0895  0.0415 -0.1813
  850POPE   C3A11339  14.256  11.440   7.585  0.2105 -0.0546  0.0197
  850POPE   C4A11340  14.219  11.304   7.979  0.1994  0.0318 -0.1860
  850POPE   C1B11341  14.717  11.771   7.083 -0.3241 -0.0929  0.1185
  850POPE   C2B11342  14.795  11.690   7.436 -0.1015  0.0591  0.2332
  850POPE   C3B11343  14.719  11.523   7.825 -0.1488 -0.0035  0.0537
  850POPE   C4B11344  14.474  11.746   8.265 -0.0570  0.0880  0.1184
  851POPE   NH311345   2.273   0.262   5.413  0.1455  0.2016 -0.3511
  851POPE   PO411346   1.820   0.297   5.475 -0.0470 -0.1183  0.1034
  851POPE   GL111347   1.652   0.489   5.874  0.1933  0.1886  0.0770
  851POPE   GL211348   1.644   0.248   6.148  0.1016 -0.1232 -0.2797
  851POPE   C1A11349   1.505   0.772   6.244  0.0911  0.2345  0.0406
  851POPE   D2A11350   1.504   1.024   6.571  0.0997  0.1138  0.2187
  851POPE   C3A11351   1.656   1.525   6.624 -0.1562  0.0236 -0.0133
  851POPE   C4A11352   1.656   1.793   7.029  0.1079 -0.0106  0.0222
  851POPE   C1B11353   1.910   0.249   6.544  0.0011  0.1681 -0.0855
  851POPE   C2B11354   2.002   0.344   7.015  0.0177  0.2476 -0.2178
  851POPE   C3B11355   2.094   0.436   7.441  0.0050 -0.0682  0.2001
  851POPE   C4B11356   2.301   0.634   7.798 -0.0952 -0.1420 -0.0879
  852POPE   NH311357  15.618  11.931   6.194 -0.2563  0.1087 -0.0686
  852POPE   PO411358  15.376  11.523   6.178  0.0850  0.0764  0.0262
  852POPE   GL111359  15.451  11.524   6.641  0.3475  0.1409  0.0355
  852POPE   GL211360  15.714  11.503   6.721 -0.0755  0.2363 -0.2997
  852POPE   C1A11361  15.242  11.715   7.001  0.1347 -0.2937  0.0271
  852POPE   D2A11362  15.437  11.960   7.325 -0.0826 -0.1196 -0.0948
  852POPE   C3A11363  15.545  11.660   7.769  0.0597  0.2156 -0.2800
  852POPE   C4A11364  15.577  11.171   7.855  0.0086 -0.0786 -0.3117
  852POPE   C1B11365  15.802  11.581   7.175  0.1502  0.1463 -0.2421
  852POPE   C2B11366  16.037  11.884   7.490  0.1361  0.0647 -0.2774
  852POPE   C3B11367  15.866  12.136   7.851  0.0577 -0.1133  0.1099
  852POPE   C4B11368  16.002  12.472   8.072  0.3149  0.0975 -0.0204
  853POPE   NH311369   9.751  13.407   6.098 -0.0271 -0.0122 -0.1069
  853POPE   PO411370   9.813  13.202   6.397  0.1408  0.1558  0.0601
  853POPE   GL111371  10.114  13.501   6.598 -0.0829 -0.0757  0.0368
  853POPE   GL211372  10.389  13.372   6.557 -0.0342  0.0875  0.0146
  853POPE   C1A11373  10.126  13.649   7.009  0.2273 -0.2475  0.3126
  853POPE   D2A11374  10.187  14.132   7.128 -0.2662  0.1186 -0.0385
  853POPE   C3A11375  10.128  14.288   7.513  0.1348  0.0060 -0.3260
  853POPE   C4A11376  10.214  14.539   7.996  0.1895  0.1878  0.0337
  853POPE   C1B11377  10.655  13.403   6.859  0.1317 -0.4394  0.4271
  853POPE   C2B11378  10.556  13.642   7.251 -0.0409 -0.0260 -0.1667
  853POPE   C3B11379  10.117  13.731   7.483 -0.0077 -0.2460 -0.1004
  853POPE   C4B11380   9.896  13.572   7.904 -0.2556  0.0787  0.1582
  854POPE   NH311381  17.455  14.744   6.082  0.2605  0.0347 -0.1146
  854POPE   PO411382  17.085  14.556   6.181 -0.4471  0.1033  0.2169
  854POPE   GL111383  17.227  14.802   6.528 -0.0543  0.0501 -0.0338
  854POPE   GL211384  17.507  15.109   6.457  0.1263 -0.0229 -0.3845
  854POPE   C1A11385  17.097  14.881   7.047 -0.2637  0.2354 -0.2315
  854POPE   D2A11386  17.049  14.624   7.373  0.4734 -0.2954  0.1894
  854POPE   C3A11387  16.992  14.815   7.849  0.0429  0.0956  0.2268
  854POPE   C4A11388  17.100  15.043   8.214 -0.1500  0.2091 -0.0353
  854POPE   C1B11389  17.428  15.247   6.873 -0.0318 -0.2398 -0.3821
  854POPE   C2B11390  17.321  15.295   7.167  0.1201 -0.1367  0.0846
  854POPE   C3B11391  17.213  15.122   7.489  0.3386  0.2855  0.0137
  854POPE   C4B11392  17.404  15.069   7.817  0.0888 -0.0552  0.1076
  855POPE   NH311393  16.139  12.684   6.208 -0.0521 -0.1956  0.1082
  855POPE   PO411394  15.799  12.367   6.229  0.0198  0.1113 -0.1731
  855POPE   GL111395  15.740  12.549   6.622 -0.1281 -0.0436  0.4085
  855POPE   GL211396  15.418  12.823   6.628 -0.0681  0.3320 -0.2813
  855POPE   C1A11397  15.965  12.666   7.057  0.0368  0.3340 -0.2013
  855POPE   D2A11398  16.082  12.793   7.390 -0.2296 -0.2757  0.0086
  855POPE   C3A11399  15.732  12.762   7.756 -0.1230  0.0155 -0.4357
  855POPE   C4A11400  15.528  12.753   8.090 -0.1925  0.1007 -0.0333
  855POPE   C1B11401  15.758  13.063   6.816  0.0861  0.2268  0.2149
  855POPE   C2B11402  15.892  13.174   7.141 -0.1944 -0.1557 -0.3606
  855POPE   C3B11403  15.802  13.198   7.556  0.0651  0.1288  0.0114
  855POPE   C4B11404  15.363  13.220   7.812  0.0094 -0.1076  0.1498
  856POPE   NH311405   8.931   6.915   5.748 -0.0022 -0.1666 -0.0032
  856POPE   PO411406   9.305   6.672   5.790 -0.2072 -0.0762  0.2007
  856POPE   GL111407   9.186   6.728   6.165  0.0572 -0.1496  0.1234
  856POPE   GL211408   8.871   6.925   6.331 -0.0905 -0.0304  0.0770
  856POPE   C1A11409   9.220   6.420   6.646  0.0096 -0.1755  0.1159
  856POPE   D2A11410   9.075   5.946   6.747  0.0994 -0.1264 -0.1491
  856POPE   C3A11411   9.034   5.942   7.160 -0.1781 -0.0097  0.0405
  856POPE   C4A11412   8.776   6.058   7.569 -0.2239 -0.1435 -0.1212
  856POPE   C1B11413   8.827   6.821   6.733 -0.4524  0.1012 -0.1497
  856POPE   C2B11414   8.934   6.845   7.187  0.3313 -0.0240  0.1485
  856POPE   C3B11415   9.081   6.854   7.650  0.1690  0.1275 -0.4208
  856POPE   C4B11416   9.254   6.724   7.949  0.1643 -0.4496 -0.0159
  857POPE   NH311417  10.246  13.118   6.160  0.3659 -0.1751  0.1094
  857POPE   PO411418   9.872  12.879   6.035  0.0544 -0.2736 -0.0655
  857POPE   GL111419   9.989  12.589   6.314 -0.0394  0.0389 -0.1511
  857POPE   GL211420  10.149  12.786   6.518  0.1536  0.1163 -0.0173
  857POPE   C1A11421   9.957  12.411   6.766  0.3087  0.0691 -0.1357
  857POPE   D2A11422  10.049  12.120   7.208  0.2514  0.0025 -0.1651
  857POPE   C3A11423  10.213  12.140   7.608 -0.0914 -0.2682  0.1064
  857POPE   C4A11424  10.206  12.416   7.970  0.0731  0.0511 -0.0054
  857POPE   C1B11425  10.381  12.388   6.561 -0.4356  0.2532  0.1029
  857POPE   C2B11426  10.610  12.169   6.856  0.0173 -0.0392 -0.0725
  857POPE   C3B11427  10.751  12.196   7.308 -0.0204  0.1659 -0.1747
  857POPE   C4B11428  10.714  12.373   7.706  0.0469  0.0154 -0.0060
  858POPE   NH311429  11.535  10.868   6.223 -0.0767 -0.0554  0.0400
  858POPE   PO411430  11.319  11.169   5.973 -0.1253  0.3377 -0.0228
  858POPE   GL111431  11.096  11.189   6.313 -0.0336 -0.1560 -0.0441
  858POPE   GL211432  10.977  11.429   6.309 -0.1234  0.0957  0.1262
  858POPE   C1A11433  10.813  11.211   6.684  0.1512  0.1856 -0.0953
  858POPE   D2A11434  10.625  11.408   6.969 -0.2465  0.0469 -0.1636
  858POPE   C3A11435  10.742  11.256   7.408 -0.2989  0.0736 -0.2469
  858POPE   C4A11436  10.727  11.398   7.870 -0.1598  0.3526 -0.0378
  858POPE   C1B11437  11.238  11.562   6.588  0.0046  0.0422 -0.1394
  858POPE   C2B11438  11.459  11.808   6.952 -0.2966 -0.2228  0.2205
  858POPE   C3B11439  11.543  11.848   7.382  0.0717  0.1881 -0.2877
  858POPE   C4B11440  11.562  11.692   7.798 -0.1030  0.1885 -0.1444
  859POPE   NH311441   4.678  12.281   5.768  0.1122  0.0077  0.1133
  859POPE   PO411442   4.699  11.935   5.820 -0.0166 -0.1556  0.1456
  859POPE   GL111443   4.540  11.884   6.202  0.2073 -0.0468  0.3011
  859POPE   GL211444   4.438  11.588   6.186 -0.0875 -0.1777 -0.0788
  859POPE   C1A11445   4.404  11.868   6.601  0.1065 -0.0295  0.0261
  859POPE   D2A11446   4.322  11.715   6.934 -0.2470  0.2690 -0.2447
  859POPE   C3A11447   4.326  11.955   7.342 -0.0993 -0.2776  0.1908
  859POPE   C4A11448   4.325  12.181   7.668  0.0500  0.1222  0.2947
  859POPE   C1B11449   4.065  11.475   6.479  0.0027  0.2799  0.0839
  859POPE   C2B11450   3.798  11.376   6.850 -0.0033  0.0102  0.0846
  859POPE   C3B11451   3.493  11.545   7.075 -0.2530 -0.1003  0.2179
  859POPE   C4B11452   3.048  11.507   7.118 -0.3713 -0.1987  0.1647
  860POPE   NH311453  14.468  13.435   5.937 -0.0897 -0.0507  0.0379
  860POPE   PO411454  14.664  13.103   6.133 -0.0831 -0.1621 -0.0778
  860POPE   GL111455  14.574  13.225   6.455  0.2018  0.2015 -0.1772
  860POPE   GL211456  14.654  13.567   6.407  0.1952 -0.1768  0.1246
  860POPE   C1A11457  14.206  13.388   6.767  0.0592  0.0836  0.2419
  860POPE   D2A11458  14.020  13.374   7.168 -0.1103 -0.1069 -0.4037
  860POPE   C3A11459  14.036  13.743   7.399  0.3013 -0.4150  0.5726
  860POPE   C4A11460  14.235  14.114   7.660 -0.1310 -0.1687 -0.1512
  860POPE   C1B11461  14.558  13.704   6.865 -0.4088 -0.0720  0.2178
  860POPE   C2B11462  14.453  13.884   7.191 -0.0336  0.0332 -0.0781
  860POPE   C3B11463  14.849  14.022   7.495 -0.1182 -0.0436  0.0130
  860POPE   C4B11464  15.195  14.210   7.697 -0.2184  0.0056 -0.3136
  861POPE   NH311465   4.946   8.378   5.817 -0.1238  0.2069  0.0294
  861POPE   PO411466   4.492   8.281   5.844 -0.0106 -0.0500  0.1022
  861POPE   GL111467   4.658   8.495   6.200  0.0199  0.4805  0.0496
  861POPE   GL211468   4.506   8.630   6.414  0.0620  0.0984 -0.1042
  861POPE   C1A11469   4.957   8.556   6.590  0.2066 -0.0813 -0.0292
  861POPE   D2A11470   5.086   8.377   7.016  0.0557 -0.0480 -0.1608
  861POPE   C3A11471   4.992   8.233   7.458 -0.1652  0.2570  0.1282
  861POPE   C4A11472   4.978   8.251   7.999  0.1194 -0.0466  0.0121
  861POPE   C1B11473   4.474   8.566   6.797 -0.0898 -0.0502  0.0846
  861POPE   C2B11474   4.426   8.439   7.196  0.0608  0.2087  0.0113
  861POPE   C3B11475   4.406   8.349   7.540 -0.0144  0.0707  0.0579
  861POPE   C4B11476   4.203   8.022   7.651  0.1180 -0.1152 -0.0931
  862POPE   NH311477  11.816   3.856   6.076 -0.2271 -0.1611 -0.0787
  862POPE   PO411478  12.199   3.447   5.930  0.0790  0.0351 -0.3394
  862POPE   GL111479  12.009   3.376   6.360  0.1488  0.1777  0.0864
  862POPE   GL211480  11.884   3.701   6.599  0.1659 -0.3239  0.1657
  862POPE   C1A11481  11.900   3.263   6.821  0.0593  0.0275  0.1836
  862POPE   D2A11482  12.027   2.973   7.036  0.3481 -0.0944 -0.1116
  862POPE   C3A11483  11.896   2.792   7.394  0.1687  0.2119  0.1039
  862POPE   C4A11484  11.591   2.698   7.677  0.2299  0.0739  0.0023
  862POPE   C1B11485  11.754   3.825   7.018 -0.4521  0.0335 -0.0714
  862POPE   C2B11486  11.662   3.977   7.495 -0.1710  0.1712 -0.1104
  862POPE   C3B11487  11.684   3.642   7.877 -0.0408 -0.0378 -0.2796
  862POPE   C4B11488  11.549   3.199   7.943  0.0636 -0.1016  0.0887
  863POPE   NH311489   3.753  11.832   5.661 -0.1203  0.0321  0.1535
  863POPE   PO411490   3.525  11.946   5.881  0.1156  0.2455 -0.0589
  863POPE   GL111491   3.321  12.378   6.088  0.1270  0.0261 -0.0157
  863POPE   GL211492   3.289  12.693   5.913  0.0104  0.1441 -0.2338
  863POPE   C1A11493   3.153  12.460   6.503 -0.0280 -0.1023  0.3021
  863POPE   D2A11494   3.216  12.199   6.870  0.0922  0.0772 -0.0711
  863POPE   C3A11495   3.201  11.931   7.263 -0.1107  0.2000  0.0025
  863POPE   C4A11496   3.377  12.001   7.531 -0.0844 -0.2313 -0.0374
  863POPE   C1B11497   3.127  12.935   6.276  0.0810 -0.5461  0.2570
  863POPE   C2B11498   2.866  13.138   6.528  0.0852  0.2110  0.0466
  863POPE   C3B11499   2.789  13.174   6.934 -0.0610 -0.2053  0.1982
  863POPE   C4B11500   2.766  13.245   7.277  0.0783 -0.0353  0.3097
  864POPE   NH311501   8.953   1.645   6.020  0.3326 -0.3394 -0.2955
  864POPE   PO411502   8.844   1.236   6.156  0.3221 -0.2191  0.1612
  864POPE   GL111503   8.896   1.525   6.495  0.0035 -0.0413  0.0231
  864POPE   GL211504   8.537   1.686   6.689 -0.0769 -0.3054  0.1438
  864POPE   C1A11505   8.936   1.413   6.943  0.1616  0.2776  0.0548
  864POPE   D2A11506   8.959   1.439   7.397  0.0580 -0.2224 -0.1114
  864POPE   C3A11507   8.725   1.371   7.769 -0.1744 -0.1677 -0.0240
  864POPE   C4A11508   8.826   1.029   8.084  0.0806 -0.2820  0.0666
  864POPE   C1B11509   8.720   1.814   7.121  0.0384 -0.0106  0.0297
  864POPE   C2B11510   8.479   1.841   7.517  0.0081 -0.1229 -0.2536
  864POPE   C3B11511   8.489   1.788   8.040  0.0822 -0.0236  0.0136
  864POPE   C4B11512   8.336   1.888   8.387 -0.0283  0.0360 -0.1358
  865POPE   NH311513   8.701   7.689   5.957  0.0636 -0.3583 -0.2601
  865POPE   PO411514   9.112   7.736   5.899  0.0620  0.0201  0.0420
  865POPE   GL111515   9.074   7.878   6.297 -0.0547 -0.2326 -0.3020
  865POPE   GL211516   9.205   7.624   6.524  0.2574 -0.3757  0.1347
  865POPE   C1A11517   8.916   7.943   6.770 -0.2291 -0.1594  0.1006
  865POPE   D2A11518   9.015   8.029   7.245 -0.3771 -0.1722  0.1484
  865POPE   C3A11519   8.942   7.913   7.640 -0.0934 -0.1322  0.3394
  865POPE   C4A11520   8.969   7.824   8.096  0.2467 -0.0671  0.2107
  865POPE   C1B11521   9.334   7.696   6.938 -0.3125 -0.1394 -0.1409
  865POPE   C2B11522   9.342   7.730   7.386  0.2022  0.2334  0.2492
  865POPE   C3B11523   9.497   8.024   7.744  0.0369  0.2632 -0.2209
  865POPE   C4B11524   9.788   8.098   8.139 -0.1548 -0.3392 -0.2393
  866POPE   NH311525   8.327   3.804   5.855  0.1822  0.2659 -0.0418
  866POPE   PO411526   8.102   4.200   6.030  0.1817 -0.2456  0.0431
  866POPE   GL111527   8.085   4.447   6.474 -0.0398 -0.0424  0.2964
  866POPE   GL211528   8.224   4.133   6.621 -0.1021  0.2168 -0.2618
  866POPE   C1A11529   8.103   4.530   6.947  0.0072  0.0543 -0.2296
  866POPE   D2A11530   8.503   4.369   7.240 -0.2305  0.1165 -0.1220
  866POPE   C3A11531   8.559   4.262   7.663 -0.1071 -0.4312 -0.1247
  866POPE   C4A11532   8.595   4.205   8.114  0.1211 -0.0219  0.0093
  866POPE   C1B11533   8.147   3.927   7.036 -0.1390  0.0101  0.0811
  866POPE   C2B11534   8.029   4.082   7.489 -0.1726 -0.3653  0.0684
  866POPE   C3B11535   8.077   4.470   7.747 -0.3963 -0.0324  0.0001
  866POPE   C4B11536   8.367   4.668   8.059 -0.2299  0.0972 -0.1572
  867POPE   NH311537  12.491   0.822   5.904 -0.1374  0.0486  0.2048
  867POPE   PO411538  12.073   0.861   5.744 -0.0981  0.0900 -0.1067
  867POPE   GL111539  12.061   0.861   6.239  0.2416  0.2149 -0.4052
  867POPE   GL211540  12.243   0.633   6.450 -0.3188  0.2339 -0.1199
  867POPE   C1A11541  11.970   1.019   6.655 -0.1617 -0.1136  0.0013
  867POPE   D2A11542  11.844   1.093   6.993  0.0192 -0.3513 -0.1119
  867POPE   C3A11543  11.885   1.529   7.048  0.0582  0.1095  0.1643
  867POPE   C4A11544  12.044   1.625   6.675  0.3342  0.0989 -0.0670
  867POPE   C1B11545  12.290   0.654   6.950 -0.0703  0.0649 -0.1343
  867POPE   C2B11546  12.252   0.861   7.330  0.0775  0.2191 -0.0104
  867POPE   C3B11547  11.982   1.157   7.580 -0.0379  0.1243  0.5412
  867POPE   C4B11548  11.652   1.420   7.495  0.1075  0.0550 -0.1054
  868POPE   NH311549  13.742   4.487   5.992 -0.1378  0.1644 -0.0451
  868POPE   PO411550  13.305   4.323   6.145 -0.0640  0.0535 -0.1884
  868POPE   GL111551  13.133   4.112   6.505  0.1107  0.0345 -0.1708
  868POPE   GL211552  12.862   4.261   6.559 -0.0879  0.1710 -0.1133
  868POPE   C1A11553  12.813   3.797   6.787  0.5678  0.3138 -0.0745
  868POPE   D2A11554  12.910   3.491   7.123  0.0351  0.2639 -0.0462
  868POPE   C3A11555  12.994   3.356   7.472 -0.2091 -0.2841 -0.0402
  868POPE   C4A11556  13.035   3.369   7.876 -0.4103 -0.0824  0.2330
  868POPE   C1B11557  12.820   4.291   6.942 -0.3385  0.2025  0.1270
  868POPE   C2B11558  12.878   4.413   7.398  0.1102  0.2669  0.0282
  868POPE   C3B11559  12.769   4.602   7.749 -0.0130  0.0873 -0.0858
  868POPE   C4B11560  12.336   4.718   8.025  0.1266  0.2359 -0.0714
  869POPE   NH311561   2.384   3.420   6.222  0.4075 -0.0326  0.1066
  869POPE   PO411562   2.233   3.814   6.188  0.2056 -0.0861  0.0346
  869POPE   GL111563   2.213   4.036   6.646 -0.0249  0.0571 -0.3186
  869POPE   GL211564   1.927   4.185   6.639  0.2889 -0.2644 -0.1851
  869POPE   C1A11565   2.417   4.292   7.009  0.0533 -0.0268 -0.4232
  869POPE   D2A11566   2.512   4.266   7.438  0.1739  0.0433 -0.0854
  869POPE   C3A11567   2.758   4.001   7.558  0.0516  0.0978  0.1054
  869POPE   C4A11568   2.868   3.679   7.800  0.4118  0.4386  0.1234
  869POPE   C1B11569   1.927   4.075   7.064 -0.2515  0.1278 -0.1175
  869POPE   C2B11570   2.043   3.967   7.541  0.2812  0.0209  0.0511
  869POPE   C3B11571   2.372   3.991   7.871  0.1220  0.0751 -0.0787
  869POPE   C4B11572   2.573   3.953   8.274 -0.4797  0.0165  0.2422
  870POPE   NH311573   0.075  16.099   5.343  0.0888 -0.0274  0.0643
  870POPE   PO411574   0.278  15.729   5.548 -0.0738 -0.2496 -0.0686
  870POPE   GL111575   0.360  15.578   5.882 -0.3836  0.0813 -0.2143
  870POPE   GL211576   0.148  15.713   6.133  0.1767 -0.0728  0.0804
  870POPE   C1A11577   0.626  15.516   6.303 -0.2998  0.0441  0.2158
  870POPE   D2A11578   0.969  15.514   6.547  0.0832  0.0744 -0.1275
  870POPE   C3A11579   0.887  15.461   6.891  0.0013  0.2406  0.1163
  870POPE   C4A11580   0.770  15.539   7.357 -0.0763  0.1179  0.3648
  870POPE   C1B11581   0.232  15.945   6.501  0.1366  0.0336 -0.2644
  870POPE   C2B11582   0.321  16.102   6.788 -0.1346  0.1683  0.1393
  870POPE   C3B11583   0.420  16.019   7.118 -0.3903 -0.3092  0.1219
  870POPE   C4B11584   0.346  15.766   7.519  0.2030 -0.0051  0.0751
  871POPE   NH311585   9.514   8.096   6.094  0.1472 -0.1495  0.1487
  871POPE   PO411586   9.705   8.587   6.020  0.5828  0.0133  0.1552
  871POPE   GL111587   9.668   8.571   6.433  0.0644 -0.0108  0.2894
  871POPE   GL211588   9.604   8.778   6.596  0.0772 -0.2482 -0.2429
  871POPE   C1A11589   9.907   8.335   6.707 -0.0467  0.0740  0.1763
  871POPE   D2A11590  10.008   8.251   7.023  0.1627  0.1149  0.2214
  871POPE   C3A11591  10.263   7.896   7.060  0.1065 -0.1515 -0.0117
  871POPE   C4A11592  10.401   7.724   7.442  0.1965  0.0327  0.2197
  871POPE   C1B11593   9.633   8.741   7.084  0.0458 -0.0712 -0.4283
  871POPE   C2B11594   9.662   8.744   7.502  0.0690 -0.1464  0.1426
  871POPE   C3B11595   9.941   9.032   7.693 -0.0430 -0.0912  0.0724
  871POPE   C4B11596  10.316   9.154   7.899  0.1771 -0.1190 -0.1265
  872YOPE   NH311597   4.777  17.436   5.849  0.4507  0.2096 -0.1480
  872YOPE   PO411598   4.390  17.582   5.913 -0.0396 -0.0205 -0.0273
  872YOPE   GL111599   4.187  17.409   6.203  0.1195  0.1869 -0.0718
  872YOPE   GL211600   4.491  17.210   6.297 -0.0803  0.2550 -0.3593
  872YOPE   C1A11601   4.045  17.348   6.596  0.0291 -0.1683  0.2129
  872YOPE   D2A11602   4.211  17.344   6.927  0.1592  0.2605 -0.0279
  872YOPE   C3A11603   4.348  17.180   7.324  0.3748  0.1782  0.1642
  872YOPE   C4A11604   4.503  17.077   7.760 -0.1010  0.3378 -0.2134
  872YOPE   C1B11605   4.568  16.960   6.719  0.1138 -0.0375 -0.1321
  872YOPE   C2B11606   4.622  16.748   7.181  0.0039  0.0677 -0.0085
  872YOPE   D3B11607   4.825  16.635   7.561 -0.3196  0.0708  0.0342
  872YOPE   C4B11608   4.679  16.288   7.852  0.0067  0.1686  0.0219
  873YOPE   NH311609   6.608  11.389   6.073  0.0807  0.4163 -0.0365
  873YOPE   PO411610   6.265  11.575   5.952  0.0623  0.1604  0.0416
  873YOPE   GL111611   5.957  11.407   6.275 -0.0755 -0.2628  0.0593
  873YOPE   GL211612   5.828  11.161   6.392  0.2976  0.1229  0.0837
  873YOPE   C1A11613   5.950  11.559   6.718  0.1679 -0.0098  0.3929
  873YOPE   D2A11614   5.658  11.697   6.916  0.2229  0.1359  0.2413
  873YOPE   C3A11615   5.743  11.760   7.326  0.0289 -0.0620 -0.1475
  873YOPE   C4A11616   5.805  11.817   7.723  0.1094  0.1714  0.1250
  873YOPE   C1B11617   5.862  11.070   6.747 -0.1184  0.2560 -0.2682
  873YOPE   C2B11618   5.751  11.229   7.131  0.1302  0.0156 -0.0976
  873YOPE   D3B11619   5.717  11.240   7.569  0.2223  0.0836 -0.0912
  873YOPE   C4B11620   5.746  11.320   8.015 -0.3576  0.1775 -0.3519
  874YOPE   NH311621  13.030   0.187   5.829  0.1124  0.1830  0.2502
  874YOPE   PO411622  13.456   0.045   5.697  0.2478  0.0575  0.1727
  874YOPE   GL111623  13.701   0.248   5.991 -0.1436 -0.0208 -0.2546
  874YOPE   GL211624  13.462   0.413   6.065 -0.0816 -0.0930  0.0040
  874YOPE   C1A11625  14.009   0.349   6.323  0.0167 -0.1334  0.1843
  874YOPE   D2A11626  14.408   0.176   6.245 -0.0703 -0.0581  0.0569
  874YOPE   C3A11627  14.788   0.356   6.148 -0.0201  0.1512  0.0120
  874YOPE   C4A11628  15.088   0.595   6.350 -0.0454  0.1356 -0.1321
  874YOPE   C1B11629  13.588   0.580   6.451 -0.0538 -0.1588  0.0742
  874YOPE   C2B11630  13.723   0.476   6.829  0.0377 -0.0058 -0.3958
  874YOPE   D3B11631  13.851   0.299   7.160  0.0849  0.0425  0.1143
  874YOPE   C4B11632  13.942   0.070   7.531 -0.3728  0.3017 -0.1739
  875YOPE   NH311633  15.404   2.808   5.847 -0.1929  0.0141  0.2342
  875YOPE   PO411634  15.057   2.637   5.738 -0.1073 -0.2120 -0.0946
  875YOPE   GL111635  14.694   2.754   6.000 -0.1798 -0.0256  0.1210
  875YOPE   GL211636  14.561   2.978   6.295  0.2697 -0.0006 -0.0975
  875YOPE   C1A11637  14.646   2.538   6.423  0.2627  0.1820 -0.0677
  875YOPE   D2A11638  14.326   2.329   6.664  0.3292  0.1496  0.1493
  875YOPE   C3A11639  14.345   2.418   7.096 -0.3773 -0.2943  0.0419
  875YOPE   C4A11640  14.383   2.287   7.531  0.1780 -0.1800  0.1396
  875YOPE   C1B11641  14.748   3.353   6.506 -0.1173  0.1422 -0.1577
  875YOPE   C2B11642  14.739   3.755   6.779 -0.0873 -0.0766 -0.1223
  875YOPE   D3B11643  15.177   3.874   7.014 -0.0384  0.3470  0.1476
  875YOPE   C4B11644  15.478   4.213   6.877 -0.1808 -0.1521  0.0919
  876YOPE   NH311645  17.971  15.451   5.811  0.2244 -0.3009 -0.0500
  876YOPE   PO411646  17.625  15.677   5.748 -0.0780  0.1678  0.0725
  876YOPE   GL111647  17.719  15.741   6.179 -0.0809 -0.1778 -0.2382
  876YOPE   GL211648  17.843  15.913   6.323 -0.1785 -0.0265  0.4125
  876YOPE   C1A11649  17.792  15.514   6.625  0.1824  0.1337  0.2031
  876YOPE   D2A11650  18.047  15.743   6.900  0.0407  0.0377 -0.1632
  876YOPE   C3A11651  17.976  15.738   7.328 -0.2073  0.3065  0.0559
  876YOPE   C4A11652  17.656  15.927   7.597 -0.2568 -0.2061  0.0217
  876YOPE   C1B11653  17.558  15.965   6.701 -0.3682  0.1634  0.1979
  876YOPE   C2B11654  17.540  15.766   7.142 -0.3332 -0.1483  0.0254
  876YOPE   D3B11655  17.227  15.657   7.485  0.0440 -0.0526 -0.0703
  876YOPE   C4B11656  16.977  15.386   7.824 -0.0413 -0.1972 -0.1633
  877YOPE   NH311657  12.593   3.071   5.867 -0.3877 -0.2243 -0.1030
  877YOPE   PO411658  12.436   2.612   5.761 -0.3438  0.2940 -0.1941
  877YOPE   GL111659  12.552   2.531   6.212  0.0944  0.2718 -0.1707
  877YOPE   GL211660  12.861   2.375   6.292 -0.0906 -0.0065 -0.5489
  877YOPE   C1A11661  12.636   2.693   6.634  0.1668  0.1586 -0.2090
  877YOPE   D2A11662  12.499   2.764   7.033  0.1155 -0.1305  0.1973
  877YOPE   C3A11663  12.593   3.115   7.181  0.1922 -0.0016 -0.0019
  877YOPE   C4A11664  12.506   3.361   7.623 -0.0253 -0.2230 -0.1054
  877YOPE   C1B11665  12.966   2.125   6.644 -0.0299 -0.1253 -0.2205
  877YOPE   C2B11666  12.996   2.014   7.018 -0.0683 -0.3910  0.4673
  877YOPE   D3B11667  13.174   1.984   7.441 -0.0781 -0.0432  0.1623
  877YOPE   C4B11668  12.946   1.728   7.824  0.1033  0.0819  0.0046
  878YOPE   NH311669   3.658   1.384   5.772 -0.0263  0.3281 -0.0158
  878YOPE   PO411670   4.030   1.647   5.662 -0.3395 -0.4124  0.2727
  878YOPE   GL111671   3.882   1.735   6.054  0.0632 -0.2120 -0.2186
  878YOPE   GL211672   3.595   1.546   6.246  0.0209 -0.2666  0.1148
  878YOPE   C1A11673   3.965   1.643   6.497  0.0528 -0.0181  0.1285
  878YOPE   D2A11674   4.262   1.829   6.885  0.2326  0.1562  0.0218
  878YOPE   C3A11675   4.311   1.740   7.374 -0.1675  0.2889  0.1680
  878YOPE   C4A11676   4.447   1.890   7.841 -0.0891  0.1975 -0.0299
  878YOPE   C1B11677   3.424   1.555   6.579  0.0742 -0.2367 -0.2035
  878YOPE   C2B11678   3.486   1.380   6.963 -0.0628  0.1393 -0.0468
  878YOPE   D3B11679   3.316   1.205   7.361 -0.0758  0.3411  0.0877
  878YOPE   C4B11680   3.346   1.448   7.724 -0.1298 -0.3489  0.2505
  879YOPE   NH311681   9.194   0.888   5.862  0.2033 -0.2866  0.3060
  879YOPE   PO411682   9.561   0.818   6.047  0.1208  0.0335  0.3770
  879YOPE   GL111683   9.404   0.733   6.475  0.0157  0.1175 -0.1894
  879YOPE   GL211684   9.155   0.981   6.499 -0.2218 -0.0623 -0.1854
  879YOPE   C1A11685   9.375   0.640   6.951  0.1783  0.4390 -0.2143
  879YOPE   D2A11686   9.274   0.663   7.396 -0.1335 -0.0005 -0.1605
  879YOPE   C3A11687   9.410   0.573   7.906 -0.0616  0.4181 -0.0028
  879YOPE   C4A11688   9.577   0.735   8.257  0.3458  0.1731 -0.1453
  879YOPE   C1B11689   8.981   0.482   6.660  0.1135 -0.3675 -0.0404
  879YOPE   C2B11690   8.972   0.006   6.616 -0.0492  0.2199 -0.2003
  879YOPE   D3B11691   8.823  -0.426   6.685  0.1889 -0.2567 -0.2825
  879YOPE   C4B11692   9.015  -0.822   6.774 -0.3876  0.1430  0.0491
  880YOPE   NH311693   8.497   4.317   5.765 -0.1059  0.0484  0.0501
  880YOPE   PO411694   8.785   3.986   5.706 -0.0137  0.2596  0.1160
  880YOPE   GL111695   8.815   3.748   6.062 -0.1043 -0.3202 -0.0404
  880YOPE   GL211696   8.706   3.326   6.185  0.2487  0.2094 -0.3085
  880YOPE   C1A11697   8.829   3.757   6.490  0.1702 -0.2526  0.4607
  880YOPE   D2A11698   8.871   3.509   6.896  0.0391  0.0247 -0.1289
  880YOPE   C3A11699   9.179   3.178   6.904  0.2303 -0.0329 -0.1624
  880YOPE   C4A11700   9.511   2.848   6.876  0.0180  0.0596 -0.1547
  880YOPE   C1B11701   9.070   3.333   6.423  0.1911 -0.1115  0.0579
  880YOPE   C2B11702   9.494   3.243   6.462  0.0046  0.4382  0.0344
  880YOPE   D3B11703   9.862   3.043   6.591 -0.1242 -0.2399 -0.1973
  880YOPE   C4B11704  10.134   2.757   6.625  0.2046 -0.0074  0.0203
  881YOPE   NH311705   7.857  14.583   5.818  0.1366  0.2409  0.0335
  881YOPE   PO411706   7.587  14.717   5.990  0.0357 -0.0100  0.0371
  881YOPE   GL111707   7.385  14.918   6.376 -0.0358  0.0384 -0.0041
  881YOPE   GL211708   7.532  15.285   6.363 -0.1996  0.0987 -0.0071
  881YOPE   C1A11709   7.082  15.237   6.674 -0.2206  0.2051 -0.2857
  881YOPE   D2A11710   7.186  15.452   7.095  0.1067  0.1026 -0.2046
  881YOPE   C3A11711   7.574  15.425   7.401 -0.0485 -0.0518 -0.2766
  881YOPE   C4A11712   7.654  15.340   7.842 -0.0702  0.3458 -0.1235
  881YOPE   C1B11713   7.559  15.144   6.810 -0.0889 -0.2771 -0.0572
  881YOPE   C2B11714   7.753  15.014   7.218 -0.0531  0.2146  0.3837
  881YOPE   D3B11715   7.869  14.870   7.596  0.1201  0.2240  0.0861
  881YOPE   C4B11716   7.919  14.784   8.025 -0.0009 -0.0234  0.1762
  882YOPE   NH311717   2.190  13.212   5.517 -0.4617 -0.0567 -0.4360
  882YOPE   PO411718   2.101  12.761   5.673 -0.2570 -0.0432  0.1162
  882YOPE   GL111719   2.134  12.994   6.071 -0.0674 -0.0999 -0.2202
  882YOPE   GL211720   2.166  13.291   6.044 -0.0766 -0.0611  0.1848
  882YOPE   C1A11721   2.183  12.831   6.440 -0.0089 -0.1413 -0.0057
  882YOPE   D2A11722   2.409  12.850   6.735 -0.3587 -0.0969 -0.4649
  882YOPE   C3A11723   2.280  13.062   7.104  0.1874  0.1339 -0.2395
  882YOPE   C4A11724   2.357  13.214   7.562 -0.1475  0.0102  0.1659
  882YOPE   C1B11725   2.186  13.393   6.393 -0.0190  0.0444 -0.5113
  882YOPE   C2B11726   2.350  13.389   6.709  0.1041 -0.0220 -0.4354
  882YOPE   D3B11727   2.459  13.578   7.133 -0.1934  0.0335  0.2023
  882YOPE   C4B11728   2.497  13.866   7.381  0.2793  0.1954  0.0389
  883YOPE   NH311729  13.804   2.254   6.190 -0.2066  0.0877 -0.0745
  883YOPE   PO411730  13.383   2.423   6.146 -0.0269 -0.2316 -0.5404
  883YOPE   GL111731  13.164   2.658   6.519 -0.2663 -0.1148  0.3077
  883YOPE   GL211732  13.390   2.802   6.648  0.1761  0.3553  0.1274
  883YOPE   C1A11733  13.008   2.515   6.913 -0.0650  0.2414 -0.1310
  883YOPE   D2A11734  12.865   2.456   7.237 -0.3312 -0.2538  0.2439
  883YOPE   C3A11735  13.167   2.504   7.492  0.3374  0.0928  0.1314
  883YOPE   C4A11736  13.244   2.332   7.792 -0.6396  0.0930  0.0790
  883YOPE   C1B11737  13.465   2.757   7.044 -0.0830  0.0199 -0.1198
  883YOPE   C2B11738  13.546   2.810   7.486  0.0290  0.1209 -0.0166
  883YOPE   D3B11739  13.293   2.877   7.859  0.4993 -0.0784 -0.2302
  883YOPE   C4B11740  13.213   2.859   8.258  0.1589 -0.0308 -0.1882
  884YOPE   NH311741  14.666   4.234   5.875  0.3313  0.0312  0.2819
  884YOPE   PO411742  14.760   3.806   5.950  0.0715 -0.1444 -0.1917
  884YOPE   GL111743  14.912   4.083   6.325  0.1870 -0.0427  0.1830
  884YOPE   GL211744  14.597   4.296   6.408  0.1076  0.0101 -0.0125
  884YOPE   C1A11745  14.989   4.261   6.675  0.3385 -0.1371 -0.0654
  884YOPE   D2A11746  15.040   4.541   6.941  0.0437 -0.0400 -0.0806
  884YOPE   C3A11747  15.093   4.476   7.344 -0.0216 -0.1704 -0.1492
  884YOPE   C4A11748  15.038   4.403   7.786 -0.2488 -0.5029  0.1166
  884YOPE   C1B11749  14.515   4.316   6.759 -0.1057  0.0818 -0.4291
  884YOPE   C2B11750  14.786   4.154   7.177  0.0665 -0.1321 -0.1267
  884YOPE   D3B11751  14.640   4.097   7.578  0.0329 -0.0767  0.3544
  884YOPE   C4B11752  14.548   4.327   7.936  0.0037 -0.0641  0.0076
  885YOPE   NH311753  12.751   4.105   6.099  0.0925  0.3012 -0.2402
  885YOPE   PO411754  12.283   4.045   6.007 -0.3310  0.1210 -0.4547
  885YOPE   GL111755  12.291   4.162   6.396 -0.3217 -0.0714  0.3330
  885YOPE   GL211756  11.905   4.245   6.404 -0.2782 -0.1753 -0.0062
  885YOPE   C1A11757  12.397   4.067   6.748 -0.1795 -0.1163  0.3144
  885YOPE   D2A11758  12.480   4.047   7.151  0.0590 -0.0669 -0.0244
  885YOPE   C3A11759  12.688   3.787   7.481  0.0101 -0.0183  0.1513
  885YOPE   C4A11760  12.682   3.737   7.973 -0.1925 -0.1746  0.1297
  885YOPE   C1B11761  12.000   4.286   6.838 -0.3036 -0.1789 -0.0374
  885YOPE   C2B11762  12.082   4.205   7.348 -0.0461  0.2000  0.1237
  885YOPE   D3B11763  11.847   4.303   7.789  0.1877 -0.0371 -0.1525
  885YOPE   C4B11764  11.937   4.396   8.268  0.0244  0.0705 -0.1226
  886YOPE   NH311765  17.431  17.740   6.053 -0.1495 -0.2913 -0.0065
  886YOPE   PO411766  16.965  17.775   6.069 -0.0714  0.1849 -0.1361
  886YOPE   GL111767  17.081  17.858   6.491 -0.1053  0.3789  0.1080
  886YOPE   GL211768  17.431  17.832   6.515 -0.1200 -0.0066 -0.1452
  886YOPE   C1A11769  17.066  18.083   6.818 -0.2354 -0.1520 -0.0509
  886YOPE   D2A11770  16.970  18.246   7.263  0.1689  0.4642 -0.1788
  886YOPE   C3A11771  17.041  17.988   7.534 -0.2054 -0.0959 -0.0159
  886YOPE   C4A11772  17.023  17.784   7.854 -0.1204  0.1260 -0.2963
  886YOPE   C1B11773  17.480  17.774   6.928 -0.1522  0.2962  0.0334
  886YOPE   C2B11774  17.459  17.742   7.359  0.0906  0.0646  0.0091
  886YOPE   D3B11775  17.652  17.840   7.852 -0.1269  0.0045 -0.0886
  886YOPE   C4B11776  17.444  17.912   8.274  0.1585  0.1551 -0.2144
  887YOPE   NH311777  11.115  15.381   5.963 -0.0088  0.0259  0.2160
  887YOPE   PO411778  10.651  15.483   5.998 -0.1180 -0.2602 -0.3282
  887YOPE   GL111779  10.781  15.182   6.350  0.0636 -0.0287 -0.3980
  887YOPE   GL211780  10.566  14.884   6.399  0.0916 -0.1683 -0.0178
  887YOPE   C1A11781  10.693  15.270   6.764  0.1425  0.0903  0.2756
  887YOPE   D2A11782  10.422  15.310   7.024  0.0588 -0.0868 -0.0888
  887YOPE   C3A11783  10.415  15.411   7.427 -0.4395 -0.2968 -0.1113
  887YOPE   C4A11784  10.624  15.626   7.757  0.3220 -0.0454  0.1044
  887YOPE   C1B11785  10.255  15.031   6.682  0.1046 -0.1616  0.0022
  887YOPE   C2B11786   9.985  15.016   7.051 -0.2647 -0.3910  0.2379
  887YOPE   D3B11787   9.727  15.021   7.340 -0.3255 -0.1194 -0.3160
  887YOPE   C4B11788   9.540  15.202   7.731 -0.1630  0.0933 -0.0581
  888YOPE   NH311789  11.865   0.310   5.631 -0.0242  0.2326  0.0266
  888YOPE   PO411790  11.541   0.128   5.723 -0.0320 -0.0290 -0.0480
  888YOPE   GL111791  11.469  -0.130   6.032 -0.0507  0.2617 -0.1163
  888YOPE   GL211792  11.590  -0.082   6.347  0.0284 -0.1388 -0.0262
  888YOPE   C1A11793  11.102  -0.121   6.342 -0.0155  0.3929  0.2637
  888YOPE   D2A11794  10.975  -0.082   6.721 -0.0720  0.1343  0.2494
  888YOPE   C3A11795  11.144  -0.000   7.032  0.2011 -0.1339 -0.0881
  888YOPE   C4A11796  11.207  -0.056   7.456 -0.1416 -0.2207 -0.1314
  888YOPE   C1B11797  11.610  -0.042   6.724 -0.1038 -0.3019 -0.0351
  888YOPE   C2B11798  11.673   0.023   7.249  0.0142 -0.4717 -0.1997
  888YOPE   D3B11799  11.773  -0.124   7.661 -0.1605  0.1642 -0.2961
  888YOPE   C4B11800  12.040  -0.115   7.943 -0.0130 -0.3809  0.0528
  889YOPE   NH311801   7.332   3.817   5.805  0.0431  0.1730  0.1662
  889YOPE   PO411802   7.806   3.740   5.868  0.0905  0.1943  0.0081
  889YOPE   GL111803   7.964   3.727   6.273  0.0200  0.1158 -0.2918
  889YOPE   GL211804   8.308   3.666   6.304  0.0846  0.0686 -0.0678
  889YOPE   C1A11805   7.861   3.766   6.646  0.0038 -0.0362  0.1062
  889YOPE   D2A11806   7.601   3.666   7.031 -0.1864  0.0226 -0.1486
  889YOPE   C3A11807   7.859   3.610   7.413 -0.0306 -0.0770  0.2704
  889YOPE   C4A11808   7.815   3.708   7.856  0.0190  0.0549 -0.1289
  889YOPE   C1B11809   8.349   3.602   6.730  0.2372  0.1536 -0.1496
  889YOPE   C2B11810   8.436   3.422   7.228  0.2772 -0.0071  0.3513
  889YOPE   D3B11811   8.353   3.601   7.566 -0.1643 -0.0456 -0.2480
  889YOPE   C4B11812   8.321   3.848   7.909  0.0262  0.0967  0.3335
  890YOPE   NH311813   2.617   7.343   6.108  0.1930  0.0130 -0.2405
  890YOPE   PO411814   2.229   7.083   6.176  0.0068 -0.2360  0.1629
  890YOPE   GL111815   2.184   7.311   6.601  0.4215 -0.2507  0.2738
  890YOPE   GL211816   2.325   7.611   6.478 -0.1996 -0.1766 -0.2293
  890YOPE   C1A11817   2.382   7.510   6.981 -0.0373  0.0620  0.0356
  890YOPE   D2A11818   2.549   7.911   7.193 -0.1189 -0.2493  0.0399
  890YOPE   C3A11819   2.353   8.025   7.618 -0.1187  0.0721  0.1337
  890YOPE   C4A11820   2.371   7.994   8.021  0.0364  0.1917  0.1114
  890YOPE   C1B11821   2.467   7.994   6.712 -0.3852 -0.0552  0.0472
  890YOPE   C2B11822   2.881   8.204   6.837  0.0817 -0.0924 -0.0360
  890YOPE   D3B11823   3.340   8.150   6.914  0.2056  0.0880 -0.3646
  890YOPE   C4B11824   3.418   8.260   7.295 -0.0370  0.1552  0.2189
  891YOPE   NH311825  10.679  17.328   5.852 -0.0700  0.1689 -0.0340
  891YOPE   PO411826  10.647  17.771   5.706 -0.1851 -0.0949  0.2484
  891YOPE   GL111827  10.621  17.723   6.146 -0.1505  0.0506 -0.1570
  891YOPE   GL211828  10.396  17.437   6.347 -0.2593  0.0585  0.0281
  891YOPE   C1A11829  10.514  17.917   6.469  0.1189  0.0771 -0.1722
  891YOPE   D2A11830  10.491  18.136   6.809  0.0400  0.0760 -0.0695
  891YOPE   C3A11831  10.390  18.000   7.136 -0.1446  0.4922 -0.1708
  891YOPE   C4A11832  10.599  17.868   7.498  0.3244 -0.2310  0.0311
  891YOPE   C1B11833  10.282  17.569   6.778 -0.0333  0.2299  0.0860
  891YOPE   C2B11834  10.178  17.536   7.162 -0.0641  0.0766  0.0625
  891YOPE   D3B11835  10.029  17.748   7.548 -0.1943  0.2817  0.2573
  891YOPE   C4B11836   9.939  18.075   7.784  0.0943  0.0359 -0.2425
  892YOPE   NH311837   9.088  11.114   5.941 -0.2265 -0.3501 -0.4344
  892YOPE   PO411838   9.050  11.604   5.956 -0.0380  0.1331  0.0417
  892YOPE   GL111839   8.912  11.546   6.353  0.1705 -0.1566 -0.0098
  892YOPE   GL211840   8.700  11.154   6.342  0.0901  0.0940  0.0922
  892YOPE   C1A11841   8.644  11.678   6.614  0.1729 -0.1486 -0.0586
  892YOPE   D2A11842   8.722  11.528   7.017  0.0946 -0.0506 -0.2056
  892YOPE   C3A11843   8.551  11.701   7.392  0.2076  0.2412 -0.2040
  892YOPE   C4A11844   8.144  11.730   7.657 -0.1139 -0.0028  0.0119
  892YOPE   C1B11845   8.502  11.189   6.699 -0.2836  0.0288 -0.0538
  892YOPE   C2B11846   8.416  11.072   7.112 -0.3883 -0.0862  0.0214
  892YOPE   D3B11847   8.344  11.266   7.458 -0.1326 -0.1051 -0.0693
  892YOPE   C4B11848   8.519  11.366   7.843  0.2655 -0.0473  0.3330
  893YOPE   NH311849   7.954   4.688   6.055 -0.2053 -0.2079 -0.2226
  893YOPE   PO411850   8.404   4.821   5.920 -0.0040  0.0365 -0.0651
  893YOPE   GL111851   8.480   4.744   6.379 -0.0206 -0.1414  0.1744
  893YOPE   GL211852   8.798   4.811   6.491 -0.2485 -0.1744  0.1484
  893YOPE   C1A11853   8.597   4.431   6.737  0.0554  0.1812  0.1799
  893YOPE   D2A11854   8.675   3.940   6.955  0.1027  0.1042  0.2704
  893YOPE   C3A11855   8.833   3.822   7.306 -0.2349  0.2218 -0.3472
  893YOPE   C4A11856   8.959   3.384   7.403  0.1405  0.0087 -0.1503
  893YOPE   C1B11857   8.859   4.773   6.962 -0.1729  0.0284  0.1985
  893YOPE   C2B11858   8.839   4.970   7.337 -0.3858  0.0416 -0.0022
  893YOPE   D3B11859   8.842   5.250   7.785 -0.0874  0.0247  0.0624
  893YOPE   C4B11860   9.034   5.346   8.177 -0.0967  0.1275  0.2819
  894YOPE   NH311861  13.969  16.156   5.555 -0.0666  0.1036 -0.2373
  894YOPE   PO411862  14.121  16.576   5.628 -0.1414  0.2242  0.3288
  894YOPE   GL111863  14.141  16.705   6.075 -0.1135  0.3345 -0.1114
  894YOPE   GL211864  14.403  16.897   6.250 -0.0480  0.1098  0.2607
  894YOPE   C1A11865  14.032  16.587   6.512  0.0959  0.1869  0.3050
  894YOPE   D2A11866  14.164  16.676   6.922 -0.1312 -0.0198 -0.0995
  894YOPE   C3A11867  14.265  16.405   7.277 -0.0823 -0.2803  0.2521
  894YOPE   C4A11868  14.544  16.615   7.605  0.1856  0.0520 -0.1575
  894YOPE   C1B11869  14.507  16.562   6.525 -0.2918  0.0819 -0.1637
  894YOPE   C2B11870  14.500  16.326   6.847 -0.0439  0.1496 -0.1743
  894YOPE   D3B11871  14.699  16.131   7.247 -0.3474  0.0403  0.0678
  894YOPE   C4B11872  14.677  16.004   7.666  0.0175 -0.1374 -0.4247
  895YOPE   NH311873   3.607   4.701   6.258  0.1082  0.1598 -0.2629
  895YOPE   PO411874   3.530   4.231   6.144  0.0224 -0.0886 -0.1335
  895YOPE   GL111875   3.329   4.165   6.601 -0.1387  0.0049 -0.3180
  895YOPE   GL211876   2.986   4.237   6.644 -0.2507 -0.0192  0.0996
  895YOPE   C1A11877   3.253   4.340   7.025  0.1369  0.2421  0.1533
  895YOPE   D2A11878   3.214   4.315   7.491 -0.0348 -0.1642 -0.0725
  895YOPE   C3A11879   3.156   4.095   7.842  0.2725  0.1482  0.0090
  895YOPE   C4A11880   3.169   3.785   8.191 -0.1834  0.1135  0.1186
  895YOPE   C1B11881   2.926   3.973   7.042 -0.0208 -0.2232  0.0229
  895YOPE   C2B11882   3.215   3.747   7.376  0.0507  0.2091  0.0058
  895YOPE   D3B11883   3.451   3.470   7.760  0.1672 -0.0936  0.0526
  895YOPE   C4B11884   3.391   3.319   8.117  0.1209 -0.0845  0.1175
  896YOPE   NH311885   4.690  18.010   5.983 -0.2702  0.1811  0.3126
  896YOPE   PO411886   4.566  18.386   5.979 -0.1319  0.0655 -0.0800
  896YOPE   GL111887   4.473  18.243   6.352  0.1751  0.1529  0.0076
  896YOPE   GL211888   4.389  17.885   6.391 -0.0448  0.0299  0.0520
  896YOPE   C1A11889   4.348  18.465   6.646 -0.3047 -0.0202  0.0096
  896YOPE   D2A11890   4.386  18.639   7.008 -0.0098 -0.3135 -0.0927
  896YOPE   C3A11891   4.258  18.962   7.161 -0.0968  0.0397  0.4501
  896YOPE   C4A11892   4.490  19.370   7.224  0.2397 -0.3237 -0.0518
  896YOPE   C1B11893   4.267  17.852   6.821 -0.0567 -0.1520 -0.5598
  896YOPE   C2B11894   4.112  17.727   7.296 -0.3443  0.0293  0.2983
  896YOPE   D3B11895   4.008  17.870   7.694 -0.3180  0.0660  0.3881
  896YOPE   C4B11896   3.979  18.007   8.085  0.0573  0.3017  0.1313
  897YOPE   NH311897   6.251   5.249   5.992 -0.0649 -0.1243  0.3226
  897YOPE   PO411898   5.974   5.491   5.873 -0.2206 -0.0831  0.0120
  897YOPE   GL111899   5.874   5.669   6.266 -0.0950  0.2913  0.1096
  897YOPE   GL211900   6.049   5.423   6.401 -0.1593 -0.1711  0.0815
  897YOPE   C1A11901   5.905   5.788   6.653 -0.2007 -0.0552 -0.0717
  897YOPE   D2A11902   5.922   5.856   7.084  0.2099  0.1168 -0.1094
  897YOPE   C3A11903   6.240   6.051   7.270  0.1184 -0.2347 -0.1496
  897YOPE   C4A11904   6.212   6.319   7.713  0.2136 -0.0935  0.2690
  897YOPE   C1B11905   5.789   5.100   6.657 -0.1065  0.4095  0.1287
  897YOPE   C2B11906   5.855   4.930   7.160  0.1227 -0.1637  0.1933
  897YOPE   D3B11907   6.052   4.899   7.529  0.0287 -0.1770  0.0204
  897YOPE   C4B11908   6.022   4.893   7.964 -0.3020 -0.1999 -0.0169
  898YOPE   NH311909   4.341  17.072   5.829  0.0310 -0.0971 -0.0800
  898YOPE   PO411910   4.790  17.026   5.587  0.1239 -0.0751 -0.1654
  898YOPE   GL111911   4.711  16.762   5.991  0.2864  0.1023 -0.1683
  898YOPE   GL211912   4.467  16.693   6.194  0.1359  0.0919 -0.1505
  898YOPE   C1A11913   4.889  16.928   6.320 -0.0296 -0.2997  0.0285
  898YOPE   D2A11914   5.103  17.204   6.638  0.0719 -0.1443  0.0358
  898YOPE   C3A11915   4.981  17.183   6.995 -0.0953 -0.2544  0.0723
  898YOPE   C4A11916   5.418  17.189   7.086  0.0808  0.1800 -0.2370
  898YOPE   C1B11917   4.383  16.480   6.545 -0.2800 -0.0593 -0.2195
  898YOPE   C2B11918   4.388  16.305   6.948 -0.0834 -0.0937  0.0356
  898YOPE   D3B11919   4.369  16.363   7.399 -0.2655 -0.0755 -0.1899
  898YOPE   C4B11920   4.180  16.460   7.772  0.1949  0.0267  0.1960
  899YOPE   NH311921  13.339   1.416   5.664 -0.2579  0.0499 -0.5178
  899YOPE   PO411922  13.752   1.302   5.752  0.5586  0.1026 -0.0917
  899YOPE   GL111923  13.932   1.449   6.139  0.0544 -0.0214 -0.0367
  899YOPE   GL211924  13.951   1.681   6.319  0.1021 -0.2369  0.1477
  899YOPE   C1A11925  14.301   1.304   6.466  0.1633 -0.1882 -0.3054
  899YOPE   D2A11926  14.641   1.201   6.800  0.0687  0.0391 -0.0472
  899YOPE   C3A11927  14.610   0.948   7.141  0.2263  0.0974 -0.3090
  899YOPE   C4A11928  14.747   0.988   7.566 -0.0257  0.2257  0.1110
  899YOPE   C1B11929  13.843   1.510   6.628  0.1553 -0.0020 -0.2032
  899YOPE   C2B11930  14.067   1.436   6.954 -0.0356  0.2159  0.0298
  899YOPE   D3B11931  14.095   1.193   7.293 -0.0102 -0.0432  0.0446
  899YOPE   C4B11932  13.859   1.181   7.593  0.1148  0.2509 -0.1083
  900YOPE   NH311933   6.088  17.296   5.999 -0.1924 -0.4010 -0.1923
  900YOPE   PO411934   5.655  17.226   5.832  0.1135 -0.0412 -0.1282
  900YOPE   GL111935   5.560  16.986   6.200 -0.1464  0.1027  0.4273
  900YOPE   GL211936   5.292  16.559   6.113 -0.0529  0.0557 -0.0378
  900YOPE   C1A11937   5.621  17.056   6.588 -0.2128 -0.0039  0.1973
  900YOPE   D2A11938   5.864  17.033   6.904 -0.2553  0.0985  0.1411
  900YOPE   C3A11939   5.663  16.798   7.256 -0.1396  0.0002  0.1516
  900YOPE   C4A11940   5.601  16.453   7.470 -0.0587 -0.1098 -0.0569
  900YOPE   C1B11941   5.304  16.634   6.493 -0.1039 -0.0602  0.2990
  900YOPE   C2B11942   5.241  16.775   6.856  0.2193  0.0789 -0.0587
  900YOPE   D3B11943   5.197  16.700   7.237 -0.0113  0.0677  0.4346
  900YOPE   C4B11944   5.280  16.879   7.617  0.0321  0.3499 -0.3124
  901YOPE   NH311945   6.744   2.885   5.885 -0.0207 -0.0836  0.1696
  901YOPE   PO411946   7.212   2.942   5.928 -0.2862 -0.0720  0.1125
  901YOPE   GL111947   7.068   3.241   6.289 -0.0933  0.0611 -0.0933
  901YOPE   GL211948   6.773   3.335   6.312 -0.2142  0.5869 -0.1072
  901YOPE   C1A11949   7.192   3.511   6.702  0.0615  0.1198  0.0347
  901YOPE   D2A11950   7.152   3.491   7.192 -0.0867 -0.1386  0.0370
  901YOPE   C3A11951   7.116   3.115   7.461  0.2644 -0.2995 -0.4055
  901YOPE   C4A11952   7.129   3.033   7.891  0.0004  0.0612 -0.3296
  901YOPE   C1B11953   6.679   3.567   6.592  0.0813 -0.0063 -0.1449
  901YOPE   C2B11954   6.552   3.755   6.913 -0.2765 -0.3001  0.1764
  901YOPE   D3B11955   6.337   3.543   7.323  0.0992 -0.3547  0.1923
  901YOPE   C4B11956   6.316   3.506   7.728  0.0739 -0.1008  0.2385
  902YOPE   NH311957   9.960  10.826   5.949  0.1066  0.0193 -0.0668
  902YOPE   PO411958  10.329  11.004   5.976  0.1182  0.0594  0.1573
  902YOPE   GL111959  10.429  11.095   6.303  0.0688 -0.2021  0.1626
  902YOPE   GL211960  10.526  11.393   6.277 -0.1271 -0.1171  0.1188
  902YOPE   C1A11961  10.271  11.231   6.719 -0.0053 -0.1763 -0.3508
  902YOPE   D2A11962  10.005  11.595   6.995 -0.0275  0.2662 -0.0969
  902YOPE   C3A11963   9.895  11.714   7.458 -0.0214 -0.1562  0.1491
  902YOPE   C4A11964   9.908  11.906   7.958  0.0555  0.1775 -0.1262
  902YOPE   C1B11965  10.743  11.752   6.609 -0.1167  0.0294 -0.0048
  902YOPE   C2B11966  10.950  11.782   7.045  0.0635 -0.0870  0.2914
  902YOPE   D3B11967  11.124  11.673   7.396  0.1210  0.1168 -0.0101
  902YOPE   C4B11968  11.149  11.966   7.747 -0.0221  0.0644 -0.1618
  903YOPE   NH311969   5.508   8.619   5.758 -0.1669  0.0223 -0.1320
  903YOPE   PO411970   5.424   8.158   5.766  0.1525 -0.0651  0.1644
  903YOPE   GL111971   5.332   8.345   6.238 -0.0041  0.2638  0.4150
  903YOPE   GL211972   5.221   8.655   6.197  0.0327 -0.3017 -0.1819
  903YOPE   C1A11973   5.469   8.406   6.571  0.0709  0.0204  0.4621
  903YOPE   D2A11974   5.598   8.093   6.929 -0.1299 -0.2642 -0.1558
  903YOPE   C3A11975   5.431   8.012   7.320 -0.0333  0.1883  0.1677
  903YOPE   C4A11976   5.661   7.843   7.747 -0.1758  0.0086  0.1190
  903YOPE   C1B11977   5.329   8.925   6.542  0.0430 -0.0331  0.0542
  903YOPE   C2B11978   5.618   8.876   6.861  0.0847 -0.3579  0.2187
  903YOPE   D3B11979   5.776   8.836   7.273 -0.0984  0.0689  0.4272
  903YOPE   C4B11980   5.814   8.805   7.654 -0.1248  0.0569  0.3091
  904YOPE   NH311981  15.856  14.286   5.709  0.0224  0.1898  0.2161
  904YOPE   PO411982  16.070  14.063   5.892 -0.0680  0.0910  0.2124
  904YOPE   GL111983  16.166  13.951   6.190  0.0236  0.2038 -0.0001
  904YOPE   GL211984  15.944  13.753   6.347  0.0581 -0.1991  0.2707
  904YOPE   C1A11985  16.454  13.998   6.496 -0.2367  0.0643 -0.1257
  904YOPE   D2A11986  16.800  14.097   6.758 -0.2486 -0.0428 -0.1969
  904YOPE   C3A11987  16.860  14.128   7.096 -0.0318  0.1025  0.1979
  904YOPE   C4A11988  16.830  14.150   7.557 -0.1437 -0.2062  0.1849
  904YOPE   C1B11989  15.955  13.526   6.770 -0.2390  0.2342  0.2891
  904YOPE   C2B11990  15.930  13.685   7.140 -0.0365  0.2754  0.1507
  904YOPE   D3B11991  16.021  13.605   7.471 -0.0705  0.0436  0.0314
  904YOPE   C4B11992  16.103  14.009   7.753 -0.4551 -0.0050 -0.1113
  905YOPE   NH311993   6.727   4.193   5.502  0.1181 -0.0351 -0.0771
  905YOPE   PO411994   6.852   3.904   5.824 -0.1036  0.1294  0.1308
  905YOPE   GL111995   6.988   3.794   6.284  0.2322 -0.1439 -0.0888
  905YOPE   GL211996   7.424   3.866   6.382 -0.0620  0.1110  0.0621
  905YOPE   C1A11997   7.076   3.993   6.691  0.2151 -0.2629 -0.0533
  905YOPE   D2A11998   7.155   3.991   7.110 -0.0138  0.1852 -0.0321
  905YOPE   C3A11999   6.785   3.758   7.392 -0.1665 -0.2493  0.0868
  905YOPE   C4A12000   6.848   3.513   7.721 -0.1710 -0.2030  0.0370
  905YOPE   C1B12001   7.632   4.195   6.695  0.1226 -0.3459 -0.1884
  905YOPE   C2B12002   7.635   4.252   7.155 -0.0631 -0.2177  0.1149
  905YOPE   D3B12003   7.510   3.999   7.479 -0.0848  0.0582 -0.2563
  905YOPE   C4B12004   7.323   3.613   7.664 -0.2494 -0.2888 -0.3879
  906YOPE   NH312005   4.362  13.344   5.740  0.1189 -0.1730 -0.0634
  906YOPE   PO412006   3.968  13.540   5.692 -0.0733  0.1512  0.2452
  906YOPE   GL112007   3.966  13.597   6.101  0.0432  0.0779 -0.1860
  906YOPE   GL212008   4.068  13.325   6.220  0.0982  0.3002  0.2745
  906YOPE   C1A12009   3.813  13.648   6.530 -0.0937 -0.1058  0.0417
  906YOPE   D2A12010   3.797  13.767   7.000  0.1448  0.1445 -0.0120
  906YOPE   C3A12011   3.895  13.792   7.432  0.0473 -0.1386 -0.1385
  906YOPE   C4A12012   3.688  13.545   7.734  0.0074  0.0796  0.1036
  906YOPE   C1B12013   3.936  13.153   6.588  0.0819 -0.0556  0.0258
  906YOPE   C2B12014   3.702  13.186   6.902 -0.2955 -0.3020 -0.2083
  906YOPE   D3B12015   3.550  13.344   7.245  0.0176 -0.1141 -0.0157
  906YOPE   C4B12016   3.210  13.374   7.555 -0.1977  0.1180  0.2227
  907YOPE   NH312017  18.053   2.594   5.319 -0.0517 -0.0140 -0.1530
  907YOPE   PO412018  17.651   2.578   5.441 -0.0310  0.4642 -0.2730
  907YOPE   GL112019  17.663   2.498   5.932  0.1829 -0.0428  0.0706
  907YOPE   GL212020  17.492   2.531   6.158  0.1327 -0.0867 -0.0946
  907YOPE   C1A12021  18.060   2.288   6.183 -0.0723  0.1253 -0.0815
  907YOPE   D2A12022  18.259   2.274   6.664 -0.1794 -0.0384 -0.0499
  907YOPE   C3A12023  18.386   2.295   7.132  0.0408  0.0702  0.0368
  907YOPE   C4A12024  18.451   2.356   7.523 -0.0889  0.0110  0.1257
  907YOPE   C1B12025  17.750   2.467   6.512 -0.1120 -0.0972 -0.2528
  907YOPE   C2B12026  17.930   2.476   7.041  0.1611 -0.1307 -0.0713
  907YOPE   D3B12027  17.928   2.290   7.476  0.0304 -0.1368 -0.1360
  907YOPE   C4B12028  17.697   2.058   7.768 -0.1605 -0.1098  0.0458
  908YOPE   NH312029  17.849  16.365   6.134  0.0778 -0.4452 -0.0343
  908YOPE   PO412030  17.963  16.806   6.123 -0.0303  0.1107  0.0222
  908YOPE   GL112031  18.224  16.678   6.506 -0.0035 -0.1735 -0.1568
  908YOPE   GL212032  18.497  16.495   6.453  0.2579  0.0252 -0.1773
  908YOPE   C1A12033  18.282  16.615   6.909  0.0098 -0.0549 -0.0016
  908YOPE   D2A12034  18.614  16.519   7.264  0.0116 -0.3794  0.3981
  908YOPE   C3A12035  18.577  16.656   7.649 -0.6229 -0.0888 -0.0432
  908YOPE   C4A12036  18.528  16.903   8.025  0.0407 -0.0154  0.4002
  908YOPE   C1B12037  18.715  16.502   6.797 -0.3589  0.0314  0.1052
  908YOPE   C2B12038  18.971  16.273   7.047 -0.2065 -0.0543 -0.2373
  908YOPE   D3B12039  19.249  16.370   7.285 -0.0044 -0.3292  0.1484
  908YOPE   C4B12040  19.539  16.125   7.482 -0.2627  0.0413 -0.3372
  909YOPE   NH312041   6.947   2.050   5.968  0.0228  0.0206 -0.0427
  909YOPE   PO412042   6.654   2.407   5.988 -0.2473 -0.0073  0.1006
  909YOPE   GL112043   6.653   2.301   6.389  0.3292 -0.2323  0.1098
  909YOPE   GL212044   6.460   2.090   6.536  0.0993 -0.1147  0.2111
  909YOPE   C1A12045   6.613   2.577   6.870  0.2517  0.0149 -0.3478
  909YOPE   D2A12046   6.955   2.737   7.164 -0.0755  0.0506  0.1550
  909YOPE   C3A12047   6.884   2.647   7.617 -0.1990 -0.0433 -0.0122
  909YOPE   C4A12048   6.474   2.738   7.898  0.3840  0.1432 -0.0117
  909YOPE   C1B12049   6.451   1.714   6.565  0.1541 -0.3021  0.0835
  909YOPE   C2B12050   6.718   1.576   6.838  0.0090  0.1946 -0.0823
  909YOPE   D3B12051   7.008   1.561   7.220 -0.0863 -0.0588 -0.0059
  909YOPE   C4B12052   6.944   1.772   7.665  0.2474  0.2803  0.0384
  910YOPE   NH312053  11.472  14.591   6.330 -0.0109 -0.0217  0.2198
  910YOPE   PO412054  11.444  14.184   6.283  0.0299  0.0781 -0.0122
  910YOPE   GL112055  11.506  14.130   6.691  0.3454 -0.3477  0.0028
  910YOPE   GL212056  11.590  13.837   6.618  0.2310  0.2086 -0.0936
  910YOPE   C1A12057  11.705  14.230   7.039  0.3871 -0.1676 -0.0966
  910YOPE   D2A12058  11.938  14.450   7.358  0.0176  0.0290  0.1010
  910YOPE   C3A12059  11.866  14.380   7.792  0.1815  0.2984 -0.0256
  910YOPE   C4A12060  11.952  14.239   8.226 -0.0290 -0.0345  0.0646
  910YOPE   C1B12061  11.957  13.813   6.782 -0.2416  0.3520  0.3749
  910YOPE   C2B12062  12.256  13.949   7.148 -0.1138 -0.0688  0.1715
  910YOPE   D3B12063  12.204  14.053   7.618 -0.0702  0.1082 -0.1602
  910YOPE   C4B12064  11.930  13.815   7.924 -0.0368 -0.0418 -0.0080
  911YOPE   NH312065  11.945  17.651   5.231 -0.0178  0.1278  0.2747
  911YOPE   PO412066  12.053  17.551   5.615  0.3220  0.0231  0.2975
  911YOPE   GL112067  12.325  17.431   5.960  0.0438  0.1368 -0.3504
  911YOPE   GL212068  12.444  17.139   6.053 -0.0370 -0.1335 -0.1491
  911YOPE   C1A12069  12.326  17.579   6.313  0.0238  0.1382 -0.1349
  911YOPE   D2A12070  12.548  17.856   6.607  0.0402  0.0508 -0.3040
  911YOPE   C3A12071  12.526  17.908   7.032 -0.2102  0.1509  0.2729
  911YOPE   C4A12072  12.619  17.867   7.417 -0.0287 -0.0454 -0.1379
  911YOPE   C1B12073  12.161  17.068   6.341 -0.3266  0.1959  0.0575
  911YOPE   C2B12074  12.238  17.354   6.793 -0.0150  0.1142 -0.1432
  911YOPE   D3B12075  12.348  17.423   7.203 -0.3278 -0.2362 -0.1015
  911YOPE   C4B12076  12.597  17.414   7.686  0.0954 -0.2792  0.1836
  912YOPE   NH312077   0.136   9.898   6.125 -0.1648  0.1381  0.2011
  912YOPE   PO412078  -0.343  10.034   5.935 -0.1411 -0.1138 -0.0379
  912YOPE   GL112079  -0.331  10.222   6.382 -0.0938 -0.1731  0.0468
  912YOPE   GL212080  -0.204   9.946   6.578 -0.1958  0.1762 -0.2398
  912YOPE   C1A12081  -0.442  10.225   6.899  0.0511 -0.0622 -0.0171
  912YOPE   D2A12082  -0.500  10.361   7.312  0.0308 -0.0547  0.3201
  912YOPE   C3A12083  -0.448  10.346   7.693 -0.1519  0.2351 -0.1525
  912YOPE   C4A12084  -0.277  10.526   8.048 -0.4414 -0.1657  0.0403
  912YOPE   C1B12085   0.047   9.801   6.905 -0.0100 -0.1673  0.0183
  912YOPE   C2B12086   0.253   9.690   7.257 -0.3643 -0.3200  0.0215
  912YOPE   D3B12087   0.229   9.758   7.675 -0.0154 -0.2201 -0.2394
  912YOPE   C4B12088   0.057   9.616   7.974 -0.1700  0.1136  0.3635
  913YOPE   NH312089   0.659  13.957   5.424  0.0467 -0.1559 -0.3175
  913YOPE   PO412090   0.902  14.368   5.357 -0.0619  0.1072  0.2242
  913YOPE   GL112091   0.980  14.395   5.836 -0.0623 -0.0657 -0.1279
  913YOPE   GL212092   0.908  14.303   6.161 -0.3511 -0.1867  0.2072
  913YOPE   C1A12093   1.172  14.732   6.078 -0.2917  0.0821 -0.2200
  913YOPE   D2A12094   1.501  14.959   6.020  0.0963 -0.1035 -0.0385
  913YOPE   C3A12095   1.900  14.741   6.095 -0.0864 -0.1096  0.0275
  913YOPE   C4A12096   2.002  14.278   5.893  0.0055  0.0339  0.1555
  913YOPE   C1B12097   0.890  14.413   6.495  0.0798  0.0258 -0.0060
  913YOPE   C2B12098   0.965  14.525   6.891 -0.2380  0.0656  0.0265
  913YOPE   D3B12099   1.083  14.466   7.267  0.0662 -0.0091 -0.0613
  913YOPE   C4B12100   1.249  14.728   7.582  0.0678 -0.1782  0.0326
  914YOPE   NH312101   4.162   9.604   5.945  0.2580 -0.2523 -0.0817
  914YOPE   PO412102   3.719   9.429   6.106 -0.2275 -0.0055 -0.3081
  914YOPE   GL112103   4.046   9.452   6.421  0.1668 -0.0276  0.0337
  914YOPE   GL212104   4.056   9.803   6.437 -0.1487 -0.2135  0.2321
  914YOPE   C1A12105   4.248   9.629   6.891  0.2311  0.0633 -0.1034
  914YOPE   D2A12106   4.248   9.651   7.315 -0.2904  0.2098 -0.0633
  914YOPE   C3A12107   4.231   9.737   7.723  0.1594 -0.4213  0.4480
  914YOPE   C4A12108   4.088   9.655   8.090 -0.1362  0.0715  0.3069
  914YOPE   C1B12109   3.820   9.832   6.794 -0.1281  0.0201 -0.3047
  914YOPE   C2B12110   3.773   9.883   7.310 -0.1555  0.1698 -0.0634
  914YOPE   D3B12111   4.033  10.165   7.632  0.1123  0.0985 -0.2021
  914YOPE   C4B12112   4.046  10.147   8.051  0.1327 -0.1317 -0.1748
  915YOPE   NH312113  14.054  11.193   5.943  0.0737 -0.2842  0.1111
  915YOPE   PO412114  13.698  11.219   6.258  0.2221  0.1722  0.1219
  915YOPE   GL112115  13.734  11.082   6.741  0.1381 -0.0083  0.1400
  915YOPE   GL212116  13.664  10.747   6.652  0.0539 -0.2063  0.1175
  915YOPE   C1A12117  13.795  11.009   7.126  0.2755 -0.0753  0.4386
  915YOPE   D2A12118  13.690  11.094   7.624  0.1958  0.0676 -0.2002
  915YOPE   C3A12119  13.698  11.163   8.074 -0.0232  0.0917  0.0537
  915YOPE   C4A12120  13.648  11.274   8.475  0.3295 -0.1119 -0.0742
  915YOPE   C1B12121  13.602  10.406   6.996  0.0674  0.0471 -0.0830
  915YOPE   C2B12122  13.467  10.073   7.318 -0.0824 -0.0303  0.0463
  915YOPE   D3B12123  13.449   9.599   7.252 -0.1197 -0.2794 -0.2370
  915YOPE   C4B12124  13.613   9.202   7.227  0.0890  0.3318 -0.3739
  916YOPE   NH312125   0.233   8.182   6.167 -0.2269  0.0088 -0.0400
  916YOPE   PO412126   0.624   8.198   6.321 -0.1305  0.0159 -0.1925
  916YOPE   GL112127   0.486   8.342   6.658  0.3572  0.0119 -0.1148
  916YOPE   GL212128   0.240   8.167   6.710  0.3968  0.0396  0.1728
  916YOPE   C1A12129   0.562   8.222   7.232  0.1624  0.0297  0.0748
  916YOPE   D2A12130   0.602   8.130   7.631  0.1508  0.1467 -0.2148
  916YOPE   C3A12131   0.822   8.273   7.910 -0.0612  0.0739 -0.2746
  916YOPE   C4A12132   0.944   8.286   8.290 -0.2132 -0.0220  0.0262
  916YOPE   C1B12133   0.334   7.793   7.021 -0.0263  0.3543  0.1160
  916YOPE   C2B12134   0.322   7.637   7.465  0.0404 -0.3338 -0.0178
  916YOPE   D3B12135   0.339   7.790   7.832 -0.1320 -0.2178  0.1839
  916YOPE   C4B12136   0.453   7.990   8.235  0.1360 -0.1041 -0.0092
  917YOPE   NH312137   4.286  13.970   5.780 -0.2226 -0.2995  0.1384
  917YOPE   PO412138   3.889  14.043   5.661  0.0960  0.2228 -0.2153
  917YOPE   GL112139   3.876  14.165   6.035  0.1840 -0.3590  0.1210
  917YOPE   GL212140   4.082  14.071   6.206 -0.1880 -0.2414  0.1432
  917YOPE   C1A12141   3.805  14.369   6.433 -0.0852 -0.0702  0.0286
  917YOPE   D2A12142   3.715  14.390   6.856  0.1264  0.0527 -0.0797
  917YOPE   C3A12143   3.781  14.253   7.216  0.1063 -0.0232  0.2551
  917YOPE   C4A12144   3.650  14.269   7.633  0.0984 -0.3952  0.0438
  917YOPE   C1B12145   4.086  14.078   6.729 -0.0906 -0.1079  0.3681
  917YOPE   C2B12146   4.311  13.825   7.165 -0.0783  0.2540  0.0574
  917YOPE   D3B12147   4.395  13.647   7.603  0.1930  0.1386 -0.1910
  917YOPE   C4B12148   4.627  13.554   7.965 -0.1197  0.0820  0.0397
  918YOPE   NH312149  15.750   4.391   5.905  0.3193 -0.3257  0.1208
  918YOPE   PO412150  15.986   4.753   5.593  0.3772  0.1018 -0.0629
  918YOPE   GL112151  15.887   4.846   6.173 -0.0183 -0.2385  0.3568
  918YOPE   GL212152  16.000   4.569   6.387 -0.1070 -0.0072  0.2263
  918YOPE   C1A12153  15.876   5.168   6.472  0.2391  0.1071  0.0542
  918YOPE   D2A12154  15.658   5.219   6.804  0.0135 -0.1632 -0.0084
  918YOPE   C3A12155  15.311   5.380   7.060  0.2808  0.1109  0.1660
  918YOPE   C4A12156  15.270   5.387   7.453  0.1508 -0.0198 -0.1626
  918YOPE   C1B12157  15.949   4.712   6.828  0.0466 -0.1369 -0.1351
  918YOPE   C2B12158  16.064   4.740   7.312  0.1604 -0.0194 -0.0805
  918YOPE   D3B12159  16.007   4.551   7.603 -0.0848 -0.0386  0.1667
  918YOPE   C4B12160  16.042   4.312   7.972 -0.2214 -0.0670 -0.0878
  919YOPE   NH312161   5.241   0.908   5.733  0.1500 -0.2923 -0.0012
  919YOPE   PO412162   5.738   1.134   5.775 -0.1164  0.1584 -0.0674
  919YOPE   GL112163   5.719   0.859   6.091 -0.0899 -0.1457 -0.1553
  919YOPE   GL212164   5.738   1.076   6.300 -0.0573  0.2867  0.3001
  919YOPE   C1A12165   5.672   0.624   6.546 -0.1331  0.2404 -0.2781
  919YOPE   D2A12166   5.845   0.495   6.811 -0.1517 -0.1013 -0.3535
  919YOPE   C3A12167   5.802   0.438   7.254  0.0175  0.5182 -0.2283
  919YOPE   C4A12168   5.909   0.483   7.680 -0.0774 -0.0585  0.1356
  919YOPE   C1B12169   5.550   1.195   6.621 -0.1158  0.1012 -0.0844
  919YOPE   C2B12170   5.563   1.300   7.033 -0.0728 -0.3028  0.2138
  919YOPE   D3B12171   5.662   1.402   7.537  0.2094  0.1416  0.0320
  919YOPE   C4B12172   5.505   1.219   7.939 -0.0207  0.1563  0.1024
  920YOPE   NH312173  17.278   9.840   5.822 -0.0074  0.1868  0.3103
  920YOPE   PO412174  17.309  10.258   6.246 -0.3458 -0.2084 -0.1934
  920YOPE   GL112175  17.144  10.347   6.641  0.0583 -0.0974  0.2944
  920YOPE   GL212176  17.125  10.039   6.834 -0.1651 -0.3148  0.1577
  920YOPE   C1A12177  17.167  10.538   6.983  0.1094 -0.2898  0.0371
  920YOPE   D2A12178  16.952  10.917   7.330 -0.0506 -0.0923  0.1302
  920YOPE   C3A12179  16.867  10.860   7.802 -0.2387 -0.0175 -0.1567
  920YOPE   C4A12180  16.986  10.777   8.251 -0.3743  0.2357  0.3052
  920YOPE   C1B12181  17.210  10.036   7.217 -0.0658  0.2488  0.0781
  920YOPE   C2B12182  17.264  10.036   7.683 -0.5995  0.2037 -0.0874
  920YOPE   D3B12183  17.352  10.259   8.102 -0.0026  0.0168  0.1718
  920YOPE   C4B12184  17.137  10.272   8.407  0.1081 -0.0449 -0.0608
  921YOPE   NH312185  14.263   4.767   6.164  0.0950 -0.0480 -0.0646
  921YOPE   PO412186  14.221   4.359   6.105  0.2177  0.0715 -0.0665
  921YOPE   GL112187  14.021   4.224   6.459 -0.1959  0.1562  0.0120
  921YOPE   GL212188  13.711   4.197   6.547  0.0308 -0.2018  0.2708
  921YOPE   C1A12189  14.220   3.952   6.823 -0.0777 -0.0271 -0.0102
  921YOPE   D2A12190  14.417   3.791   7.236  0.1182 -0.2540 -0.0500
  921YOPE   C3A12191  14.795   3.676   7.313 -0.1824 -0.1888  0.2292
  921YOPE   C4A12192  15.127   3.929   7.530  0.2018 -0.0520 -0.2215
  921YOPE   C1B12193  13.726   4.016   6.980  0.1507 -0.0471  0.1180
  921YOPE   C2B12194  13.756   3.940   7.343 -0.1046 -0.2185  0.2641
  921YOPE   D3B12195  13.806   4.228   7.746  0.1628 -0.1517  0.3270
  921YOPE   C4B12196  13.946   4.283   8.227 -0.1616 -0.1297 -0.2021
  922YOPE   NH312197  12.775  12.715   5.875  0.1698 -0.0717  0.1471
  922YOPE   PO412198  13.243  12.644   5.884 -0.1049  0.2274  0.3320
  922YOPE   GL112199  13.394  12.495   6.252  0.0627 -0.2694  0.1658
  922YOPE   GL212200  13.189  12.256   6.446 -0.2487  0.0776 -0.1221
  922YOPE   C1A12201  13.481  12.772   6.638  0.1424 -0.0061 -0.1682
  922YOPE   D2A12202  13.502  12.672   7.092  0.2113  0.1522  0.1391
  922YOPE   C3A12203  13.473  12.678   7.557 -0.0526 -0.0849 -0.0449
  922YOPE   C4A12204  13.731  12.758   7.863  0.1012  0.0550  0.3048
  922YOPE   C1B12205  13.407  12.189   6.760 -0.0539  0.0990 -0.1585
  922YOPE   C2B12206  13.493  12.184   7.183 -0.0030 -0.0306  0.1828
  922YOPE   D3B12207  13.598  12.139   7.614  0.0464 -0.0391 -0.1796
  922YOPE   C4B12208  13.664  12.307   8.001 -0.2080  0.2104  0.1423
  923YOPE   NH312209   3.538   7.193   5.901 -0.0934  0.2715  0.0726
  923YOPE   PO412210   3.911   7.341   6.096  0.3705  0.0673  0.0614
  923YOPE   GL112211   3.963   7.215   6.465  0.1433  0.2296 -0.1453
  923YOPE   GL212212   4.205   7.090   6.401  0.2908  0.1148  0.0835
  923YOPE   C1A12213   3.834   7.062   6.986 -0.2975  0.0081  0.1812
  923YOPE   D2A12214   3.712   7.121   7.348 -0.1857 -0.2378 -0.2648
  923YOPE   C3A12215   3.600   7.385   7.626  0.2228 -0.1819 -0.2658
  923YOPE   C4A12216   3.834   7.686   8.049  0.2731  0.0788  0.0009
  923YOPE   C1B12217   4.347   6.949   6.846  0.2932 -0.0263  0.0605
  923YOPE   C2B12218   4.217   6.987   7.273 -0.1133  0.0109 -0.0279
  923YOPE   D3B12219   4.092   7.072   7.743 -0.0757 -0.1464  0.1350
  923YOPE   C4B12220   4.284   7.169   8.259 -0.0348 -0.0469 -0.2190
  924YOPE   NH312221   1.499  17.206   5.632 -0.0453  0.0163  0.3147
  924YOPE   PO412222   1.356  17.683   5.823 -0.1010  0.3791 -0.1504
  924YOPE   GL112223   1.370  17.932   6.173 -0.0327 -0.0390  0.0797
  924YOPE   GL212224   1.146  18.152   6.285  0.0383  0.1389  0.0040
  924YOPE   C1A12225   1.631  17.903   6.493 -0.0966 -0.0749 -0.0708
  924YOPE   D2A12226   1.465  18.033   6.887  0.0384 -0.1269  0.2681
  924YOPE   C3A12227   1.701  18.123   7.276 -0.0638  0.0666 -0.2735
  924YOPE   C4A12228   1.719  18.133   7.729  0.1927  0.2042  0.1069
  924YOPE   C1B12229   0.947  18.198   6.694  0.0247 -0.0319 -0.0923
  924YOPE   C2B12230   0.870  18.036   7.152 -0.0990 -0.0161  0.0816
  924YOPE   D3B12231   0.766  17.985   7.548 -0.0699 -0.1668 -0.1341
  924YOPE   C4B12232   0.582  17.699   7.910 -0.1127  0.0382 -0.1583
  925YOPE   NH312233   3.327   9.118   6.014  0.0179 -0.0553 -0.0600
  925YOPE   PO412234   3.500   8.809   6.256  0.2564 -0.1107  0.2384
  925YOPE   GL112235   3.535   9.167   6.493 -0.0079  0.0721 -0.3749
  925YOPE   GL212236   3.485   8.983   6.754  0.0795  0.0664 -0.1304
  925YOPE   C1A12237   3.477   9.429   6.844  0.0503  0.2402 -0.2929
  925YOPE   D2A12238   3.379   9.700   7.090  0.1986 -0.2233 -0.1620
  925YOPE   C3A12239   3.251   9.605   7.477 -0.0832  0.0298 -0.1376
  925YOPE   C4A12240   3.254   9.549   7.932  0.0095  0.3214 -0.2127
  925YOPE   C1B12241   3.393   9.081   7.243  0.4978 -0.2448  0.3391
  925YOPE   C2B12242   3.296   8.976   7.727  0.0543  0.0781 -0.1249
  925YOPE   D3B12243   3.267   9.034   8.135  0.1358  0.0899  0.0477
  925YOPE   C4B12244   2.998   9.088   8.427  0.0176 -0.2250 -0.0345
  926YOPE   NH312245  12.881   7.449   6.167 -0.1533 -0.0818  0.1960
  926YOPE   PO412246  13.160   7.852   6.020  0.1326 -0.2811 -0.1710
  926YOPE   GL112247  13.069   7.953   6.389  0.0470 -0.2467 -0.2160
  926YOPE   GL212248  12.762   7.840   6.434  0.1035  0.2776 -0.2672
  926YOPE   C1A12249  13.195   8.162   6.785  0.1321  0.0389 -0.0726
  926YOPE   D2A12250  13.167   8.264   7.210  0.1510 -0.1336 -0.1863
  926YOPE   C3A12251  13.479   8.296   7.525  0.1012  0.2110 -0.0495
  926YOPE   C4A12252  13.848   8.215   7.711  0.0738 -0.0900  0.1462
  926YOPE   C1B12253  12.765   7.967   6.845  0.0241 -0.1230  0.0977
  926YOPE   C2B12254  12.705   8.071   7.373 -0.0546  0.0066  0.1198
  926YOPE   D3B12255  12.988   8.344   7.693 -0.0182 -0.0275  0.0156
  926YOPE   C4B12256  13.075   8.365   8.070 -0.1382 -0.0351  0.1285
  927YOPE   NH312257   0.631  13.930   5.954 -0.3067 -0.0471  0.0560
  927YOPE   PO412258   0.433  13.644   5.963 -0.2617 -0.1113 -0.0895
  927YOPE   GL112259   0.278  13.634   6.360 -0.0913 -0.0208 -0.2101
  927YOPE   GL212260   0.045  13.434   6.409  0.2057 -0.0039 -0.2417
  927YOPE   C1A12261   0.350  13.849   6.819 -0.1296 -0.0188  0.0681
  927YOPE   D2A12262   0.400  13.956   7.200 -0.0544 -0.0981 -0.0341
  927YOPE   C3A12263   0.749  14.086   7.425 -0.0840 -0.2359  0.1052
  927YOPE   C4A12264   0.874  14.292   7.809 -0.1130 -0.2686 -0.0867
  927YOPE   C1B12265   0.012  13.178   6.816  0.0434 -0.3581  0.1830
  927YOPE   C2B12266  -0.071  12.972   7.226  0.1606  0.0622  0.2223
  927YOPE   D3B12267  -0.015  12.823   7.572  0.0164  0.0377  0.1420
  927YOPE   C4B12268   0.220  12.860   7.992 -0.0458  0.0540  0.3635
  928YOPE   NH312269  16.825  15.496   6.022 -0.0637  0.5127 -0.1707
  928YOPE   PO412270  16.449  15.755   6.007  0.1522 -0.0736 -0.0084
  928YOPE   GL112271  16.450  15.625   6.394 -0.1170  0.2495  0.1838
  928YOPE   GL212272  16.484  15.154   6.341  0.0354  0.1933  0.2107
  928YOPE   C1A12273  16.343  15.422   6.759 -0.1660  0.3066 -0.0981
  928YOPE   D2A12274  16.342  15.025   7.081  0.0205  0.0116 -0.1111
  928YOPE   C3A12275  16.391  15.023   7.473  0.1931 -0.3077 -0.1971
  928YOPE   C4A12276  16.589  15.098   7.898  0.1083 -0.1470  0.0385
  928YOPE   C1B12277  16.653  14.940   6.715 -0.1102 -0.2711  0.2711
  928YOPE   C2B12278  16.639  14.566   7.004 -0.2356  0.0184  0.0182
  928YOPE   D3B12279  16.325  14.207   6.925  0.1993  0.0346 -0.2501
  928YOPE   C4B12280  16.041  14.026   6.751 -0.3750 -0.1039  0.1052
  929YOPE   NH312281  11.700   3.444   5.764 -0.0674 -0.1577 -0.0184
  929YOPE   PO412282  11.333   3.684   5.975 -0.2020 -0.2478 -0.0331
  929YOPE   GL112283  11.504   3.511   6.322  0.1955 -0.2335 -0.1697
  929YOPE   GL212284  11.563   3.311   6.210  0.3295 -0.0405  0.0784
  929YOPE   C1A12285  11.457   3.388   6.779  0.0184 -0.2896 -0.0963
  929YOPE   D2A12286  11.431   3.482   7.154  0.2206 -0.0164 -0.1662
  929YOPE   C3A12287  11.723   3.406   7.454  0.0889  0.0154 -0.1119
  929YOPE   C4A12288  12.050   3.209   7.649 -0.0733  0.3012 -0.1070
  929YOPE   C1B12289  11.756   2.985   6.450 -0.0910 -0.1211 -0.1021
  929YOPE   C2B12290  11.637   2.572   6.764  0.2464  0.2964  0.3125
  929YOPE   D3B12291  11.449   2.442   7.206  0.1152 -0.0254 -0.1260
  929YOPE   C4B12292  11.395   2.294   7.673  0.3106 -0.1316  0.1729
  930YOPE   NH312293  13.807  17.013   5.699 -0.3548 -0.1821  0.2315
  930YOPE   PO412294  14.013  17.389   5.557 -0.0598 -0.0478  0.0937
  930YOPE   GL112295  13.999  17.333   6.029  0.1740 -0.0871  0.4403
  930YOPE   GL212296  14.373  17.421   6.092 -0.2353  0.1446 -0.1130
  930YOPE   C1A12297  13.873  17.456   6.419  0.1041  0.2930 -0.4051
  930YOPE   D2A12298  13.964  17.485   6.811 -0.1752 -0.0604  0.1538
  930YOPE   C3A12299  14.047  17.179   7.047  0.2788 -0.0898 -0.1855
  930YOPE   C4A12300  14.411  16.938   7.290 -0.3683  0.2246  0.1037
  930YOPE   C1B12301  14.372  17.455   6.527  0.1122  0.2384 -0.1166
  930YOPE   C2B12302  14.421  17.537   6.912  0.1582 -0.2160  0.1266
  930YOPE   D3B12303  14.349  17.434   7.297 -0.2265 -0.1595  0.1771
  930YOPE   C4B12304  14.054  17.290   7.587  0.1534 -0.1369  0.1208
  931YOPE   NH312305   4.878   4.565   5.940 -0.0117  0.1871 -0.1407
  931YOPE   PO412306   4.621   4.280   6.198 -0.1926  0.1551  0.2815
  931YOPE   GL112307   4.908   3.931   6.347  0.1188  0.1545  0.3245
  931YOPE   GL212308   5.203   3.990   6.586  0.3462 -0.4686 -0.1868
  931YOPE   C1A12309   4.936   3.595   6.627  0.0988 -0.0295  0.0900
  931YOPE   D2A12310   4.946   3.152   6.633  0.0229 -0.0046 -0.0475
  931YOPE   C3A12311   4.988   3.042   7.074  0.0087  0.1429  0.1600
  931YOPE   C4A12312   5.224   3.211   7.424 -0.1558  0.2304 -0.1310
  931YOPE   C1B12313   4.997   3.952   6.997 -0.0157  0.0679  0.1460
  931YOPE   C2B12314   5.128   3.935   7.416 -0.1391 -0.2777  0.1928
  931YOPE   D3B12315   5.042   3.605   7.684  0.0386  0.1002  0.1278
  931YOPE   C4B12316   5.138   3.125   7.944  0.0232  0.1796 -0.0632
  932YOPE   NH312317  13.397  12.124   5.900  0.3432  0.0314  0.1670
  932YOPE   PO412318  13.822  12.020   5.935 -0.0537  0.0813  0.1429
  932YOPE   GL112319  13.872  12.159   6.319  0.1621 -0.3260 -0.0977
  932YOPE   GL212320  13.845  12.546   6.463 -0.0852 -0.1493  0.3142
  932YOPE   C1A12321  14.030  11.907   6.649  0.0252 -0.2872 -0.0690
  932YOPE   D2A12322  13.885  11.945   7.068  0.2266  0.0186  0.2093
  932YOPE   C3A12323  14.079  11.929   7.422 -0.1310 -0.1486 -0.0306
  932YOPE   C4A12324  14.111  11.828   7.888 -0.0421  0.0376  0.0699
  932YOPE   C1B12325  13.928  12.415   6.850  0.0434  0.0285  0.0429
  932YOPE   C2B12326  13.944  12.377   7.276 -0.3065 -0.1978  0.1354
  932YOPE   D3B12327  14.057  12.371   7.685 -0.0938  0.2103 -0.0120
  932YOPE   C4B12328  14.279  12.211   8.187  0.0970  0.1056 -0.0098
  933YOPE   NH312329  14.832  15.648   5.490 -0.1254  0.1148  0.1488
  933YOPE   PO412330  14.573  15.224   5.365 -0.0347 -0.1649  0.1139
  933YOPE   GL112331  14.466  15.425   5.761 -0.1180  0.0790  0.0372
  933YOPE   GL212332  14.734  15.226   5.802  0.1894 -0.3863 -0.0488
  933YOPE   C1A12333  14.311  15.724   6.199  0.3206 -0.1153 -0.1398
  933YOPE   D2A12334  14.560  15.585   6.591  0.1586 -0.0852  0.0794
  933YOPE   C3A12335  14.413  15.805   7.008  0.1394 -0.1383 -0.0125
  933YOPE   C4A12336  14.221  15.878   7.404 -0.1059 -0.0491  0.3580
  933YOPE   C1B12337  14.457  15.105   6.155 -0.2740  0.1818 -0.1694
  933YOPE   C2B12338  14.250  15.225   6.494  0.0385 -0.1683 -0.1475
  933YOPE   D3B12339  14.008  15.062   6.717 -0.0059  0.1867  0.1419
  933YOPE   C4B12340  13.946  14.714   6.980  0.1741 -0.0590 -0.0349
  934YOPE   NH312341  16.842  13.071   6.160 -0.0428  0.1588 -0.2267
  934YOPE   PO412342  16.490  13.070   6.050 -0.0488 -0.1216 -0.0827
  934YOPE   GL112343  16.572  12.924   6.547  0.1114 -0.0295  0.3354
  934YOPE   GL212344  16.202  12.842   6.632  0.0234 -0.0602 -0.2254
  934YOPE   C1A12345  16.447  12.647   7.027  0.0294 -0.2490 -0.0425
  934YOPE   D2A12346  16.321  12.358   7.293 -0.0411 -0.0321  0.0791
  934YOPE   C3A12347  16.359  12.302   7.656 -0.0321 -0.0035 -0.3245
  934YOPE   C4A12348  16.459  12.157   8.125  0.1438  0.1476 -0.0616
  934YOPE   C1B12349  16.374  13.157   7.015 -0.0075 -0.0546  0.1508
  934YOPE   C2B12350  16.446  13.257   7.468  0.0320 -0.0335 -0.2842
  934YOPE   D3B12351  16.665  13.134   7.847  0.0015 -0.0516  0.1038
  934YOPE   C4B12352  16.984  13.126   8.099 -0.0124  0.2044  0.0203
  935YOPE   NH312353   0.722   2.019   5.519  0.5640  0.2578  0.1031
  935YOPE   PO412354   1.054   2.277   5.601  0.0693 -0.0446 -0.1752
  935YOPE   GL112355   1.306   2.106   5.907  0.1391 -0.1277  0.1004
  935YOPE   GL212356   1.220   2.301   6.138 -0.0351 -0.1641  0.0416
  935YOPE   C1A12357   1.421   1.818   6.369  0.0537 -0.2938 -0.0990
  935YOPE   D2A12358   1.209   1.395   6.430 -0.1749 -0.3503 -0.2317
  935YOPE   C3A12359   1.255   1.367   6.868 -0.0328 -0.1646 -0.1657
  935YOPE   C4A12360   1.404   1.528   7.324 -0.2688 -0.1552  0.1546
  935YOPE   C1B12361   1.189   2.278   6.576 -0.2966  0.1314  0.2575
  935YOPE   C2B12362   1.168   1.858   6.839 -0.0145 -0.0321  0.2858
  935YOPE   D3B12363   0.928   1.835   7.147  0.0310  0.1718 -0.0571
  935YOPE   C4B12364   0.951   1.732   7.578  0.0290 -0.2785  0.0148
  936YOPE   NH312365   8.405   6.851   6.088  0.2239 -0.2184  0.0221
  936YOPE   PO412366   8.529   7.198   5.991 -0.1050 -0.2260  0.2071
  936YOPE   GL112367   8.707   7.409   6.439 -0.1025 -0.2439 -0.0039
  936YOPE   GL212368   8.684   7.624   6.467  0.2406 -0.1386  0.1447
  936YOPE   C1A12369   8.945   7.315   6.759 -0.2350  0.2940  0.0905
  936YOPE   D2A12370   9.032   7.311   7.185  0.1050  0.1888  0.0259
  936YOPE   C3A12371   8.986   7.379   7.628 -0.2158  0.2696 -0.0091
  936YOPE   C4A12372   8.990   7.151   8.063 -0.0607 -0.0572 -0.1754
  936YOPE   C1B12373   8.621   7.602   6.940 -0.2801  0.0389 -0.1065
  936YOPE   C2B12374   8.658   7.684   7.330  0.0803  0.1631  0.0734
  936YOPE   D3B12375   8.469   8.076   7.499  0.1524 -0.0337 -0.0059
  936YOPE   C4B12376   8.600   8.268   7.957 -0.0856  0.0485 -0.1141
  937YOPE   NH312377   2.340   1.513   5.624 -0.0063  0.0116  0.1504
  937YOPE   PO412378   2.445   1.108   5.776 -0.2610  0.1525  0.0254
  937YOPE   GL112379   2.377   0.864   6.152 -0.0737  0.0343 -0.1178
  937YOPE   GL212380   2.107   0.545   6.196 -0.0089 -0.1770  0.0838
  937YOPE   C1A12381   2.678   0.513   6.297 -0.0232 -0.0146  0.3250
  937YOPE   D2A12382   2.929   0.424   6.576 -0.2647 -0.0110 -0.1903
  937YOPE   C3A12383   2.820   0.584   6.901  0.1020  0.1389  0.1387
  937YOPE   C4A12384   2.806   0.967   7.027 -0.0959  0.2019  0.0977
  937YOPE   C1B12385   1.906   0.711   6.624  0.1786  0.2356 -0.2188
  937YOPE   C2B12386   1.625   0.693   6.946 -0.0804  0.0256  0.1041
  937YOPE   D3B12387   1.612   0.533   7.464 -0.0300 -0.0007 -0.1794
  937YOPE   C4B12388   1.434   0.406   7.815  0.0007 -0.0018  0.1871
  938YOPE   NH312389   6.189   5.964   5.896  0.0098  0.2553 -0.0190
  938YOPE   PO412390   6.501   5.668   6.066 -0.2196  0.3312 -0.2777
  938YOPE   GL112391   6.406   5.830   6.440 -0.1410 -0.2610  0.2174
  938YOPE   GL212392   6.173   6.124   6.448  0.2309  0.0186  0.2363
  938YOPE   C1A12393   6.380   5.786   6.808  0.3693 -0.2741  0.0092
  938YOPE   D2A12394   6.515   5.589   7.179 -0.1661 -0.1392  0.1612
  938YOPE   C3A12395   6.514   5.779   7.626  0.2830 -0.2274  0.4732
  938YOPE   C4A12396   6.305   5.852   8.025  0.3409 -0.0020 -0.1611
  938YOPE   C1B12397   6.046   6.288   6.833  0.2233 -0.0768  0.2147
  938YOPE   C2B12398   5.871   6.383   7.217  0.0593  0.1505  0.0848
  938YOPE   D3B12399   5.805   6.684   7.499 -0.1020  0.2512 -0.0466
  938YOPE   C4B12400   6.133   6.933   7.818 -0.1367  0.0896  0.2054
  939YOPE   NH312401   1.646  11.305   5.970  0.0085  0.0778  0.4122
  939YOPE   PO412402   1.244  11.240   6.095 -0.1257  0.4337  0.5301
  939YOPE   GL112403   1.349  11.163   6.514  0.0450 -0.2792 -0.1396
  939YOPE   GL212404   1.042  11.425   6.580 -0.1084  0.0709  0.1111
  939YOPE   C1A12405   1.426  10.953   6.918  0.0504 -0.2336  0.1300
  939YOPE   D2A12406   1.665  10.814   7.229 -0.3911 -0.1066 -0.0513
  939YOPE   C3A12407   1.974  11.102   7.416  0.3023  0.3808 -0.1830
  939YOPE   C4A12408   1.989  11.310   7.842  0.1082  0.1288 -0.1597
  939YOPE   C1B12409   1.171  11.397   7.091  0.0256  0.1362  0.0339
  939YOPE   C2B12410   1.451  11.228   7.405  0.0418  0.1567  0.2772
  939YOPE   D3B12411   1.559  11.597   7.675 -0.0242  0.0601 -0.2168
  939YOPE   C4B12412   1.712  11.699   8.026  0.0754  0.0841  0.0019
  940YOPE   NH312413   5.643  12.708   5.795 -0.0950 -0.0388 -0.1634
  940YOPE   PO412414   5.926  12.454   5.978  0.2146 -0.0223 -0.3366
  940YOPE   GL112415   5.674  12.544   6.396 -0.0174 -0.0700  0.0475
  940YOPE   GL212416   5.357  12.618   6.274  0.0653  0.1094  0.0776
  940YOPE   C1A12417   5.592  12.685   6.747  0.1997 -0.2001  0.0684
  940YOPE   D2A12418   5.667  12.994   6.949 -0.1625  0.1359  0.1818
  940YOPE   C3A12419   5.807  12.805   7.305 -0.0648  0.1825  0.2135
  940YOPE   C4A12420   5.783  12.729   7.778 -0.1151 -0.1399  0.0271
  940YOPE   C1B12421   5.150  12.565   6.657 -0.0568  0.0345  0.2867
  940YOPE   C2B12422   5.183  12.497   7.053 -0.1867 -0.0780 -0.2570
  940YOPE   D3B12423   5.148  12.518   7.444  0.0209  0.0958  0.2220
  940YOPE   C4B12424   5.368  12.546   7.886  0.0008  0.2791 -0.3633
  941YOPE   NH312425   9.246  10.330   5.745 -0.0470 -0.3042  0.1994
  941YOPE   PO412426   9.424  10.692   5.923  0.0732 -0.3124  0.0809
  941YOPE   GL112427   9.582  10.940   6.262 -0.2912  0.0614  0.2523
  941YOPE   GL212428   9.668  10.624   6.358 -0.0705  0.1663  0.0377
  941YOPE   C1A12429   9.332  11.190   6.510 -0.1004  0.2648 -0.1201
  941YOPE   D2A12430   9.128  11.469   6.792 -0.0968  0.0699 -0.2038
  941YOPE   C3A12431   9.231  11.411   7.181 -0.2273 -0.0865 -0.0918
  941YOPE   C4A12432   9.309  11.523   7.585  0.0496  0.2028 -0.0524
  941YOPE   C1B12433   9.557  10.686   6.741  0.0801 -0.1995 -0.0101
  941YOPE   C2B12434   9.503  10.826   7.136 -0.0889 -0.1879  0.1406
  941YOPE   D3B12435   9.741  10.757   7.480  0.2544  0.0108 -0.0809
  941YOPE   C4B12436  10.181  10.716   7.476  0.0639  0.0447 -0.2022
  942POPC   NC312437   1.131   3.751   5.851 -0.1921 -0.1011 -0.0875
  942POPC   PO412438   1.580   3.680   5.890 -0.2130 -0.1551  0.2122
  942POPC   GL112439   1.760   3.584   6.330  0.2400  0.0682 -0.1475
  942POPC   GL212440   2.007   3.273   6.433 -0.1110 -0.1625 -0.3448
  942POPC   C1A12441   1.881   3.631   6.814  0.1514  0.0999  0.1315
  942POPC   D2A12442   1.954   3.587   7.284 -0.0108 -0.0185 -0.2100
  942POPC   C3A12443   1.883   3.547   7.690 -0.0065 -0.0364  0.0689
  942POPC   C4A12444   1.818   3.360   8.048 -0.5066 -0.0484  0.0403
  942POPC   C1B12445   1.670   3.149   6.717  0.0584 -0.2289  0.3682
  942POPC   C2B12446   1.538   3.207   7.159  0.1494  0.2107 -0.0127
  942POPC   C3B12447   1.672   3.104   7.636  0.4261  0.2408 -0.2254
  942POPC   C4B12448   1.377   2.964   7.935  0.0676 -0.0973 -0.0863
  943POPC   NC312449  11.429   1.932   5.219 -0.0533  0.2228  0.0932
  943POPC   PO412450  11.124   1.682   5.433  0.0171  0.3605 -0.0002
  943POPC   GL112451  11.196   1.705   5.918  0.1349  0.0768 -0.0126
  943POPC   GL212452  11.401   1.939   6.073 -0.0105  0.0754  0.1376
  943POPC   C1A12453  11.129   1.619   6.390  0.1872 -0.0881  0.0780
  943POPC   D2A12454  11.028   1.823   6.716 -0.2256 -0.0013  0.3846
  943POPC   C3A12455  11.147   2.019   7.003  0.2484  0.0779  0.0089
  943POPC   C4A12456  11.036   2.202   7.213  0.0979 -0.0068  0.5553
  943POPC   C1B12457  11.591   2.006   6.590 -0.1296 -0.1488 -0.1480
  943POPC   C2B12458  11.734   1.986   6.984  0.1480 -0.1627 -0.1457
  943POPC   C3B12459  11.580   1.886   7.273  0.1746 -0.1822 -0.1385
  943POPC   C4B12460  11.318   1.798   7.612 -0.1632  0.4046  0.0975
  944POPC   NC312461   7.832   5.866   6.141 -0.1042 -0.1565 -0.1469
  944POPC   PO412462   8.173   5.744   6.352 -0.1328 -0.3429  0.1654
  944POPC   GL112463   8.245   6.069   6.676 -0.1262  0.0143  0.0321
  944POPC   GL212464   8.504   5.825   6.861  0.1368 -0.1145 -0.1441
  944POPC   C1A12465   8.377   6.248   7.081 -0.0669 -0.1951  0.0996
  944POPC   D2A12466   8.590   6.556   7.352 -0.0135 -0.0218  0.2427
  944POPC   C3A12467   8.691   6.499   7.803  0.1057  0.2481 -0.2091
  944POPC   C4A12468   8.723   6.766   8.252  0.0722 -0.2209 -0.0649
  944POPC   C1B12469   8.512   5.840   7.256  0.1625  0.2275 -0.1341
  944POPC   C2B12470   8.311   6.085   7.591 -0.1330 -0.1736  0.2698
  944POPC   C3B12471   8.455   6.144   8.006  0.1203  0.0381  0.1493
  944POPC   C4B12472   8.646   6.078   8.410  0.3191 -0.0232  0.1059
  945POPC   NC312473  12.699  11.147   5.375 -0.1739  0.0606  0.2036
  945POPC   PO412474  12.787  11.223   5.814 -0.1098 -0.1986 -0.0185
  945POPC   GL112475  12.681  11.451   6.191  0.1454 -0.2799 -0.0125
  945POPC   GL212476  12.415  11.647   6.103  0.0079  0.0461  0.1225
  945POPC   C1A12477  12.517  11.566   6.629  0.1797  0.1397 -0.0121
  945POPC   D2A12478  12.294  11.539   6.991 -0.1613 -0.0980  0.0673
  945POPC   C3A12479  11.866  11.509   7.156 -0.0759 -0.2070  0.1350
  945POPC   C4A12480  11.490  11.334   7.480 -0.3490 -0.1320  0.4022
  945POPC   C1B12481  12.143  11.404   6.338 -0.3447  0.1916 -0.1918
  945POPC   C2B12482  11.971  11.278   6.687 -0.1747  0.0324 -0.0218
  945POPC   C3B12483  11.558  11.302   6.848 -0.1576 -0.0541  0.3708
  945POPC   C4B12484  11.167  11.280   7.063 -0.0881  0.0244  0.0285
  946POPC   NC312485  17.369   6.703   6.115 -0.2241  0.3167  0.1011
  946POPC   PO412486  16.909   6.613   5.916 -0.0161  0.0365  0.2039
  946POPC   GL112487  16.554   6.686   6.218 -0.0616 -0.1556 -0.1493
  946POPC   GL212488  16.700   6.293   6.268 -0.0907 -0.0330 -0.0368
  946POPC   C1A12489  16.236   6.368   6.235  0.1595  0.4138  0.1537
  946POPC   D2A12490  16.105   6.076   6.643  0.0242  0.1105  0.1647
  946POPC   C3A12491  16.381   5.870   6.926  0.0704 -0.0945 -0.1987
  946POPC   C4A12492  16.410   5.688   7.279  0.3818  0.1219 -0.1726
  946POPC   C1B12493  16.579   6.288   6.690  0.2396 -0.0131  0.1233
  946POPC   C2B12494  16.616   6.354   7.040 -0.1182 -0.0635 -0.0352
  946POPC   C3B12495  16.395   6.219   7.377 -0.0128 -0.3519  0.0260
  946POPC   C4B12496  16.023   6.347   7.608 -0.0151  0.1764 -0.1162
  947POPC   NC312497   3.011   4.881   6.051 -0.0957  0.1111 -0.0126
  947POPC   PO412498   2.641   5.200   6.131 -0.0035  0.1816 -0.0053
  947POPC   GL112499   2.748   4.990   6.431  0.0427 -0.1279 -0.0393
  947POPC   GL212500   2.674   4.628   6.503  0.1481 -0.1201  0.0906
  947POPC   C1A12501   2.847   5.141   6.905 -0.0892 -0.1272  0.0532
  947POPC   D2A12502   2.804   5.255   7.337  0.0819  0.0411  0.0174
  947POPC   C3A12503   2.881   5.029   7.727 -0.1292  0.0956 -0.1238
  947POPC   C4A12504   3.128   4.989   8.146  0.0891 -0.0047 -0.4689
  947POPC   C1B12505   2.827   4.592   6.910  0.1139  0.2237 -0.2376
  947POPC   C2B12506   2.884   4.696   7.343  0.3710  0.0355  0.0918
  947POPC   C3B12507   2.858   4.541   7.697  0.0000  0.2203 -0.0876
  947POPC   C4B12508   2.674   4.747   8.127 -0.0268  0.0385  0.0371
  948POPC   NC312509   2.539   2.925   5.543  0.1184  0.1748  0.2327
  948POPC   PO412510   2.613   2.697   5.870  0.0230  0.0681  0.1614
  948POPC   GL112511   2.804   2.460   6.326 -0.2899  0.0511  0.0112
  948POPC   GL212512   2.720   2.209   6.158 -0.3521 -0.1825  0.2293
  948POPC   C1A12513   2.846   2.311   6.787 -0.1875 -0.0748 -0.0146
  948POPC   D2A12514   2.870   2.135   7.218 -0.1011  0.1708  0.0000
  948POPC   C3A12515   2.692   2.128   7.537 -0.1373 -0.1281  0.4261
  948POPC   C4A12516   2.430   2.061   7.843  0.1764  0.1183 -0.0782
  948POPC   C1B12517   2.578   2.029   6.519  0.2030 -0.1621 -0.1453
  948POPC   C2B12518   2.584   1.836   6.918 -0.0139 -0.1055  0.1867
  948POPC   C3B12519   2.553   1.687   7.322  0.1322 -0.1773  0.0124
  948POPC   C4B12520   2.697   1.688   7.764 -0.2650 -0.0907  0.3143
  949POPC   NC312521   8.720   6.014   6.334 -0.1666  0.1566  0.0123
  949POPC   PO412522   9.016   5.683   6.193  0.0488 -0.2596  0.0031
  949POPC   GL112523   8.805   5.534   6.567 -0.0193 -0.3001  0.2334
  949POPC   GL212524   8.449   5.387   6.537 -0.0826  0.2064 -0.1942
  949POPC   C1A12525   8.911   5.480   6.979  0.1962 -0.1270 -0.2448
  949POPC   D2A12526   8.977   5.466   7.344 -0.1301 -0.1658 -0.0258
  949POPC   C3A12527   9.126   5.713   7.680  0.0820 -0.0535  0.2065
  949POPC   C4A12528   9.272   5.846   8.045 -0.1022 -0.0722 -0.1889
  949POPC   C1B12529   8.348   5.397   7.023  0.2076  0.0755  0.2250
  949POPC   C2B12530   8.524   5.359   7.429  0.0686  0.0771  0.0319
  949POPC   C3B12531   8.507   5.628   7.730 -0.2058 -0.0183 -0.0512
  949POPC   C4B12532   8.761   5.752   8.061  0.0049  0.2865  0.0030
  950POPC   NC312533   7.303   6.989   5.417 -0.1992 -0.0865  0.2553
  950POPC   PO412534   7.064   6.800   5.723 -0.0289 -0.0616 -0.1043
  950POPC   GL112535   7.165   6.880   6.120  0.1093 -0.0071 -0.1137
  950POPC   GL212536   7.474   6.701   6.155  0.1344 -0.1161  0.1665
  950POPC   C1A12537   7.027   6.862   6.564  0.3866 -0.2075 -0.2470
  950POPC   D2A12538   6.991   6.747   7.100  0.1486  0.1136 -0.0473
  950POPC   C3A12539   7.076   6.317   7.031 -0.2063 -0.0149 -0.0016
  950POPC   C4A12540   7.450   6.100   7.140  0.0601 -0.0316  0.0258
  950POPC   C1B12541   7.526   6.704   6.554 -0.2626  0.1753  0.0289
  950POPC   C2B12542   7.476   6.704   7.002 -0.0990  0.0860  0.3364
  950POPC   C3B12543   7.289   6.476   7.427 -0.1165  0.0285  0.1058
  950POPC   C4B12544   7.264   6.310   7.831 -0.0137 -0.2144 -0.0300
  951POPC   NC312545   1.507   5.614   6.155  0.1307 -0.0537 -0.0935
  951POPC   PO412546   1.778   5.361   6.265  0.4608  0.3797 -0.1961
  951POPC   GL112547   1.779   5.462   6.731  0.4299 -0.0841 -0.2286
  951POPC   GL212548   1.664   5.724   6.704  0.1366 -0.0137 -0.1414
  951POPC   C1A12549   1.957   5.366   7.177 -0.0544  0.2342  0.0944
  951POPC   D2A12550   1.869   5.323   7.602 -0.1326 -0.0336  0.0822
  951POPC   C3A12551   1.891   5.694   7.917 -0.2250  0.2151  0.1341
  951POPC   C4A12552   1.735   6.066   7.790 -0.1519 -0.4064  0.1155
  951POPC   C1B12553   1.544   5.634   7.138  0.1772 -0.1034  0.0692
  951POPC   C2B12554   1.540   5.674   7.589 -0.0587 -0.2524  0.1171
  951POPC   C3B12555   1.377   5.723   8.032 -0.1570 -0.3390  0.1164
  951POPC   C4B12556   1.079   5.681   8.307 -0.1666 -0.5548 -0.2366
  952POPC   NC312557   9.625  12.494   5.933  0.0785 -0.1340 -0.0878
  952POPC   PO412558   9.180  12.493   6.027  0.3110  0.3013  0.0274
  952POPC   GL112559   9.113  12.241   6.373 -0.0285  0.0642 -0.0570
  952POPC   GL212560   8.958  12.541   6.605 -0.2351 -0.2673  0.1191
  952POPC   C1A12561   9.100  12.051   6.772 -0.0655 -0.0125 -0.3017
  952POPC   D2A12562   9.044  11.871   7.230  0.1904  0.1038  0.2919
  952POPC   C3A12563   8.912  11.721   7.748 -0.1328 -0.0163 -0.1591
  952POPC   C4A12564   9.017  11.957   8.190 -0.1436 -0.1607  0.1879
  952POPC   C1B12565   8.809  12.441   6.962  0.0242 -0.0021 -0.1473
  952POPC   C2B12566   9.157  12.507   7.231 -0.1369  0.0920  0.0560
  952POPC   C3B12567   9.317  12.590   7.654 -0.0529  0.0846  0.0528
  952POPC   C4B12568   9.099  12.922   7.963 -0.2745 -0.2140 -0.0430
  953POPC   NC312569  13.152  17.783   5.160 -0.0687  0.1829 -0.1076
  953POPC   PO412570  12.970  17.825   5.617  0.0407 -0.1043 -0.0553
  953POPC   GL112571  13.094  17.778   5.968  0.0903  0.0224  0.1491
  953POPC   GL212572  13.279  18.026   6.186 -0.1395 -0.1227  0.4289
  953POPC   C1A12573  12.819  17.571   6.242 -0.1247  0.0927 -0.2253
  953POPC   D2A12574  12.715  17.376   6.607 -0.1627  0.0451 -0.2060
  953POPC   C3A12575  12.844  17.519   6.963  0.3839  0.4593  0.0593
  953POPC   C4A12576  13.076  17.598   7.290  0.0729 -0.2898 -0.0273
  953POPC   C1B12577  13.077  17.969   6.610 -0.1757  0.2172 -0.0642
  953POPC   C2B12578  13.037  18.082   7.074  0.0959  0.1306 -0.0938
  953POPC   C3B12579  13.010  18.178   7.449  0.3857  0.0686 -0.0903
  953POPC   C4B12580  12.970  17.771   7.745 -0.3490  0.0936 -0.0406
  954POPC   NC312581   2.637  11.607   6.081 -0.0753  0.1463 -0.1686
  954POPC   PO412582   2.511  11.923   5.741  0.3396  0.1931  0.1704
  954POPC   GL112583   2.280  11.954   6.064  0.3006 -0.1775 -0.0614
  954POPC   GL212584   2.215  11.700   6.293  0.1633  0.0017 -0.0138
  954POPC   C1A12585   2.095  12.230   6.395  0.0220  0.2763  0.3943
  954POPC   D2A12586   2.043  12.432   6.741  0.0459  0.1922 -0.0776
  954POPC   C3A12587   2.063  12.511   7.103  0.0005  0.0021 -0.1143
  954POPC   C4A12588   2.228  12.670   7.460 -0.1213  0.0679 -0.2648
  954POPC   C1B12589   2.260  11.811   6.703  0.1099  0.2696 -0.0901
  954POPC   C2B12590   2.168  12.023   7.011 -0.0565  0.2714  0.0030
  954POPC   C3B12591   2.086  12.148   7.454  0.0591 -0.0690  0.0859
  954POPC   C4B12592   2.044  12.076   7.852  0.0707 -0.0599  0.2332
  955POPC   NC312593   8.589   9.228   6.171 -0.2195  0.1148  0.1835
  955POPC   PO412594   8.930   9.144   6.136 -0.5325 -0.1178  0.0921
  955POPC   GL112595   8.871   9.077   6.529 -0.1880  0.0739 -0.0313
  955POPC   GL212596   9.123   8.871   6.637 -0.1213  0.0458  0.1471
  955POPC   C1A12597   8.656   8.928   6.914 -0.0060  0.0087 -0.0978
  955POPC   D2A12598   8.474   8.988   7.296  0.1294 -0.0101  0.3247
  955POPC   C3A12599   8.660   9.087   7.651  0.2656 -0.0494 -0.0148
  955POPC   C4A12600   8.454   9.275   7.955  0.3460 -0.0335  0.1778
  955POPC   C1B12601   9.165   8.842   7.004  0.1537 -0.2843  0.0360
  955POPC   C2B12602   9.183   8.865   7.437  0.0194  0.2444 -0.1095
  955POPC   C3B12603   9.145   9.092   7.781 -0.0957  0.0114 -0.1394
  955POPC   C4B12604   9.001   9.131   8.292 -0.1716 -0.3578  0.1025
  956POPC   NC312605   9.415   2.603   5.429 -0.0803 -0.1910  0.0245
  956POPC   PO412606   9.430   2.584   5.889 -0.2353 -0.0379  0.3738
  956POPC   GL112607   9.555   2.538   6.297 -0.1910  0.1754 -0.0828
  956POPC   GL212608   9.803   2.397   6.536  0.3243 -0.0341 -0.0008
  956POPC   C1A12609   9.348   2.336   6.729 -0.1806 -0.3263  0.0904
  956POPC   D2A12610   9.378   2.355   7.190  0.1947  0.1533 -0.2047
  956POPC   C3A12611   9.599   2.636   7.345 -0.1932  0.1590  0.1124
  956POPC   C4A12612   9.804   2.643   7.677  0.0099  0.0380  0.2778
  956POPC   C1B12613   9.884   2.458   6.923 -0.0710  0.1024 -0.0750
  956POPC   C2B12614  10.075   2.487   7.298  0.2930 -0.1861 -0.1175
  956POPC   C3B12615  10.253   2.853   7.502  0.1122  0.4452 -0.0104
  956POPC   C4B12616  10.523   2.905   7.879 -0.2513 -0.0999 -0.0332
  957POPC   NC312617   4.253  11.135   5.663  0.1571 -0.1032 -0.0490
  957POPC   PO412618   4.064  10.832   5.878  0.2504  0.3572  0.0612
  957POPC   GL112619   3.953  10.889   6.185  0.0397 -0.1454 -0.1080
  957POPC   GL212620   4.007  10.690   6.388 -0.0539 -0.1325  0.0178
  957POPC   C1A12621   3.657  11.110   6.444 -0.0715  0.0948  0.0075
  957POPC   D2A12622   3.384  11.314   6.666 -0.3738  0.2491  0.3435
  957POPC   C3A12623   3.248  11.695   6.638  0.1618  0.1840 -0.0605
  957POPC   C4A12624   3.192  11.989   6.398  0.3101  0.2411 -0.1856
  957POPC   C1B12625   3.918  10.868   6.800  0.0749  0.2126  0.1758
  957POPC   C2B12626   3.995  11.020   7.257 -0.2713 -0.2942  0.0480
  957POPC   C3B12627   3.787  11.001   7.625  0.4674  0.1851  0.0275
  957POPC   C4B12628   3.435  10.838   7.783  0.0499  0.0121 -0.1249
  958POPC   NC312629   5.937   2.438   5.244  0.1977  0.0377 -0.1352
  958POPC   PO412630   5.839   2.477   5.655  0.0439 -0.2629  0.0069
  958POPC   GL112631   5.884   2.531   6.074 -0.1057  0.0809  0.0708
  958POPC   GL212632   5.706   2.277   6.202 -0.2168 -0.0473  0.2373
  958POPC   C1A12633   5.712   2.685   6.459  0.2731  0.2264 -0.1934
  958POPC   D2A12634   5.926   2.738   6.877  0.3820  0.1306  0.0240
  958POPC   C3A12635   5.887   2.596   7.264 -0.2401 -0.0346 -0.2079
  958POPC   C4A12636   5.677   2.455   7.572 -0.2589 -0.0365  0.0523
  958POPC   C1B12637   5.644   2.198   6.621 -0.1015  0.0617  0.1212
  958POPC   C2B12638   5.523   2.344   7.006 -0.0456  0.0115 -0.0681
  958POPC   C3B12639   5.332   2.242   7.269 -0.1360 -0.0349 -0.1907
  958POPC   C4B12640   5.266   2.263   7.757 -0.1507  0.2076  0.2436
  959POPC   NC312641   6.710   4.384   5.990  0.3256  0.2168 -0.1612
  959POPC   PO412642   6.402   4.766   6.120  0.1294 -0.2654 -0.0087
  959POPC   GL112643   6.373   4.584   6.413 -0.3610  0.1138 -0.1760
  959POPC   GL212644   6.236   4.334   6.331 -0.1392 -0.2150 -0.2362
  959POPC   C1A12645   6.199   4.707   6.752 -0.1056 -0.1839  0.2910
  959POPC   D2A12646   6.256   4.611   7.214  0.3304  0.0725 -0.1565
  959POPC   C3A12647   6.666   4.770   7.608  0.3817  0.0747 -0.1638
  959POPC   C4A12648   6.745   4.917   7.973  0.2769  0.0977 -0.1469
  959POPC   C1B12649   6.096   4.148   6.661 -0.1773 -0.1722 -0.4148
  959POPC   C2B12650   6.136   4.095   7.129  0.0138  0.1108  0.0408
  959POPC   C3B12651   6.154   4.192   7.459  0.0829 -0.1118  0.2588
  959POPC   C4B12652   6.273   4.481   7.766  0.1913 -0.2539 -0.3371
  960POPC   NC312653   2.688   6.329   5.881 -0.0030 -0.2094 -0.0799
  960POPC   PO412654   2.792   6.777   6.013  0.0888  0.0633 -0.2204
  960POPC   GL112655   2.958   6.555   6.216 -0.1637 -0.2243 -0.1400
  960POPC   GL212656   2.785   6.480   6.477  0.0863 -0.3691 -0.1551
  960POPC   C1A12657   3.321   6.447   6.539  0.1163  0.1321 -0.0751
  960POPC   D2A12658   3.568   6.334   6.940 -0.1375 -0.2963 -0.1589
  960POPC   C3A12659   3.417   6.349   7.388 -0.2125  0.1004  0.0350
  960POPC   C4A12660   3.271   6.039   7.609  0.3288  0.0779  0.2456
  960POPC   C1B12661   2.758   6.596   6.888  0.1512 -0.0723 -0.0290
  960POPC   C2B12662   2.856   6.788   7.224  0.0684 -0.0410  0.3686
  960POPC   C3B12663   2.792   6.878   7.687  0.0174 -0.1243 -0.1137
  960POPC   C4B12664   2.782   6.908   8.093 -0.2378 -0.3744 -0.1281
  961POPC   NC312665   4.366  14.889   5.501  0.2837  0.0388  0.0177
  961POPC   PO412666   4.478  15.320   5.645  0.1636 -0.0001 -0.1760
  961POPC   GL112667   4.644  15.351   6.023  0.0168  0.0577 -0.0353
  961POPC   GL212668   4.442  15.499   6.158 -0.0636 -0.3592  0.1216
  961POPC   C1A12669   4.824  15.091   6.376 -0.0572 -0.0911 -0.3334
  961POPC   D2A12670   4.950  14.943   6.894 -0.0428 -0.1812  0.2434
  961POPC   C3A12671   4.868  14.659   7.193  0.2801 -0.0315 -0.0062
  961POPC   C4A12672   4.473  14.784   7.326 -0.1803  0.5155  0.1606
  961POPC   C1B12673   4.613  15.485   6.570 -0.2148 -0.1123 -0.0210
  961POPC   C2B12674   4.460  15.791   6.809  0.0966  0.0288 -0.2462
  961POPC   C3B12675   4.540  15.890   7.227 -0.0915  0.0378 -0.0581
  961POPC   C4B12676   4.460  15.881   7.616 -0.0400 -0.0831  0.1181
  962POPC   NC312677   9.452  17.614   5.696  0.0261  0.0008 -0.0844
  962POPC   PO412678   9.327  17.298   5.951  0.2267 -0.2143 -0.1922
  962POPC   GL112679   9.341  17.402   6.336 -0.3734  0.2095 -0.2263
  962POPC   GL212680   9.646  17.304   6.546  0.0067  0.1171 -0.4976
  962POPC   C1A12681   9.378  17.712   6.645  0.2630 -0.0412  0.2444
  962POPC   D2A12682   9.342  17.585   6.981 -0.0731 -0.2722 -0.0712
  962POPC   C3A12683   9.189  17.357   7.257 -0.1796 -0.0734 -0.1333
  962POPC   C4A12684   8.877  17.292   7.608  0.1201  0.0316  0.0692
  962POPC   C1B12685   9.802  17.294   6.922  0.0476 -0.0862 -0.0345
  962POPC   C2B12686   9.658  17.354   7.361  0.2094  0.0962  0.0550
  962POPC   C3B12687   9.916  17.280   7.722 -0.1179  0.1052 -0.0174
  962POPC   C4B12688  10.014  16.985   8.008  0.1505 -0.1684  0.3361
  963POPC   NC312689   3.061   3.895   6.203 -0.0778 -0.1557  0.1434
  963POPC   PO412690   2.662   3.880   6.487  0.1044  0.1235  0.0559
  963POPC   GL112691   2.431   3.584   6.762 -0.4503 -0.0938 -0.2758
  963POPC   GL212692   2.761   3.529   6.919  0.3008  0.2537 -0.0047
  963POPC   C1A12693   2.399   3.773   7.177 -0.0338  0.3013 -0.0159
  963POPC   D2A12694   2.394   3.551   7.583 -0.1800  0.1899 -0.0504
  963POPC   C3A12695   2.300   3.572   8.097  0.0547 -0.1105  0.0204
  963POPC   C4A12696   1.984   3.763   8.282 -0.0239 -0.3351 -0.0960
  963POPC   C1B12697   2.899   3.367   7.299  0.0636  0.2632 -0.0370
  963POPC   C2B12698   3.014   3.226   7.676 -0.1323 -0.4543  0.1873
  963POPC   C3B12699   2.879   2.898   7.994  0.2361  0.1907 -0.3446
  963POPC   C4B12700   3.028   2.619   8.258  0.2085  0.0274 -0.1123
  964POPC   NC312701   8.103   8.480   6.022 -0.0218 -0.0433 -0.4295
  964POPC   PO412702   8.412   8.332   5.831 -0.1490 -0.2160 -0.1686
  964POPC   GL112703   8.505   8.034   6.233  0.2462  0.0174  0.1017
  964POPC   GL212704   8.722   8.202   6.433 -0.0354  0.1005  0.2041
  964POPC   C1A12705   8.291   7.958   6.636  0.2749  0.0464  0.4562
  964POPC   D2A12706   8.435   8.055   6.999  0.1433  0.2026  0.1632
  964POPC   C3A12707   8.340   8.476   7.167  0.0280 -0.0375 -0.4372
  964POPC   C4A12708   8.324   8.560   7.641 -0.1978  0.2205 -0.0182
  964POPC   C1B12709   8.806   8.444   6.824 -0.1217 -0.1947  0.0133
  964POPC   C2B12710   8.796   8.575   7.268 -0.0918 -0.0692 -0.3520
  964POPC   C3B12711   9.046   8.407   7.659  0.2140 -0.0201  0.0332
  964POPC   C4B12712   9.414   8.481   7.825  0.0410 -0.3022 -0.2270
  965POPC   NC312713   1.730   4.088   6.177  0.1027 -0.1462  0.1855
  965POPC   PO412714   1.309   4.161   6.006 -0.2163 -0.0414  0.0334
  965POPC   GL112715   1.058   4.292   6.280  0.0887  0.1621 -0.1897
  965POPC   GL212716   1.172   4.322   6.557  0.2032 -0.1378  0.1498
  965POPC   C1A12717   0.693   4.313   6.585  0.0436 -0.0792  0.1671
  965POPC   D2A12718   0.556   4.087   7.042  0.0966  0.1088  0.1241
  965POPC   C3A12719   0.882   3.839   7.316  0.1573  0.1639  0.1401
  965POPC   C4A12720   1.029   3.803   7.789 -0.2055  0.1342  0.0569
  965POPC   C1B12721   1.516   4.443   6.852 -0.1809  0.0428 -0.2957
  965POPC   C2B12722   1.510   4.398   7.293 -0.2864 -0.1132  0.0668
  965POPC   C3B12723   1.519   4.381   7.638  0.1020 -0.1719  0.1491
  965POPC   C4B12724   1.649   4.586   8.077 -0.0571 -0.0452 -0.1932
  966POPC   NC312725  10.737   8.650   5.820 -0.1034 -0.1609  0.2907
  966POPC   PO412726  11.122   8.446   6.046 -0.0709 -0.1245  0.0930
  966POPC   GL112727  11.339   8.330   6.405 -0.3525  0.0432 -0.0417
  966POPC   GL212728  11.036   8.208   6.533 -0.1623 -0.1242 -0.3354
  966POPC   C1A12729  11.655   8.423   6.701  0.0946 -0.4395 -0.1865
  966POPC   D2A12730  11.668   8.311   7.125  0.1938 -0.0228  0.1475
  966POPC   C3A12731  11.442   8.345   7.410  0.0433  0.3818 -0.1982
  966POPC   C4A12732  11.275   8.198   7.790  0.0323 -0.1054 -0.3692
  966POPC   C1B12733  11.147   8.381   6.878 -0.3745 -0.0369  0.2025
  966POPC   C2B12734  10.916   8.486   7.122 -0.3689  0.3927  0.1301
  966POPC   C3B12735  10.938   8.522   7.487 -0.1121 -0.0954 -0.3046
  966POPC   C4B12736  11.054   8.657   7.854 -0.1398  0.0051 -0.1083
  967POPC   NC312737   3.883   4.005   5.865 -0.1473 -0.1519 -0.2555
  967POPC   PO412738   4.124   3.670   6.058  0.1663  0.0547 -0.0739
  967POPC   GL112739   3.805   3.816   6.346 -0.3279 -0.0110 -0.3268
  967POPC   GL212740   3.552   3.734   6.431  0.1507  0.2577 -0.0818
  967POPC   C1A12741   3.872   4.045   6.658 -0.0829 -0.0409 -0.0391
  967POPC   D2A12742   4.130   4.047   6.949 -0.0237 -0.2820  0.1993
  967POPC   C3A12743   4.204   4.486   7.250  0.3882 -0.0431  0.3772
  967POPC   C4A12744   4.263   4.503   7.699  0.2889  0.2418 -0.0968
  967POPC   C1B12745   3.534   3.840   6.895 -0.2006  0.0131  0.0717
  967POPC   C2B12746   3.667   4.029   7.194 -0.4137  0.1879  0.3391
  967POPC   C3B12747   3.605   4.018   7.605  0.3464  0.1951 -0.0464
  967POPC   C4B12748   3.594   3.898   8.017 -0.0203 -0.0653  0.5380
  968POPC   NC312749  16.539   9.623   6.351  0.0154  0.2000  0.0840
  968POPC   PO412750  16.677   9.168   6.234 -0.1086  0.0374  0.2275
  968POPC   GL112751  16.677   9.228   6.620  0.0169  0.0472 -0.0887
  968POPC   GL212752  16.386   9.359   6.753  0.0154 -0.0887 -0.0060
  968POPC   C1A12753  16.902   9.030   7.016  0.0772  0.1706 -0.1014
  968POPC   D2A12754  16.808   9.122   7.450  0.3559  0.2663  0.2576
  968POPC   C3A12755  17.162   9.166   7.732  0.3963  0.0085  0.3438
  968POPC   C4A12756  17.178   9.207   8.166 -0.0539 -0.4417  0.1190
  968POPC   C1B12757  16.466   9.416   7.176  0.0015  0.0129  0.3097
  968POPC   C2B12758  16.450   9.339   7.634 -0.2836  0.1063 -0.0500
  968POPC   C3B12759  16.296   9.476   7.978 -0.1143  0.3019 -0.4720
  968POPC   C4B12760  16.282   9.668   8.440  0.0326  0.2703 -0.1004
  969POPC   NC312761  11.319  12.462   5.793  0.3332  0.1436 -0.0291
  969POPC   PO412762  11.178  12.062   5.804 -0.2121  0.1572  0.0700
  969POPC   GL112763  11.108  12.168   6.208  0.2312  0.0859  0.1945
  969POPC   GL212764  10.765  12.207   6.339 -0.1676 -0.0098  0.2561
  969POPC   C1A12765  11.243  12.040   6.556 -0.2857 -0.1620 -0.1212
  969POPC   D2A12766  11.153  12.200   6.892 -0.2360  0.0636  0.1617
  969POPC   C3A12767  11.255  12.179   7.268  0.1492 -0.0567 -0.2237
  969POPC   C4A12768  11.473  12.346   7.617 -0.1323 -0.1016 -0.1600
  969POPC   C1B12769  10.839  12.594   6.589 -0.0844 -0.0553 -0.0315
  969POPC   C2B12770  10.963  12.622   6.997  0.1614 -0.0847  0.0853
  969POPC   C3B12771  11.079  12.642   7.533 -0.0114 -0.0849  0.3623
  969POPC   C4B12772  11.183  12.576   7.968 -0.1137 -0.1335 -0.0654
  970POPC   NC312773  12.042   4.367   5.778  0.2227 -0.1744  0.2383
  970POPC   PO412774  12.479   4.508   5.897  0.0024  0.0483 -0.0427
  970POPC   GL112775  12.871   4.606   6.120  0.3236  0.1102  0.0569
  970POPC   GL212776  12.889   5.034   6.199 -0.1718  0.0046  0.2286
  970POPC   C1A12777  13.031   4.752   6.572  0.2675 -0.0735 -0.3461
  970POPC   D2A12778  13.022   4.773   7.048 -0.1346  0.1272 -0.0581
  970POPC   C3A12779  13.139   4.853   7.559  0.0924 -0.1320 -0.0767
  970POPC   C4A12780  13.255   5.018   7.898 -0.1006  0.0339  0.0645
  970POPC   C1B12781  12.719   5.147   6.645  0.1296  0.1050  0.0479
  970POPC   C2B12782  12.716   5.199   7.173 -0.0657 -0.2145 -0.1516
  970POPC   C3B12783  12.889   5.284   7.610 -0.2599  0.1565 -0.1914
  970POPC   C4B12784  12.767   5.232   7.958 -0.2326 -0.2943  0.0781
  971POPC   NC312785  11.557   8.769   6.152  0.0263 -0.0522  0.0509
  971POPC   PO412786  11.158   8.902   5.906 -0.3530  0.0914  0.0385
  971POPC   GL112787  11.082   8.938   6.321  0.1419  0.2263 -0.0942
  971POPC   GL212788  10.823   8.705   6.413 -0.1350  0.0065  0.3010
  971POPC   C1A12789  10.930   9.157   6.655  0.0859  0.0069 -0.1491
  971POPC   D2A12790  11.101   9.474   6.949 -0.2972 -0.2659  0.0412
  971POPC   C3A12791  11.055   9.393   7.365 -0.2536 -0.2992 -0.5568
  971POPC   C4A12792  11.141   9.542   7.695 -0.0931 -0.1272  0.1266
  971POPC   C1B12793  10.695   8.815   6.849  0.0008  0.0473  0.0298
  971POPC   C2B12794  10.808   8.953   7.258 -0.3881  0.0448  0.0952
  971POPC   C3B12795  10.804   9.051   7.697  0.0111  0.0378  0.1273
  971POPC   C4B12796  10.784   9.008   8.140  0.0441  0.1311 -0.1425
  972POPC   NC312797  14.986   9.829   5.795 -0.0107 -0.2253 -0.0974
  972POPC   PO412798  15.126  10.236   6.030 -0.2670  0.2887 -0.0097
  972POPC   GL112799  15.000  10.521   6.323 -0.2436  0.4378 -0.0609
  972POPC   GL212800  15.230  10.660   6.398 -0.0399 -0.0388  0.1880
  972POPC   C1A12801  14.790  10.403   6.635  0.1209 -0.1950 -0.0884
  972POPC   D2A12802  14.628  10.165   6.997  0.1346  0.1286 -0.2309
  972POPC   C3A12803  14.542  10.157   7.412 -0.0500  0.2733  0.0492
  972POPC   C4A12804  14.284   9.865   7.651 -0.1523 -0.0135 -0.0320
  972POPC   C1B12805  15.122  10.745   6.771  0.0771 -0.0047 -0.0211
  972POPC   C2B12806  15.092  10.773   7.232 -0.0901 -0.0594  0.0488
  972POPC   C3B12807  15.170  10.731   7.593  0.0774 -0.0178 -0.1672
  972POPC   C4B12808  14.988  10.524   7.882  0.1440 -0.1317 -0.0335
  973POPC   NC312809  10.383   2.752   5.610  0.1178 -0.1679  0.1746
  973POPC   PO412810  10.231   3.127   5.477 -0.0292  0.0220 -0.1550
  973POPC   GL112811  10.209   3.159   5.885  0.0972  0.0148 -0.1444
  973POPC   GL212812  10.465   3.236   5.973  0.0202 -0.0534 -0.0652
  973POPC   C1A12813  10.079   2.865   6.127  0.3122  0.0494  0.0582
  973POPC   D2A12814  10.419   2.508   6.281  0.0208 -0.1105  0.3743
  973POPC   C3A12815  10.314   2.321   6.715  0.2537  0.0584 -0.1805
  973POPC   C4A12816  10.538   2.432   7.071 -0.1394  0.3012  0.0915
  973POPC   C1B12817  10.278   3.304   6.409  0.0853 -0.0119 -0.1597
  973POPC   C2B12818  10.154   3.320   6.933 -0.1323 -0.1948 -0.0207
  973POPC   C3B12819  10.160   3.350   7.253 -0.3089 -0.1473 -0.0079
  973POPC   C4B12820  10.323   3.782   7.462  0.1196  0.0337  0.2192
  974POPC   NC312821   1.640  14.930   5.544 -0.2010  0.0321  0.1275
  974POPC   PO412822   2.071  15.251   5.522 -0.0625 -0.0265 -0.0246
  974POPC   GL112823   2.056  15.201   5.967 -0.0960  0.0464  0.1824
  974POPC   GL212824   2.275  14.997   5.916 -0.0501 -0.3521  0.0028
  974POPC   C1A12825   1.824  15.162   6.321 -0.1668 -0.1132  0.0311
  974POPC   D2A12826   1.670  14.911   6.584  0.1417  0.2983  0.3125
  974POPC   C3A12827   1.683  14.985   7.023  0.1322  0.0093 -0.2230
  974POPC   C4A12828   1.662  15.011   7.477 -0.0170  0.0793 -0.0033
  974POPC   C1B12829   2.312  15.065   6.374 -0.2608 -0.1470  0.0341
  974POPC   C2B12830   2.171  14.994   6.814 -0.0234  0.2240 -0.1129
  974POPC   C3B12831   2.149  14.907   7.215  0.2146  0.1136  0.2080
  974POPC   C4B12832   2.139  14.802   7.577  0.0782 -0.1045  0.1899
  975POPC   NC312833  11.004   5.420   5.538 -0.1430  0.2602  0.1002
  975POPC   PO412834  11.231   5.731   5.806 -0.0738 -0.0281 -0.2630
  975POPC   GL112835  11.018   5.444   6.156 -0.0640  0.1281 -0.0748
  975POPC   GL212836  10.677   5.576   6.221  0.0841  0.1156  0.0434
  975POPC   C1A12837  10.830   5.271   6.617  0.0680 -0.0706 -0.0492
  975POPC   D2A12838  10.812   4.851   6.969 -0.1250 -0.0058 -0.0095
  975POPC   C3A12839  11.115   4.975   7.333  0.1169  0.0196 -0.0708
  975POPC   C4A12840  11.306   5.035   7.826 -0.2208 -0.0475  0.1951
  975POPC   C1B12841  10.658   5.908   6.532  0.0693  0.1274 -0.0615
  975POPC   C2B12842  10.404   5.935   6.957 -0.0808 -0.0231  0.0018
  975POPC   C3B12843  10.502   5.959   7.525  0.2042  0.3413 -0.2176
  975POPC   C4B12844  10.767   5.904   7.804 -0.1118 -0.1031  0.0191
  976POPC   NC312845   0.400  16.234   5.717 -0.1302  0.0415  0.0494
  976POPC   PO412846   0.253  16.355   6.025  0.0073  0.1187  0.0668
  976POPC   GL112847   0.542  16.125   6.165  0.0509 -0.1220  0.2464
  976POPC   GL212848   0.810  16.299   6.077  0.3354  0.3244 -0.1878
  976POPC   C1A12849   0.748  16.004   6.568  0.1190 -0.0813 -0.1336
  976POPC   D2A12850   1.167  15.925   6.782 -0.1455  0.1584 -0.2346
  976POPC   C3A12851   1.209  15.852   7.174  0.2148 -0.1079  0.0667
  976POPC   C4A12852   1.115  15.720   7.621  0.2408  0.3390 -0.0279
  976POPC   C1B12853   1.023  16.416   6.489  0.0454  0.1510  0.1593
  976POPC   C2B12854   1.357  16.378   6.758  0.0314  0.3472  0.2175
  976POPC   C3B12855   1.604  16.663   7.016  0.1387  0.0159 -0.0088
  976POPC   C4B12856   1.590  16.593   7.327 -0.0944  0.0427  0.0000
  977POPC   NC312857  16.279   6.908   5.821 -0.1176  0.1096  0.0323
  977POPC   PO412858  15.796   6.745   5.617 -0.2005  0.0736 -0.0829
  977POPC   GL112859  15.886   6.723   6.083 -0.1977 -0.1977  0.0621
  977POPC   GL212860  15.612   6.486   6.107  0.0446  0.0693 -0.3194
  977POPC   C1A12861  15.965   6.736   6.519 -0.1647 -0.1750  0.0359
  977POPC   D2A12862  16.167   6.556   6.903  0.1608 -0.0425 -0.3223
  977POPC   C3A12863  16.007   6.185   7.125  0.0958 -0.2166 -0.1574
  977POPC   C4A12864  15.983   5.870   7.425  0.4440  0.0271 -0.0889
  977POPC   C1B12865  15.480   6.779   6.428  0.1840 -0.1665 -0.0238
  977POPC   C2B12866  15.272   6.800   6.853 -0.1065  0.1464 -0.2144
  977POPC   C3B12867  15.343   6.805   7.203 -0.1309  0.1482 -0.1013
  977POPC   C4B12868  15.405   6.927   7.528 -0.1185 -0.0031 -0.1249
  978POPC   NC312869   2.450  14.920   5.416 -0.2762 -0.2377 -0.1137
  978POPC   PO412870   2.737  14.901   5.690  0.0687 -0.0266  0.0228
  978POPC   GL112871   3.052  14.975   5.932 -0.0791  0.0860 -0.0114
  978POPC   GL212872   2.831  15.225   6.135  0.0390 -0.1283  0.0170
  978POPC   C1A12873   3.371  15.139   6.127 -0.0494  0.3475  0.0148
  978POPC   D2A12874   3.534  15.455   6.540 -0.2037 -0.0375 -0.1265
  978POPC   C3A12875   3.570  15.269   6.966  0.0544 -0.0203 -0.1355
  978POPC   C4A12876   3.543  14.874   7.041 -0.0052  0.1646  0.0529
  978POPC   C1B12877   2.998  15.159   6.491  0.2694  0.1198 -0.1425
  978POPC   C2B12878   3.063  15.061   6.983 -0.0075  0.2343 -0.0534
  978POPC   C3B12879   3.156  14.921   7.434  0.0152  0.4515  0.1855
  978POPC   C4B12880   3.436  14.790   7.726 -0.0318 -0.0229  0.1767
  979POPC   NC312881  16.597   5.277   5.805  0.2684  0.0330  0.1075
  979POPC   PO412882  16.870   4.932   5.953 -0.0773  0.2920 -0.3308
  979POPC   GL112883  16.601   4.749   6.231  0.0477 -0.1605  0.0041
  979POPC   GL212884  16.388   4.952   6.188  0.1136  0.0503  0.2917
  979POPC   C1A12885  16.476   4.515   6.609 -0.0777  0.0028  0.1101
  979POPC   D2A12886  16.293   4.397   6.988 -0.4762 -0.0987  0.0268
  979POPC   C3A12887  16.483   4.431   7.347 -0.0665 -0.2021  0.0623
  979POPC   C4A12888  16.560   4.518   7.767 -0.1332  0.0649  0.3270
  979POPC   C1B12889  16.380   5.010   6.628  0.0280  0.2801 -0.5115
  979POPC   C2B12890  16.181   5.139   6.991  0.4892  0.0662 -0.0300
  979POPC   C3B12891  16.202   5.194   7.365  0.0125  0.0801  0.1118
  979POPC   C4B12892  16.248   5.416   7.633 -0.1596  0.0622 -0.0809
  980POPC   NC312893   6.782  12.190   5.776  0.1946  0.2096  0.0183
  980POPC   PO412894   6.736  11.806   5.975 -0.0604 -0.1027 -0.3065
  980POPC   GL112895   6.620  11.764   6.387 -0.1052  0.1422  0.1017
  980POPC   GL212896   6.280  11.830   6.379  0.0823  0.0400 -0.0229
  980POPC   C1A12897   6.705  11.659   6.768  0.0081 -0.0414 -0.2763
  980POPC   D2A12898   6.802  11.708   7.204  0.2125 -0.0636 -0.0394
  980POPC   C3A12899   6.706  11.718   7.677  0.0444 -0.1769 -0.0151
  980POPC   C4A12900   6.978  11.442   7.900  0.1243  0.1500  0.1558
  980POPC   C1B12901   6.299  11.883   6.833  0.4395  0.3220 -0.2053
  980POPC   C2B12902   6.218  11.876   7.304 -0.2283  0.0577  0.2206
  980POPC   C3B12903   6.283  11.963   7.716  0.2375 -0.3536 -0.1513
  980POPC   C4B12904   6.435  12.427   7.965  0.0530  0.0201 -0.0250
  981POPC   NC312905  10.138   4.254   6.075  0.0319 -0.1539 -0.0830
  981POPC   PO412906   9.671   4.448   6.121 -0.0826 -0.0598 -0.0538
  981POPC   GL112907   9.638   4.147   6.473 -0.1445  0.0338  0.1090
  981POPC   GL212908  10.000   4.030   6.528 -0.0105  0.0579 -0.3142
  981POPC   C1A12909   9.623   4.124   6.892  0.1569 -0.0098  0.1743
  981POPC   D2A12910   9.525   4.211   7.342 -0.0360 -0.1035  0.1887
  981POPC   C3A12911   9.821   4.051   7.622  0.1254  0.1179  0.1048
  981POPC   C4A12912  10.068   3.737   7.922  0.0083  0.0247  0.3541
  981POPC   C1B12913  10.380   3.798   6.840 -0.0441  0.0789  0.0026
  981POPC   C2B12914  10.594   3.501   7.066  0.2873 -0.1382 -0.0155
  981POPC   C3B12915  10.911   3.550   7.412 -0.0008 -0.0443 -0.1011
  981POPC   C4B12916  11.253   3.779   7.640  0.1984  0.0941  0.0063
  982YOPC   NC312917  15.188  17.730   5.697 -0.2495  0.1896  0.1102
  982YOPC   PO412918  15.336  18.108   5.582  0.1906  0.0245 -0.0205
  982YOPC   GL112919  15.401  18.027   6.067 -0.1918  0.0377 -0.1426
  982YOPC   GL212920  15.468  17.701   6.231 -0.0067  0.0845  0.0355
  982YOPC   C1A12921  15.270  18.201   6.463 -0.1999  0.2267 -0.0202
  982YOPC   D2A12922  15.018  18.408   6.849 -0.1097  0.0929  0.1073
  982YOPC   C3A12923  15.094  18.344   7.248  0.2254  0.2402  0.2234
  982YOPC   C4A12924  15.201  18.336   7.620  0.0034  0.1998  0.2964
  982YOPC   C1B12925  15.315  17.747   6.673 -0.2270 -0.1202 -0.2621
  982YOPC   C2B12926  15.074  17.935   6.923  0.1733 -0.4092 -0.2110
  982YOPC   D3B12927  14.752  17.881   7.113  0.3055 -0.0749  0.1589
  982YOPC   C4B12928  14.795  18.037   7.562 -0.2690  0.0190 -0.0892
  983YOPC   NC312929  13.306  15.596   5.539  0.1821 -0.3744  0.1555
  983YOPC   PO412930  13.766  15.761   5.295 -0.0107 -0.1093  0.1526
  983YOPC   GL112931  13.944  15.674   5.811 -0.1886  0.1563  0.3279
  983YOPC   GL212932  13.780  15.893   5.926  0.0530 -0.1863 -0.1869
  983YOPC   C1A12933  13.876  15.414   6.098  0.0986  0.0886 -0.0475
  983YOPC   D2A12934  13.650  15.366   6.450 -0.0365  0.0469 -0.2091
  983YOPC   C3A12935  13.368  15.678   6.489  0.0032 -0.3023 -0.0122
  983YOPC   C4A12936  12.954  15.873   6.436 -0.2165 -0.1766  0.0308
  983YOPC   C1B12937  13.769  15.888   6.292 -0.2021  0.1669 -0.1202
  983YOPC   C2B12938  13.689  16.172   6.550  0.0979  0.3248  0.0225
  983YOPC   D3B12939  13.343  16.080   6.762 -0.1989  0.1455  0.0546
  983YOPC   C4B12940  13.082  16.160   7.086  0.2718  0.5278  0.2366
  984YOPC   NC312941   6.895   8.886   5.951  0.1223  0.5421  0.1378
  984YOPC   PO412942   7.107   9.241   6.026 -0.0008 -0.1840  0.1762
  984YOPC   GL112943   6.883   9.179   6.403 -0.0936  0.0789 -0.2755
  984YOPC   GL212944   6.927   8.919   6.485 -0.0779 -0.1908  0.2058
  984YOPC   C1A12945   6.541   9.301   6.782  0.0125 -0.0066  0.0966
  984YOPC   D2A12946   6.583   9.283   7.215  0.1163  0.0696 -0.2132
  984YOPC   C3A12947   6.756   9.551   7.553 -0.2425 -0.0226 -0.3307
  984YOPC   C4A12948   6.900   9.624   7.962  0.1859  0.2718  0.2574
  984YOPC   C1B12949   6.989   9.088   6.916 -0.1248 -0.0416  0.1117
  984YOPC   C2B12950   6.893   8.937   7.353  0.2092 -0.1298  0.3049
  984YOPC   D3B12951   6.640   9.058   7.675 -0.1562  0.2403  0.2088
  984YOPC   C4B12952   6.529   8.746   8.001  0.0709  0.1042  0.0071
  985YOPC   NC312953  16.772  10.510   6.246  0.1999  0.0479 -0.2021
  985YOPC   PO412954  16.507  10.147   6.132  0.0141  0.0782 -0.1235
  985YOPC   GL112955  16.501  10.221   6.624 -0.0438 -0.0856  0.0444
  985YOPC   GL212956  16.540  10.579   6.697 -0.0298  0.2555 -0.3210
  985YOPC   C1A12957  16.713  10.225   7.098  0.0390 -0.0561 -0.0724
  985YOPC   D2A12958  16.851  10.276   7.475 -0.0071 -0.0091 -0.0028
  985YOPC   C3A12959  17.197  10.491   7.538 -0.0126  0.0579 -0.1561
  985YOPC   C4A12960  17.445  10.799   7.341  0.3853 -0.1330  0.2068
  985YOPC   C1B12961  16.108  10.465   6.904 -0.1478 -0.0367 -0.3658
  985YOPC   C2B12962  15.885  10.362   7.289  0.4371  0.1437  0.0365
  985YOPC   D3B12963  15.921  10.315   7.758 -0.0397 -0.0344  0.2164
  985YOPC   C4B12964  15.758  10.345   8.186 -0.1703 -0.1589  0.2570
  986YOPC   NC312965   3.988  16.256   5.463 -0.0507  0.3548 -0.3145
  986YOPC   PO412966   4.239  15.794   5.539 -0.0514  0.1753  0.0954
  986YOPC   GL112967   3.999  15.600   5.847  0.1998  0.0214 -0.1226
  986YOPC   GL212968   3.733  15.362   5.776  0.1993  0.0306 -0.2598
  986YOPC   C1A12969   3.930  15.374   6.222  0.2511 -0.2104  0.2235
  986YOPC   D2A12970   4.116  15.502   6.583 -0.1959 -0.3038 -0.1908
  986YOPC   C3A12971   3.820  15.657   6.956  0.3272 -0.2105 -0.1164
  986YOPC   C4A12972   3.639  15.715   7.226 -0.0492  0.3149  0.0980
  986YOPC   C1B12973   3.542  15.608   5.986 -0.0326 -0.1074 -0.3575
  986YOPC   C2B12974   3.657  15.853   6.326  0.3777  0.0409  0.1391
  986YOPC   D3B12975   3.527  16.045   6.654  0.2089 -0.0407 -0.0510
  986YOPC   C4B12976   3.415  16.110   7.008 -0.0430 -0.2189  0.2442
  987YOPC   NC312977   7.266  17.111   6.110 -0.0266 -0.0082  0.0618
  987YOPC   PO412978   7.102  16.664   6.079 -0.0902  0.2269 -0.2885
  987YOPC   GL112979   7.011  16.618   6.497 -0.0857  0.2944 -0.0045
  987YOPC   GL212980   7.081  16.249   6.531 -0.1494  0.1183 -0.1419
  987YOPC   C1A12981   6.982  16.500   6.968 -0.0082  0.1252  0.2141
  987YOPC   D2A12982   7.081  16.548   7.388  0.0934  0.1123 -0.0147
  987YOPC   C3A12983   7.197  16.311   7.678  0.0485 -0.2491 -0.0911
  987YOPC   C4A12984   7.300  16.124   8.065 -0.0025 -0.1134  0.1106
  987YOPC   C1B12985   6.833  16.027   6.852  0.0985  0.0843  0.1183
  987YOPC   C2B12986   6.772  16.106   7.306  0.0628 -0.1399  0.2895
  987YOPC   D3B12987   6.874  15.982   7.799  0.0285 -0.1633 -0.1276
  987YOPC   C4B12988   6.921  15.813   8.292  0.1381 -0.0281 -0.2144
  988YOPC   NC312989  14.268   1.323   5.706  0.1630  0.1608 -0.1249
  988YOPC   PO412990  14.482   1.017   5.503  0.3004  0.0251 -0.0018
  988YOPC   GL112991  14.694   1.081   5.891  0.1711  0.2735  0.1397
  988YOPC   GL212992  14.946   0.977   6.082  0.2030 -0.3781  0.1118
  988YOPC   C1A12993  14.750   1.415   6.264 -0.2434  0.0151  0.1720
  988YOPC   D2A12994  14.642   1.865   6.407 -0.1253 -0.2382 -0.0458
  988YOPC   C3A12995  14.486   1.722   6.801  0.2217 -0.1197 -0.0503
  988YOPC   C4A12996  14.500   1.930   7.111  0.2233 -0.3191  0.1176
  988YOPC   C1B12997  14.946   1.019   6.497 -0.0797 -0.1285 -0.2047
  988YOPC   C2B12998  15.042   0.841   6.897 -0.1110  0.0753  0.1410
  988YOPC   D3B12999  15.088   1.083   7.213 -0.0250  0.1494 -0.0100
  988YOPC   C4B13000  15.134   1.182   7.700  0.1424 -0.1294 -0.1622
  989YOPC   NC313001   2.470   9.405   5.780 -0.2079  0.1883  0.1034
  989YOPC   PO413002   2.885   9.515   5.989 -0.0123 -0.2020 -0.1970
  989YOPC   GL113003   2.826   9.548   6.414  0.2171  0.0632 -0.1362
  989YOPC   GL213004   3.005   9.776   6.675  0.2136  0.2718  0.2104
  989YOPC   C1A13005   2.682   9.344   6.760  0.1731 -0.1439  0.1365
  989YOPC   D2A13006   2.973   9.407   7.094  0.2853 -0.3614  0.4677
  989YOPC   C3A13007   2.926   9.235   7.561  0.1892 -0.0377 -0.1023
  989YOPC   C4A13008   2.691   9.359   7.905 -0.1769  0.0909 -0.1539
  989YOPC   C1B13009   2.843   9.872   7.135  0.1612  0.2443  0.1385
  989YOPC   C2B13010   2.729   9.706   7.471 -0.0435 -0.0862  0.1264
  989YOPC   D3B13011   2.914   9.956   7.741  0.0840  0.1724 -0.3032
  989YOPC   C4B13012   2.843  10.227   8.061  0.0530 -0.3123 -0.1368
  990YOPC   NC313013   3.267   8.308   6.093 -0.2549 -0.0632 -0.3572
  990YOPC   PO413014   3.720   8.352   6.163 -0.0851  0.0187 -0.1475
  990YOPC   GL113015   3.745   8.495   6.592  0.1477 -0.0393  0.1038
  990YOPC   GL213016   4.004   8.646   6.617  0.2303 -0.3148  0.1498
  990YOPC   C1A13017   3.638   8.606   7.054 -0.0211 -0.0201  0.0749
  990YOPC   D2A13018   3.593   8.700   7.456  0.0390  0.0217  0.3127
  990YOPC   C3A13019   3.806   8.905   7.834  0.1541  0.0850 -0.0868
  990YOPC   C4A13020   4.038   8.824   8.183 -0.0839  0.0807  0.1060
  990YOPC   C1B13021   4.074   8.784   6.989  0.1755 -0.3715 -0.1080
  990YOPC   C2B13022   4.118   8.815   7.439  0.4419  0.0246  0.0539
  990YOPC   D3B13023   4.400   8.785   7.804  0.2743  0.2766 -0.1456
  990YOPC   C4B13024   4.471   8.442   8.047 -0.0198  0.2022 -0.0740
  991YOPC   NC313025   8.306   9.265   5.758  0.1040  0.2683 -0.0486
  991YOPC   PO413026   8.216   8.955   6.123 -0.1634  0.2664  0.0113
  991YOPC   GL113027   8.240   8.788   6.461 -0.1171  0.1869  0.0525
  991YOPC   GL213028   8.288   8.429   6.540  0.1322  0.0332  0.0690
  991YOPC   C1A13029   8.140   8.910   6.862 -0.0118 -0.2987  0.0029
  991YOPC   D2A13030   7.964   8.910   7.264  0.0608 -0.1930  0.1544
  991YOPC   C3A13031   8.098   9.059   7.645  0.1492  0.1122 -0.1565
  991YOPC   C4A13032   7.964   9.029   8.048  0.0883 -0.0090 -0.0008
  991YOPC   C1B13033   7.991   8.465   6.841 -0.1015 -0.0643  0.2137
  991YOPC   C2B13034   7.842   8.449   7.204 -0.0231 -0.2365 -0.0899
  991YOPC   D3B13035   7.821   8.531   7.646 -0.0404 -0.0313 -0.0627
  991YOPC   C4B13036   7.955   8.439   8.113  0.2448  0.0018 -0.1245
  992YOPC   NC313037  12.262   8.348   5.753  0.3560 -0.1762  0.0942
  992YOPC   PO413038  12.463   8.212   6.239 -0.0712 -0.1486  0.2302
  992YOPC   GL113039  12.774   8.387   6.564 -0.2727 -0.0796 -0.1562
  992YOPC   GL213040  12.692   8.818   6.492 -0.1530  0.0501  0.3945
  992YOPC   C1A13041  12.739   8.467   6.959 -0.0739 -0.0251 -0.1144
  992YOPC   D2A13042  12.765   8.619   7.347  0.0354  0.0321  0.2899
  992YOPC   C3A13043  12.793   9.009   7.388  0.2694  0.1008 -0.0199
  992YOPC   C4A13044  12.753   9.415   7.340 -0.1375  0.2359  0.1927
  992YOPC   C1B13045  12.874   9.002   6.857 -0.3623  0.1168 -0.0511
  992YOPC   C2B13046  13.155   9.229   7.026  0.0185 -0.0859 -0.1043
  992YOPC   D3B13047  13.320   9.484   6.775  0.2386 -0.0489  0.3070
  992YOPC   C4B13048  13.487   9.922   6.718 -0.2053 -0.0203 -0.1112
  993YOPC   NC313049  14.743  12.147   5.953 -0.1691  0.0535 -0.1389
  993YOPC   PO413050  15.131  12.064   6.175 -0.0846  0.2778  0.1184
  993YOPC   GL113051  15.320  12.051   6.541 -0.0390 -0.0191 -0.1445
  993YOPC   GL213052  15.304  12.249   6.726  0.2267 -0.2604 -0.0704
  993YOPC   C1A13053  15.734  12.048   6.906  0.2209 -0.2972 -0.2552
  993YOPC   D2A13054  15.837  12.286   7.337  0.0342 -0.0147 -0.1795
  993YOPC   C3A13055  15.442  12.406   7.537  0.0790  0.0893  0.2554
  993YOPC   C4A13056  15.186  12.739   7.726  0.0233 -0.0948 -0.0072
  993YOPC   C1B13057  15.453  12.527   7.072  0.2323 -0.2336 -0.1340
  993YOPC   C2B13058  15.479  12.886   7.255 -0.2735  0.0762 -0.3246
  993YOPC   D3B13059  15.150  13.110   7.359 -0.0837 -0.1122  0.0031
  993YOPC   C4B13060  14.826  13.079   7.554 -0.0016  0.3668 -0.1728
  994YOPC   NC313061  12.791  16.815   5.794  0.0568 -0.2283 -0.0567
  994YOPC   PO413062  13.051  16.441   5.898 -0.0209  0.3259  0.2618
  994YOPC   GL113063  12.813  16.502   6.246 -0.3164  0.2533  0.0607
  994YOPC   GL213064  12.523  16.654   6.254  0.0943 -0.0874 -0.0377
  994YOPC   C1A13065  12.847  16.350   6.624  0.0991  0.1039 -0.2569
  994YOPC   D2A13066  12.743  16.552   7.014 -0.0137 -0.2949 -0.1067
  994YOPC   C3A13067  12.939  16.540   7.392  0.0550 -0.1288  0.0233
  994YOPC   C4A13068  13.434  16.630   7.366 -0.1322 -0.2812 -0.0862
  994YOPC   C1B13069  12.660  16.818   6.606 -0.0052  0.1044  0.2406
  994YOPC   C2B13070  12.572  17.074   6.994 -0.0156  0.2102 -0.0290
  994YOPC   D3B13071  12.592  16.982   7.371 -0.2639  0.1528 -0.2393
  994YOPC   C4B13072  12.693  16.955   7.779 -0.5571  0.2654  0.0600
  995YOPC   NC313073   7.621  13.263   5.419 -0.1709  0.1921  0.1569
  995YOPC   PO413074   7.290  13.531   5.596 -0.1185 -0.1105  0.2755
  995YOPC   GL113075   7.320  13.574   6.083 -0.1324  0.3243  0.1776
  995YOPC   GL213076   7.053  13.564   6.327 -0.1569 -0.0169 -0.1236
  995YOPC   C1A13077   7.320  13.945   6.441  0.0415 -0.0556 -0.3256
  995YOPC   D2A13078   7.205  14.147   6.799 -0.2790  0.1194 -0.1271
  995YOPC   C3A13079   7.211  14.191   7.171  0.0283  0.3160 -0.0228
  995YOPC   C4A13080   7.132  14.528   7.438 -0.2988 -0.2885  0.0083
  995YOPC   C1B13081   6.804  13.774   6.494 -0.0975  0.2597 -0.1044
  995YOPC   C2B13082   6.495  13.825   6.778  0.1669 -0.0486  0.1779
  995YOPC   D3B13083   6.528  13.755   7.128 -0.2532 -0.0195  0.0022
  995YOPC   C4B13084   6.323  13.981   7.417 -0.0119 -0.2633 -0.1049
  996YOPC   NC313085   3.305   9.691   6.256  0.0299 -0.0328 -0.1318
  996YOPC   PO413086   3.641   9.900   5.926  0.2691  0.1510 -0.1367
  996YOPC   GL113087   3.677  10.186   6.385 -0.1002 -0.0372  0.4337
  996YOPC   GL213088   3.423  10.103   6.616  0.0603 -0.1456  0.2142
  996YOPC   C1A13089   3.892  10.335   6.738 -0.0690 -0.0588  0.1378
  996YOPC   D2A13090   3.946  10.518   7.162  0.0643  0.0528 -0.1653
  996YOPC   C3A13091   3.574  10.452   7.485 -0.6391  0.2710 -0.1690
  996YOPC   C4A13092   3.439  10.407   7.948 -0.1374 -0.3307  0.0752
  996YOPC   C1B13093   3.510  10.198   7.026 -0.1569  0.1601  0.1481
  996YOPC   C2B13094   3.197  10.151   7.340  0.2648  0.0516 -0.2373
  996YOPC   D3B13095   3.371  10.012   7.684  0.0467  0.0686  0.0089
  996YOPC   C4B13096   3.691   9.878   7.889  0.2140 -0.3000 -0.1578
  997YOPC   NC313097   5.543  18.028   6.046  0.1001  0.2902 -0.1725
  997YOPC   PO413098   6.005  17.836   5.967 -0.0747 -0.2715  0.0857
  997YOPC   GL113099   5.867  17.797   6.336  0.1562  0.0325  0.1697
  997YOPC   GL213100   5.939  17.455   6.465  0.0057 -0.5606  0.0102
  997YOPC   C1A13101   5.795  18.105   6.776 -0.1622  0.1258 -0.1121
  997YOPC   D2A13102   5.812  18.057   7.140  0.1292 -0.0482  0.1094
  997YOPC   C3A13103   5.626  17.797   7.412  0.1767  0.0206  0.1271
  997YOPC   C4A13104   5.255  17.508   7.434  0.2763 -0.0629 -0.0375
  997YOPC   C1B13105   5.860  17.577   6.920 -0.0241 -0.0725  0.0293
  997YOPC   C2B13106   5.939  17.360   7.286 -0.1062 -0.0552 -0.2079
  997YOPC   D3B13107   5.623  17.229   7.591  0.1244 -0.1875 -0.0767
  997YOPC   C4B13108   5.669  17.275   8.043  0.1735 -0.2113  0.2608
  998YOPC   NC313109   8.549   1.982   5.443 -0.0017  0.0992 -0.0256
  998YOPC   PO413110   8.700   2.037   5.879 -0.0146  0.1550 -0.1980
  998YOPC   GL113111   8.813   2.004   6.340  0.4592  0.1374  0.3811
  998YOPC   GL213112   8.697   2.330   6.480  0.0318  0.0820 -0.2221
  998YOPC   C1A13113   8.966   1.999   6.757  0.1903 -0.0397  0.1059
  998YOPC   D2A13114   8.896   2.271   7.098 -0.0209  0.0199  0.2985
  998YOPC   C3A13115   8.943   2.060   7.496  0.1910 -0.6466  0.0440
  998YOPC   C4A13116   8.913   1.973   7.942 -0.0512  0.1225 -0.1534
  998YOPC   C1B13117   8.450   2.138   6.839 -0.3706 -0.0734  0.0354
  998YOPC   C2B13118   8.248   2.275   7.303  0.0650 -0.2470  0.0665
  998YOPC   D3B13119   8.611   2.454   7.451  0.0132  0.1698  0.0220
  998YOPC   C4B13120   8.795   2.453   7.777 -0.0975  0.0659  0.0188
  999YOPC   NC313121   8.613  14.128   6.007  0.0338 -0.0217 -0.2726
  999YOPC   PO413122   8.158  14.080   6.064  0.0539 -0.1137  0.3469
  999YOPC   GL113123   8.345  14.201   6.456 -0.0827 -0.0829  0.0361
  999YOPC   GL213124   8.355  13.927   6.577 -0.1151 -0.0345 -0.1854
  999YOPC   C1A13125   8.176  14.331   6.854  0.1039 -0.0642  0.3082
  999YOPC   D2A13126   8.138  14.198   7.275  0.2974 -0.0639 -0.0928
  999YOPC   C3A13127   8.080  14.401   7.671 -0.0848  0.0238  0.3151
  999YOPC   C4A13128   8.384  14.425   7.956 -0.1133  0.1007  0.0053
  999YOPC   C1B13129   8.287  13.733   6.982 -0.0215  0.3826  0.4910
  999YOPC   C2B13130   8.304  13.709   7.443 -0.5861  0.0107  0.0955
  999YOPC   D3B13131   8.236  13.957   7.782 -0.1969 -0.0001 -0.1168
  999YOPC   C4B13132   7.946  14.109   8.105  0.0905  0.0839  0.0311
 1000YOPC   NC313133  12.665   6.242   5.555  0.1695  0.1577  0.2282
 1000YOPC   PO413134  12.646   6.598   5.807  0.0907 -0.0641 -0.3614
 1000YOPC   GL113135  12.482   6.522   6.160  0.0225  0.0530 -0.2847
 1000YOPC   GL213136  12.473   6.302   6.324 -0.2614 -0.1298 -0.0665
 1000YOPC   C1A13137  12.321   6.683   6.577  0.1632 -0.0090 -0.3609
 1000YOPC   D2A13138  12.368   6.563   7.034 -0.0670 -0.1133 -0.1036
 1000YOPC   C3A13139  12.243   6.555   7.385  0.0921 -0.1218  0.0440
 1000YOPC   C4A13140  12.046   6.461   7.754 -0.1484  0.1287  0.0785
 1000YOPC   C1B13141  12.518   6.215   6.740 -0.0514  0.1998  0.1405
 1000YOPC   C2B13142  12.346   5.981   7.071  0.3528  0.3806 -0.0820
 1000YOPC   D3B13143  12.227   6.068   7.469  0.0204  0.0517 -0.1013
 1000YOPC   C4B13144  12.155   5.941   7.812  0.1961 -0.0419  0.2108
 1001YOPC   NC313145  16.296   8.984   5.960  0.0943  0.1626 -0.1522
 1001YOPC   PO413146  16.160   9.273   6.351 -0.1555 -0.2725  0.2397
 1001YOPC   GL113147  15.876   9.451   6.633 -0.1779  0.1359 -0.2603
 1001YOPC   GL213148  15.625   9.661   6.499 -0.1154  0.1055 -0.0197
 1001YOPC   C1A13149  15.806   9.518   7.046  0.1191  0.0494 -0.1890
 1001YOPC   D2A13150  15.987   9.446   7.452 -0.0945 -0.1009  0.0306
 1001YOPC   C3A13151  15.751   9.330   7.839 -0.2789 -0.1339  0.1446
 1001YOPC   C4A13152  15.625   9.222   8.150 -0.3236  0.3619 -0.0541
 1001YOPC   C1B13153  15.409   9.741   6.779 -0.0128  0.2543 -0.1810
 1001YOPC   C2B13154  15.348   9.384   7.094  0.0211 -0.1046  0.2061
 1001YOPC   D3B13155  15.319   9.371   7.537 -0.0036  0.2283  0.2176
 1001YOPC   C4B13156  15.287   9.621   7.826  0.0220 -0.0535 -0.2173
 1002YOPC   NC313157  16.225  11.489   5.851  0.0541  0.1873 -0.1208
 1002YOPC   PO413158  16.369  11.715   6.164 -0.0500  0.2697  0.1710
 1002YOPC   GL113159  16.515  11.772   6.571  0.0633 -0.0048  0.0966
 1002YOPC   GL213160  16.318  11.479   6.655 -0.2099 -0.3066  0.2221
 1002YOPC   C1A13161  16.823  11.774   6.888 -0.2980 -0.1822 -0.2220
 1002YOPC   D2A13162  17.112  11.883   7.158 -0.0976 -0.1021 -0.2967
 1002YOPC   C3A13163  17.251  11.703   7.567 -0.1694 -0.2996  0.0107
 1002YOPC   C4A13164  17.360  11.558   7.937  0.1291  0.0322 -0.0663
 1002YOPC   C1B13165  16.389  11.071   6.713  0.1064  0.1201  0.1905
 1002YOPC   C2B13166  16.521  10.913   7.155 -0.3866  0.0563  0.0990
 1002YOPC   D3B13167  16.458  10.569   7.394 -0.0744 -0.2050  0.0066
 1002YOPC   C4B13168  16.377  10.532   7.846  0.1378  0.1228  0.3047
 1003YOPC   NC313169  15.308  15.164   5.869  0.1373  0.1429 -0.1789
 1003YOPC   PO413170  15.157  15.545   5.857 -0.0230  0.1078  0.3000
 1003YOPC   GL113171  14.914  15.473   6.187 -0.0394  0.1117 -0.1293
 1003YOPC   GL213172  15.001  15.181   6.279  0.2715  0.0473  0.0012
 1003YOPC   C1A13173  15.104  15.579   6.587  0.3715 -0.2446  0.0129
 1003YOPC   D2A13174  14.985  15.632   7.065 -0.1047 -0.0932  0.0413
 1003YOPC   C3A13175  15.131  15.853   7.489  0.1384  0.1631  0.2204
 1003YOPC   C4A13176  15.496  15.863   7.731 -0.1813  0.0585 -0.1681
 1003YOPC   C1B13177  14.728  15.156   6.586  0.1713 -0.0541 -0.1459
 1003YOPC   C2B13178  14.646  15.188   6.972 -0.2747  0.2134 -0.1684
 1003YOPC   D3B13179  14.147  15.263   7.151 -0.0204  0.0165  0.0124
 1003YOPC   C4B13180  13.867  15.508   7.399  0.1692 -0.1179 -0.0671
 1004YOPC   NC313181  10.899  16.214   5.764  0.1937 -0.0362 -0.0710
 1004YOPC   PO413182  11.154  15.899   5.721  0.0393 -0.0115 -0.2317
 1004YOPC   GL113183  11.067  15.914   6.151  0.0169  0.0083 -0.2309
 1004YOPC   GL213184  11.236  16.103   6.262  0.2357 -0.0907  0.0747
 1004YOPC   C1A13185  10.854  15.746   6.525 -0.0570 -0.0182  0.0731
 1004YOPC   D2A13186  10.816  15.715   6.953 -0.0945  0.2610 -0.0620
 1004YOPC   C3A13187  11.010  15.533   7.257 -0.1432  0.0550  0.2299
 1004YOPC   C4A13188  11.092  15.575   7.678  0.0737 -0.1084  0.2723
 1004YOPC   C1B13189  11.079  16.142   6.690 -0.1336  0.1162  0.0459
 1004YOPC   C2B13190  11.108  16.316   7.115  0.1778  0.1170 -0.1763
 1004YOPC   D3B13191  10.888  16.609   7.405 -0.1081 -0.2712  0.0712
 1004YOPC   C4B13192  10.913  16.541   7.815  0.3617 -0.0552 -0.3460
 1005YOPC   NC313193  10.325   4.688   5.619  0.1673 -0.0264  0.2728
 1005YOPC   PO413194  10.127   4.723   6.020  0.0122  0.1399 -0.0031
 1005YOPC   GL113195  10.024   4.581   6.472  0.0844  0.1469 -0.0695
 1005YOPC   GL213196   9.874   4.715   6.609  0.2428  0.2012  0.1561
 1005YOPC   C1A13197  10.166   4.372   6.786 -0.1935 -0.1896  0.2260
 1005YOPC   D2A13198  10.100   4.167   7.129  0.2092  0.4021 -0.0424
 1005YOPC   C3A13199   9.948   3.836   7.180  0.0162  0.0961  0.1037
 1005YOPC   C4A13200   9.661   3.579   7.463  0.2110 -0.0393 -0.2248
 1005YOPC   C1B13201   9.869   4.681   7.064  0.1238 -0.1736 -0.0632
 1005YOPC   C2B13202   9.937   4.516   7.455  0.2671  0.0672  0.0052
 1005YOPC   D3B13203  10.254   4.734   7.715 -0.0282 -0.1458 -0.1288
 1005YOPC   C4B13204  10.293   5.063   7.909  0.0915  0.1405  0.2612
 1006YOPC   NC313205   7.827   1.965   6.154  0.1477 -0.1468  0.0826
 1006YOPC   PO413206   7.400   1.861   5.943  0.1101  0.0198  0.1507
 1006YOPC   GL113207   7.421   2.201   6.207 -0.2226 -0.0886  0.0280
 1006YOPC   GL213208   7.190   2.428   6.240 -0.0737 -0.0527 -0.1137
 1006YOPC   C1A13209   7.447   2.243   6.617  0.0280  0.1358 -0.3261
 1006YOPC   D2A13210   7.395   2.436   7.039  0.0411  0.1806  0.1289
 1006YOPC   C3A13211   7.265   2.361   7.478 -0.0150  0.1373 -0.1066
 1006YOPC   C4A13212   7.351   2.548   7.884 -0.2350  0.0731 -0.0929
 1006YOPC   C1B13213   7.059   2.621   6.693 -0.1620 -0.0685 -0.1339
 1006YOPC   C2B13214   7.281   3.040   6.901  0.1193 -0.2167  0.0030
 1006YOPC   D3B13215   7.640   3.207   6.690 -0.0384 -0.0614  0.1134
 1006YOPC   C4B13216   7.955   3.137   6.447 -0.0725 -0.1835  0.1412
 1007YOPC   NC313217   2.802  13.230   4.895  0.0945 -0.0816 -0.1538
 1007YOPC   PO413218   2.615  13.527   5.239  0.0253  0.0673 -0.1471
 1007YOPC   GL113219   2.712  13.665   5.607  0.2938  0.0206  0.1739
 1007YOPC   GL213220   2.429  13.655   5.843  0.3189  0.1037  0.0908
 1007YOPC   C1A13221   2.968  13.656   6.001  0.0346 -0.0349  0.0376
 1007YOPC   D2A13222   3.041  14.002   6.330 -0.3042  0.1123  0.2385
 1007YOPC   C3A13223   2.741  14.329   6.525 -0.0406 -0.0383  0.0163
 1007YOPC   C4A13224   2.423  14.338   6.791 -0.1835  0.1018  0.3508
 1007YOPC   C1B13225   2.457  14.051   6.153 -0.0470  0.0288  0.2151
 1007YOPC   C2B13226   2.315  14.507   6.250 -0.0698  0.0131 -0.2804
 1007YOPC   D3B13227   2.086  14.625   6.530 -0.1298 -0.2205  0.1268
 1007YOPC   C4B13228   1.981  14.498   6.918  0.4076 -0.0838  0.1168
 1008YOPC   NC313229   6.082   3.334   5.672  0.0628  0.1263  0.1814
 1008YOPC   PO413230   6.255   3.025   5.919  0.0272  0.3247  0.0564
 1008YOPC   GL113231   6.323   2.765   6.256 -0.3037 -0.0440  0.0877
 1008YOPC   GL213232   6.663   2.805   6.415 -0.2719 -0.0406  0.2417
 1008YOPC   C1A13233   6.149   2.446   6.538 -0.3053 -0.2375 -0.1580
 1008YOPC   D2A13234   6.108   2.258   6.933  0.0396 -0.1232 -0.0521
 1008YOPC   C3A13235   6.343   1.922   7.043 -0.1322  0.0870  0.2285
 1008YOPC   C4A13236   6.483   1.759   7.353 -0.1151  0.3749 -0.0532
 1008YOPC   C1B13237   6.795   3.015   6.731 -0.2977 -0.1439 -0.1282
 1008YOPC   C2B13238   6.716   3.177   7.136 -0.1547  0.0057 -0.4437
 1008YOPC   D3B13239   6.611   3.089   7.556  0.0905 -0.0241 -0.0275
 1008YOPC   C4B13240   6.665   3.176   8.011  0.2605 -0.1327 -0.0990
 1009YOPC   NC313241  16.233   7.920   5.990 -0.2035 -0.0918 -0.0502
 1009YOPC   PO413242  16.580   7.768   6.163 -0.1242 -0.1048  0.3323
 1009YOPC   GL113243  16.579   7.512   6.456 -0.0265 -0.0728 -0.1497
 1009YOPC   GL213244  16.767   7.255   6.343  0.0302 -0.0486  0.0971
 1009YOPC   C1A13245  16.495   7.378   6.947 -0.1342  0.0587  0.1554
 1009YOPC   D2A13246  16.727   7.284   7.333 -0.0458  0.1614  0.0246
 1009YOPC   C3A13247  16.764   7.005   7.820  0.0441  0.1057  0.0784
 1009YOPC   C4A13248  16.843   7.115   8.248 -0.0726 -0.0363  0.1185
 1009YOPC   C1B13249  16.931   7.264   6.774 -0.0212  0.2405 -0.0613
 1009YOPC   C2B13250  17.040   7.586   7.055 -0.0502 -0.0052  0.1703
 1009YOPC   D3B13251  17.241   7.628   7.385 -0.1771 -0.2527 -0.0630
 1009YOPC   C4B13252  17.532   7.708   7.730 -0.1833 -0.1363  0.0068
 1010YOPC   NC313253   1.893   9.957   6.000 -0.0349  0.0251 -0.2785
 1010YOPC   PO413254   1.459   9.949   5.981 -0.1779 -0.1278  0.0386
 1010YOPC   GL113255   1.519   9.934   6.405  0.1714 -0.3024  0.0576
 1010YOPC   GL213256   1.485   9.653   6.559 -0.0791 -0.0154 -0.0840
 1010YOPC   C1A13257   1.371  10.255   6.723 -0.0805  0.0347  0.0300
 1010YOPC   D2A13258   1.305  10.517   7.119  0.2606  0.2212 -0.1124
 1010YOPC   C3A13259   1.195  10.773   7.452  0.1852 -0.0425 -0.0286
 1010YOPC   C4A13260   0.948  10.675   7.818 -0.0921 -0.1278 -0.0240
 1010YOPC   C1B13261   1.786   9.668   6.940 -0.3298  0.0414  0.0942
 1010YOPC   C2B13262   1.869   9.461   7.280  0.1024  0.0488  0.0887
 1010YOPC   D3B13263   1.766   9.376   7.591 -0.2046 -0.1144  0.0523
 1010YOPC   C4B13264   1.445   9.462   7.797 -0.0914 -0.3943  0.0053
 1011YOPC   NC313265   8.936  16.549   5.827  0.1963 -0.0571  0.1020
 1011YOPC   PO413266   8.831  16.205   6.003  0.0492  0.1232  0.4309
 1011YOPC   GL113267   8.894  16.081   6.466  0.1927 -0.2357  0.1840
 1011YOPC   GL213268   9.182  16.123   6.589  0.2869  0.3710 -0.1927
 1011YOPC   C1A13269   8.748  16.026   6.859  0.2484  0.1708 -0.0376
 1011YOPC   D2A13270   8.580  16.009   7.246  0.0324 -0.1497  0.0541
 1011YOPC   C3A13271   8.659  15.644   7.451 -0.0391  0.4455 -0.1522
 1011YOPC   C4A13272   8.385  15.485   7.872  0.2499  0.1761 -0.0954
 1011YOPC   C1B13273   9.201  15.798   6.850  0.6681 -0.2077  0.3349
 1011YOPC   C2B13274   9.175  15.828   7.177  0.3045  0.1161 -0.0300
 1011YOPC   D3B13275   9.155  15.585   7.566  0.0366 -0.1153 -0.2053
 1011YOPC   C4B13276   9.296  15.658   7.847 -0.1596 -0.0388  0.0468
 1012YOPC   NC313277   5.807  11.283   5.834  0.1457 -0.0353  0.2484
 1012YOPC   PO413278   5.593  10.953   5.639  0.0404  0.0178  0.0827
 1012YOPC   GL113279   5.346  10.898   6.056 -0.0415  0.0057  0.1550
 1012YOPC   GL213280   5.073  10.797   6.167 -0.0201 -0.2230  0.1660
 1012YOPC   C1A13281   5.317  11.180   6.380  0.0023 -0.0368  0.1495
 1012YOPC   D2A13282   5.362  11.298   6.736 -0.0380 -0.1790 -0.2510
 1012YOPC   C3A13283   4.984  11.244   6.965 -0.0361 -0.1410  0.0884
 1012YOPC   C4A13284   4.730  11.006   7.071 -0.3987  0.1463 -0.0930
 1012YOPC   C1B13285   5.086  10.826   6.678 -0.3628 -0.4123 -0.3729
 1012YOPC   C2B13286   5.404  10.921   7.078  0.0828 -0.2739 -0.1353
 1012YOPC   D3B13287   5.104  10.958   7.430  0.2378 -0.0119  0.4146
 1012YOPC   C4B13288   5.258  11.057   7.869  0.1200 -0.1065 -0.2011
 1013YOPC   NC313289   0.337   0.426   5.790 -0.0877 -0.0079 -0.0682
 1013YOPC   PO413290   0.037   0.102   5.792  0.1337 -0.2831  0.0548
 1013YOPC   GL113291   0.065   0.180   6.264  0.3142 -0.0004 -0.1094
 1013YOPC   GL213292   0.237   0.442   6.289  0.1951  0.0054 -0.2713
 1013YOPC   C1A13293  -0.122   0.088   6.617 -0.3103 -0.0703 -0.0505
 1013YOPC   D2A13294  -0.167   0.218   7.056  0.2823 -0.0261 -0.1151
 1013YOPC   C3A13295  -0.307   0.545   7.405 -0.0202 -0.1019 -0.0300
 1013YOPC   C4A13296  -0.387   0.825   7.609  0.1071  0.4765 -0.1959
 1013YOPC   C1B13297   0.181   0.406   6.766  0.0015 -0.0747  0.2361
 1013YOPC   C2B13298   0.216   0.484   7.201 -0.0228  0.0307 -0.1307
 1013YOPC   D3B13299   0.439   0.384   7.594  0.2870 -0.2118  0.3701
 1013YOPC   C4B13300   0.419   0.088   7.934  0.0580 -0.0476  0.1114
 1014YOPC   NC313301   9.575   7.722   5.782  0.0159 -0.0863  0.1281
 1014YOPC   PO413302   9.616   7.566   6.172  0.0658 -0.1575  0.1408
 1014YOPC   GL113303   9.795   7.411   6.480  0.0474  0.0064  0.2539
 1014YOPC   GL213304   9.924   7.017   6.505  0.0883 -0.2996 -0.0801
 1014YOPC   C1A13305  10.222   7.527   6.617 -0.2413  0.1501 -0.0191
 1014YOPC   D2A13306  10.479   7.429   6.979 -0.1775  0.2233  0.1221
 1014YOPC   C3A13307  10.793   7.114   6.946 -0.0879  0.0678  0.0212
 1014YOPC   C4A13308  10.954   6.843   7.223  0.1072 -0.1669 -0.0389
 1014YOPC   C1B13309   9.962   7.076   6.967  0.0677  0.1008  0.0800
 1014YOPC   C2B13310  10.045   7.413   7.322  0.1108  0.2541  0.0373
 1014YOPC   D3B13311  10.191   7.253   7.724 -0.2113 -0.0865 -0.1107
 1014YOPC   C4B13312  10.059   7.286   8.223 -0.1256 -0.0941  0.1579
 1015YOPC   NC313313   8.308  10.507   5.746  0.1336  0.0687 -0.1030
 1015YOPC   PO413314   8.088  10.170   5.809  0.1956  0.1665 -0.1628
 1015YOPC   GL113315   8.226   9.930   6.156 -0.0768 -0.2347 -0.2427
 1015YOPC   GL213316   8.474   9.713   6.259  0.0281  0.1092 -0.1661
 1015YOPC   C1A13317   8.057   9.752   6.549  0.1714 -0.0746 -0.1275
 1015YOPC   D2A13318   7.719   9.900   6.707 -0.0287  0.1043 -0.0280
 1015YOPC   C3A13319   7.815   9.997   7.099  0.1624 -0.3869 -0.3048
 1015YOPC   C4A13320   7.866   9.959   7.596  0.1763 -0.3166  0.1735
 1015YOPC   C1B13321   8.550   9.805   6.668  0.0512 -0.0257  0.1626
 1015YOPC   C2B13322   8.637   9.863   7.127 -0.1851  0.0214 -0.1610
 1015YOPC   D3B13323   8.646  10.134   7.362 -0.1359 -0.1089 -0.1247
 1015YOPC   C4B13324   8.763  10.416   7.751 -0.1828  0.2365  0.0731
 1016YOPC   NC313325   6.967   5.600   5.931  0.0124  0.0624 -0.1693
 1016YOPC   PO413326   6.732   5.141   6.028 -0.3434 -0.2486  0.0664
 1016YOPC   GL113327   6.543   5.219   6.399  0.1315 -0.1993  0.0819
 1016YOPC   GL213328   6.815   5.479   6.487  0.0991  0.0844  0.3349
 1016YOPC   C1A13329   6.346   5.234   6.755  0.3936 -0.1806  0.0644
 1016YOPC   D2A13330   6.084   5.331   6.985  0.0662  0.0063  0.0776
 1016YOPC   C3A13331   6.123   5.467   7.396  0.4782 -0.1764 -0.0979
 1016YOPC   C4A13332   5.900   5.880   7.626  0.0697  0.0643  0.1232
 1016YOPC   C1B13333   6.802   5.402   6.836  0.0969  0.0082 -0.1196
 1016YOPC   C2B13334   6.921   5.249   7.262 -0.1660  0.2193  0.0353
 1016YOPC   D3B13335   7.020   5.351   7.667 -0.1520  0.0496  0.0432
 1016YOPC   C4B13336   7.123   5.361   8.077 -0.1878 -0.1156 -0.3495
 1017YOPC   NC313337   1.684   7.798   5.725 -0.1659 -0.2718 -0.1108
 1017YOPC   PO413338   1.412   7.602   6.065  0.1018  0.2692 -0.0087
 1017YOPC   GL113339   1.576   7.351   6.409  0.0095 -0.0034 -0.2814
 1017YOPC   GL213340   1.716   7.026   6.299  0.0272 -0.0770 -0.2030
 1017YOPC   C1A13341   1.673   7.358   6.802  0.1152 -0.2707  0.0790
 1017YOPC   D2A13342   2.010   7.211   7.089 -0.0925  0.1651  0.2164
 1017YOPC   C3A13343   2.130   7.368   7.466 -0.4591 -0.0272 -0.0704
 1017YOPC   C4A13344   2.233   7.543   7.860  0.0947  0.0656 -0.1137
 1017YOPC   C1B13345   1.880   6.901   6.714 -0.2519 -0.1351 -0.0156
 1017YOPC   C2B13346   1.869   6.724   7.095 -0.0136  0.0579  0.3793
 1017YOPC   D3B13347   2.239   6.912   7.440 -0.0697  0.2392 -0.2183
 1017YOPC   C4B13348   2.358   7.037   7.869 -0.1972  0.0038 -0.1444
 1018YOPC   NC313349   1.740  17.994   5.780  0.0924 -0.1609 -0.1802
 1018YOPC   PO413350   2.099  17.947   5.632  0.1565  0.0701  0.1373
 1018YOPC   GL113351   2.256  17.775   5.998 -0.0815  0.1571  0.0702
 1018YOPC   GL213352   2.022  17.896   6.185  0.3235  0.1217  0.0045
 1018YOPC   C1A13353   2.329  17.867   6.541 -0.3800  0.0614  0.7789
 1018YOPC   D2A13354   2.064  17.911   6.864 -0.0538 -0.0458  0.2235
 1018YOPC   C3A13355   1.999  17.589   7.116  0.0558  0.0441 -0.1372
 1018YOPC   C4A13356   1.770  17.593   7.521  0.2032  0.0993 -0.0836
 1018YOPC   C1B13357   1.928  17.510   6.444  0.1796  0.0740 -0.1920
 1018YOPC   C2B13358   2.070  17.190   6.785 -0.2644 -0.2031  0.1848
 1018YOPC   D3B13359   1.871  17.105   7.131 -0.0607  0.0118 -0.0986
 1018YOPC   C4B13360   1.999  16.872   7.423 -0.2376  0.0995  0.4163
 1019YOPC   NC313361  15.680  10.030   6.057 -0.3388 -0.2436 -0.1610
 1019YOPC   PO413362  15.675  10.457   6.144 -0.0929  0.1112  0.0857
 1019YOPC   GL113363  15.709  10.570   6.538  0.2827 -0.2623  0.0595
 1019YOPC   GL213364  15.875  10.232   6.537  0.2382  0.2480 -0.0876
 1019YOPC   C1A13365  15.592  10.666   6.924 -0.2335  0.0292  0.1678
 1019YOPC   D2A13366  15.611  10.793   7.386  0.0377 -0.0907 -0.0489
 1019YOPC   C3A13367  15.741  11.175   7.419 -0.1512  0.0487  0.1778
 1019YOPC   C4A13368  16.006  11.430   7.728 -0.1488 -0.2919 -0.0071
 1019YOPC   C1B13369  15.820  10.024   6.951 -0.1202  0.0906 -0.0062
 1019YOPC   C2B13370  15.571   9.814   7.365  0.0970  0.0085 -0.3388
 1019YOPC   D3B13371  15.742   9.840   7.700 -0.1705  0.1737 -0.2031
 1019YOPC   C4B13372  15.742   9.775   8.137 -0.1128 -0.2662 -0.2568
 1020YOPC   NC313373   1.368  14.254   5.394 -0.0013  0.0185 -0.1342
 1020YOPC   PO413374   1.152  13.961   5.582  0.1700 -0.0263 -0.0770
 1020YOPC   GL113375   1.206  13.855   5.979  0.0398 -0.0445  0.1873
 1020YOPC   GL213376   1.419  13.550   6.119 -0.1167  0.1426  0.1188
 1020YOPC   C1A13377   1.291  13.960   6.339 -0.1459 -0.0497  0.2178
 1020YOPC   D2A13378   1.526  13.869   6.648  0.0414  0.1357 -0.0238
 1020YOPC   C3A13379   1.723  14.053   6.985 -0.2416  0.0352  0.2175
 1020YOPC   C4A13380   1.821  14.109   7.454  0.1279  0.1489 -0.2222
 1020YOPC   C1B13381   1.842  13.798   6.287  0.1279  0.4258  0.0049
 1020YOPC   C2B13382   2.029  14.062   6.543  0.0605  0.0437 -0.0046
 1020YOPC   D3B13383   2.170  14.061   7.084  0.5143 -0.0615 -0.1855
 1020YOPC   C4B13384   2.222  14.357   7.353 -0.2245  0.0935  0.0509
 1021YOPC   NC313385   0.735  11.217   5.786 -0.1656  0.0919  0.0438
 1021YOPC   PO413386   0.336  11.310   5.893 -0.3504 -0.0317 -0.2063
 1021YOPC   GL113387   0.466  11.070   6.214 -0.0133  0.1088 -0.0835
 1021YOPC   GL213388   0.455  10.732   6.330 -0.2081 -0.1733 -0.0973
 1021YOPC   C1A13389   0.538  11.146   6.711  0.0198 -0.0552 -0.0703
 1021YOPC   D2A13390   0.308  11.293   7.039 -0.0470 -0.2984  0.3042
 1021YOPC   C3A13391   0.032  11.611   7.183 -0.0562  0.2223 -0.1717
 1021YOPC   C4A13392  -0.045  12.095   7.294 -0.3428 -0.1386  0.2229
 1021YOPC   C1B13393   0.446  10.654   6.781 -0.0505 -0.1053  0.2093
 1021YOPC   C2B13394   0.171  10.804   7.118 -0.3109 -0.2292 -0.0199
 1021YOPC   D3B13395   0.375  10.712   7.536  0.0152  0.0099 -0.2168
 1021YOPC   C4B13396   0.359  10.634   7.954 -0.0234  0.0057  0.3321
 1022YOPC   NC313397  11.514  16.919   5.827  0.0328 -0.1261 -0.0639
 1022YOPC   PO413398  11.065  17.041   6.011 -0.1773 -0.0405  0.2047
 1022YOPC   GL113399  11.301  17.083   6.303  0.1184  0.1794 -0.0182
 1022YOPC   GL213400  11.689  16.982   6.291 -0.3475  0.1579 -0.0125
 1022YOPC   C1A13401  11.165  17.092   6.700  0.3148  0.0187 -0.1304
 1022YOPC   D2A13402  11.048  17.020   7.126  0.1132  0.2373 -0.1039
 1022YOPC   C3A13403  11.251  17.080   7.574 -0.1223 -0.0760 -0.0465
 1022YOPC   C4A13404  11.210  17.213   8.045 -0.0209 -0.3024  0.1508
 1022YOPC   C1B13405  11.720  17.180   6.634 -0.0770 -0.3462 -0.3425
 1022YOPC   C2B13406  11.485  17.175   7.045  0.2367 -0.4452 -0.3297
 1022YOPC   D3B13407  11.733  17.307   7.446  0.2663 -0.0019 -0.0544
 1022YOPC   C4B13408  12.030  17.549   7.683  0.2762 -0.2084 -0.1873
 1023YOPC   NC313409   3.665   5.046   5.636 -0.5405  0.2137  0.0340
 1023YOPC   PO413410   3.434   5.224   5.997  0.3368  0.0171 -0.1191
 1023YOPC   GL113411   3.636   5.164   6.386  0.0218 -0.3800 -0.3114
 1023YOPC   GL213412   3.975   5.342   6.542  0.0508 -0.2687 -0.0318
 1023YOPC   C1A13413   3.658   5.100   6.868  0.0807  0.0329 -0.0062
 1023YOPC   D2A13414   4.011   5.427   7.089  0.3955  0.0960 -0.1976
 1023YOPC   C3A13415   4.099   5.607   7.464 -0.0727  0.0931 -0.0372
 1023YOPC   C4A13416   4.233   5.690   7.922  0.1319 -0.0862 -0.2602
 1023YOPC   C1B13417   3.710   5.705   6.831 -0.1538 -0.0259  0.2222
 1023YOPC   C2B13418   3.599   5.913   7.165 -0.0967  0.1708 -0.0356
 1023YOPC   D3B13419   3.596   5.608   7.511  0.0029 -0.1457  0.0007
 1023YOPC   C4B13420   3.781   5.430   7.849  0.0276 -0.1492  0.0836
 1024YOPC   NC313421   0.017   7.353   5.656  0.2388 -0.1159  0.1456
 1024YOPC   PO413422  -0.004   7.580   6.121 -0.0233  0.1636 -0.1213
 1024YOPC   GL113423  -0.107   7.614   6.526  0.2213 -0.4713  0.3715
 1024YOPC   GL213424  -0.156   7.861   6.611 -0.0059 -0.1571 -0.1869
 1024YOPC   C1A13425  -0.122   7.560   7.013 -0.1386  0.4579  0.3985
 1024YOPC   D2A13426  -0.203   7.729   7.386 -0.1013 -0.0208 -0.1498
 1024YOPC   C3A13427  -0.071   7.523   7.786  0.1914 -0.1299 -0.3327
 1024YOPC   C4A13428   0.012   7.315   8.184 -0.1378  0.2611 -0.1809
 1024YOPC   C1B13429  -0.121   8.117   7.052 -0.1385 -0.0968  0.0598
 1024YOPC   C2B13430   0.092   8.075   7.412 -0.1576  0.1067 -0.0751
 1024YOPC   D3B13431  -0.067   8.084   7.805 -0.0260  0.0244  0.0457
 1024YOPC   C4B13432  -0.082   7.848   8.203  0.0355  0.0945 -0.1629
 1025YOPC   NC313433  13.893  14.276   5.341  0.0647 -0.2318  0.2536
 1025YOPC   PO413434  13.567  14.247   5.658 -0.1227  0.0186  0.4753
 1025YOPC   GL113435  13.388  14.063   5.994  0.3059  0.0056  0.1168
 1025YOPC   GL213436  13.496  13.903   6.232 -0.2204 -0.2055  0.1612
 1025YOPC   C1A13437  13.289  14.318   6.362  0.1217  0.1460 -0.0935
 1025YOPC   D2A13438  13.208  14.328   6.717 -0.0753  0.2755  0.0739
 1025YOPC   C3A13439  13.279  14.156   7.154  0.2162 -0.1345  0.3464
 1025YOPC   C4A13440  13.236  14.104   7.611 -0.1645 -0.0997 -0.0720
 1025YOPC   C1B13441  13.628  13.972   6.652 -0.1864 -0.3581  0.0668
 1025YOPC   C2B13442  13.732  14.265   7.057  0.1337 -0.0537  0.0086
 1025YOPC   D3B13443  13.725  14.199   7.424 -0.1474  0.0830 -0.0741
 1025YOPC   C4B13444  13.786  14.035   7.897 -0.3450 -0.1914  0.1824
 1026YOPC   NC313445   2.318   6.619   6.059 -0.0757 -0.0214  0.0179
 1026YOPC   PO413446   2.373   6.127   6.172 -0.0440 -0.2068  0.0604
 1026YOPC   GL113447   2.318   6.261   6.552  0.0934 -0.1223 -0.1590
 1026YOPC   GL213448   2.265   6.604   6.568  0.0736 -0.2316 -0.2787
 1026YOPC   C1A13449   2.576   6.127   6.927 -0.0585  0.0317  0.3402
 1026YOPC   D2A13450   2.566   5.931   7.384 -0.1106  0.1409  0.1389
 1026YOPC   C3A13451   2.753   6.066   7.757  0.2825 -0.2954  0.3360
 1026YOPC   C4A13452   3.030   6.479   7.773  0.0221  0.2810  0.2025
 1026YOPC   C1B13453   2.284   6.525   6.994  0.0076 -0.0026  0.1737
 1026YOPC   C2B13454   2.268   6.340   7.295 -0.0330 -0.0268  0.0145
 1026YOPC   D3B13455   2.491   6.484   7.657 -0.0303  0.1298  0.0150
 1026YOPC   C4B13456   2.421   6.563   8.027  0.0199  0.2393 -0.1943
 1027YOPC   NC313457  14.978   7.266   5.686  0.1820 -0.0573  0.2123
 1027YOPC   PO413458  15.168   7.535   5.947 -0.0123 -0.0697  0.1035
 1027YOPC   GL113459  15.090   7.706   6.410 -0.1241 -0.0668 -0.0008
 1027YOPC   GL213460  15.501   7.697   6.521 -0.1251 -0.0115 -0.0825
 1027YOPC   C1A13461  15.023   7.737   6.861 -0.1384  0.0764  0.1871
 1027YOPC   D2A13462  15.118   7.986   7.199 -0.1599  0.1035 -0.1624
 1027YOPC   C3A13463  14.899   8.268   7.335  0.0471 -0.4728  0.0372
 1027YOPC   C4A13464  14.699   8.488   7.578  0.0231  0.1304  0.1737
 1027YOPC   C1B13465  15.550   7.716   6.976 -0.2282 -0.0907 -0.0979
 1027YOPC   C2B13466  15.643   7.948   7.322 -0.1868  0.0772  0.1351
 1027YOPC   D3B13467  16.012   8.223   7.128 -0.0406  0.0849  0.0468
 1027YOPC   C4B13468  16.333   8.355   7.196  0.1566  0.1955  0.0603
 1028YOPC   NC313469  16.103  15.618   5.701 -0.0075  0.1945 -0.1039
 1028YOPC   PO413470  15.860  16.014   5.705  0.0811 -0.3866  0.1253
 1028YOPC   GL113471  15.639  16.100   6.125  0.2902  0.0993  0.2993
 1028YOPC   GL213472  15.347  15.960   6.170  0.1742  0.2013 -0.0861
 1028YOPC   C1A13473  15.569  16.329   6.471 -0.3022 -0.1148 -0.1368
 1028YOPC   D2A13474  15.492  16.477   6.937 -0.0466 -0.0922  0.4224
 1028YOPC   C3A13475  15.146  16.319   7.263 -0.3586 -0.0585 -0.2901
 1028YOPC   C4A13476  14.995  16.451   7.635  0.1106 -0.1219 -0.3320
 1028YOPC   C1B13477  15.643  15.805   6.535  0.3356 -0.0388 -0.1709
 1028YOPC   C2B13478  15.945  15.836   6.941 -0.1573 -0.1451 -0.1140
 1028YOPC   D3B13479  15.874  15.746   7.374  0.0162 -0.1699  0.5077
 1028YOPC   C4B13480  16.020  15.805   7.805 -0.0028  0.0762 -0.2752
 1029YOPC   NC313481  17.050  11.080   5.621  0.1933  0.0000 -0.3345
 1029YOPC   PO413482  16.749  10.933   5.954 -0.0096  0.1087  0.1400
 1029YOPC   GL113483  16.747  10.971   6.404 -0.1140  0.2331 -0.1037
 1029YOPC   GL213484  16.767  11.312   6.483 -0.1827  0.0711 -0.3828
 1029YOPC   C1A13485  17.032  10.945   6.728 -0.2893 -0.1347  0.0298
 1029YOPC   D2A13486  17.460  11.076   6.862  0.1505  0.0369 -0.0007
 1029YOPC   C3A13487  17.301  11.285   7.211  0.2213 -0.0183 -0.0366
 1029YOPC   C4A13488  17.290  11.161   7.641  0.0298  0.0805 -0.2214
 1029YOPC   C1B13489  16.770  11.332   6.997 -0.2727  0.2712  0.0602
 1029YOPC   C2B13490  16.803  11.465   7.427  0.0641 -0.2347  0.1979
 1029YOPC   D3B13491  16.478  11.605   7.694 -0.0082 -0.1415 -0.0929
 1029YOPC   C4B13492  16.150  11.809   8.029  0.0051  0.0507 -0.0657
 1030YOPC   NC313493   6.690  15.797   5.934 -0.0038 -0.0067  0.3813
 1030YOPC   PO413494   6.815  16.228   6.137  0.2174 -0.2217 -0.1966
 1030YOPC   GL113495   6.466  15.981   6.411 -0.0971 -0.0894  0.0241
 1030YOPC   GL213496   6.405  15.643   6.397  0.1013  0.0698 -0.1070
 1030YOPC   C1A13497   6.320  15.909   6.854 -0.1773 -0.2096 -0.2822
 1030YOPC   D2A13498   6.264  15.790   7.251 -0.0839  0.0327 -0.2019
 1030YOPC   C3A13499   6.359  16.021   7.590 -0.0496  0.0921 -0.0629
 1030YOPC   C4A13500   6.666  16.470   7.631  0.0380 -0.1856  0.0636
 1030YOPC   C1B13501   6.708  15.531   6.681  0.2324 -0.0039 -0.0157
 1030YOPC   C2B13502   6.717  15.583   7.107  0.0216 -0.3228 -0.0045
 1030YOPC   D3B13503   6.650  15.599   7.562 -0.3042 -0.1604  0.0911
 1030YOPC   C4B13504   6.778  15.290   8.021  0.3025 -0.1994  0.1627
 1031YOPC   NC313505  13.680   5.606   5.999 -0.0436  0.1012  0.4008
 1031YOPC   PO413506  13.802   6.040   6.086 -0.2084  0.1063 -0.3002
 1031YOPC   GL113507  14.008   6.016   6.480  0.0029  0.2235 -0.0422
 1031YOPC   GL213508  13.963   5.648   6.497  0.1561  0.0186  0.2510
 1031YOPC   C1A13509  14.000   6.049   6.911  0.3040  0.3066  0.2292
 1031YOPC   D2A13510  14.013   6.113   7.311 -0.2227  0.2605 -0.1490
 1031YOPC   C3A13511  13.981   6.354   7.618  0.0085  0.1085 -0.2428
 1031YOPC   C4A13512  13.738   6.518   7.970  0.0994 -0.1996  0.0657
 1031YOPC   C1B13513  14.172   5.587   6.899  0.0513  0.1542  0.0906
 1031YOPC   C2B13514  14.125   5.399   7.336  0.0061 -0.1781 -0.1310
 1031YOPC   D3B13515  14.167   5.795   7.671 -0.0235  0.0098  0.2577
 1031YOPC   C4B13516  14.225   6.069   7.979  0.0702  0.2002  0.2744
 1032YOPC   NC313517   7.900   0.634   5.886  0.0140 -0.0307  0.1513
 1032YOPC   PO413518   8.330   0.643   5.852 -0.0535 -0.0017  0.1175
 1032YOPC   GL113519   8.273   0.693   6.254 -0.0455 -0.0471  0.2307
 1032YOPC   GL213520   8.364   0.477   6.481  0.2414 -0.0279  0.0747
 1032YOPC   C1A13521   8.031   0.811   6.620 -0.2034 -0.2495 -0.3728
 1032YOPC   D2A13522   8.089   0.868   6.995  0.1297  0.3297 -0.0533
 1032YOPC   C3A13523   8.241   0.732   7.248 -0.1100  0.0778 -0.1185
 1032YOPC   C4A13524   8.440   0.557   7.612 -0.1780  0.1008 -0.0977
 1032YOPC   C1B13525   8.483   0.423   6.962 -0.0167 -0.0897  0.0098
 1032YOPC   C2B13526   8.871   0.333   7.114 -0.4263  0.3347 -0.3515
 1032YOPC   D3B13527   8.809   0.225   7.561 -0.0316 -0.0384 -0.1348
 1032YOPC   C4B13528   9.037   0.072   7.961  0.1662 -0.1413  0.0432
 1033YOPC   NC313529  17.988   4.003   5.623  0.1690  0.2978  0.1817
 1033YOPC   PO413530  17.766   3.793   5.864  0.0849 -0.0855 -0.0386
 1033YOPC   GL113531  18.032   3.832   6.320  0.1530 -0.2158 -0.2112
 1033YOPC   GL213532  18.010   4.104   6.557 -0.2893 -0.0251  0.3070
 1033YOPC   C1A13533  18.314   3.678   6.529 -0.0194  0.2236  0.2854
 1033YOPC   D2A13534  18.634   3.588   6.945  0.1135 -0.1006  0.2052
 1033YOPC   C3A13535  18.450   3.710   7.291 -0.1716  0.1375  0.3920
 1033YOPC   C4A13536  18.474   3.986   7.591  0.2766  0.0409 -0.1622
 1033YOPC   C1B13537  18.128   3.964   6.976  0.0786  0.0043 -0.0681
 1033YOPC   C2B13538  17.981   3.836   7.418  0.0206 -0.1208 -0.3932
 1033YOPC   D3B13539  18.037   4.096   7.835  0.0916  0.2077 -0.1876
 1033YOPC   C4B13540  17.814   4.087   8.242 -0.2285  0.4214 -0.0126
 1034YOPC   NC313541  13.646  12.909   5.573  0.0098  0.3246  0.1121
 1034YOPC   PO413542  13.301  13.109   5.781  0.0824 -0.0932 -0.0267
 1034YOPC   GL113543  13.154  12.939   6.259 -0.2284 -0.1266 -0.0608
 1034YOPC   GL213544  12.957  12.675   6.355  0.4597 -0.0567  0.1116
 1034YOPC   C1A13545  13.002  12.866   6.787  0.2373 -0.1806 -0.0962
 1034YOPC   D2A13546  13.071  12.784   7.306 -0.0854  0.0643  0.3301
 1034YOPC   C3A13547  13.005  12.819   7.823 -0.1354 -0.1274 -0.1858
 1034YOPC   C4A13548  13.032  13.225   8.013 -0.2090  0.0041  0.0782
 1034YOPC   C1B13549  12.754  12.425   6.652 -0.3871 -0.1543  0.0271
 1034YOPC   C2B13550  13.014  12.380   7.022 -0.0355 -0.1156 -0.2697
 1034YOPC   D3B13551  12.932  12.303   7.406  0.0738  0.0834 -0.1023
 1034YOPC   C4B13552  12.992  12.238   7.863 -0.1857 -0.0400 -0.1332
 1035YOPC   NC313553   0.276   8.955   5.655  0.1681 -0.1782 -0.0143
 1035YOPC   PO413554   0.442   8.649   6.055  0.1019 -0.0413  0.1183
 1035YOPC   GL113555   0.639   8.799   6.449  0.0381  0.0802 -0.2756
 1035YOPC   GL213556   0.617   9.036   6.599 -0.0236  0.2793 -0.0914
 1035YOPC   C1A13557   0.693   8.734   6.960 -0.0564  0.0785 -0.0477
 1035YOPC   D2A13558   1.018   8.747   7.245 -0.2525 -0.1730  0.0585
 1035YOPC   C3A13559   0.835   8.648   7.585 -0.2436 -0.0011  0.0781
 1035YOPC   C4A13560   0.752   8.713   8.126  0.1030 -0.2211 -0.0949
 1035YOPC   C1B13561   0.852   9.218   6.937  0.0021 -0.2412 -0.1565
 1035YOPC   C2B13562   0.665   9.441   7.362  0.2364  0.0031 -0.2152
 1035YOPC   D3B13563   0.985   9.670   7.613  0.1226 -0.2178 -0.1409
 1035YOPC   C4B13564   1.231   9.919   7.927 -0.2772  0.0101 -0.0138
 1036YOPC   NC313565   1.394   2.571   5.731 -0.1929 -0.0834 -0.0127
 1036YOPC   PO413566   1.682   2.845   5.748 -0.1523 -0.1070 -0.0623
 1036YOPC   GL113567   1.464   2.874   6.088 -0.0593 -0.0280 -0.0153
 1036YOPC   GL213568   1.456   3.105   6.255  0.0945  0.0359 -0.2275
 1036YOPC   C1A13569   1.475   2.700   6.448  0.0439 -0.0595  0.1117
 1036YOPC   D2A13570   1.498   2.658   6.864  0.0011 -0.0265 -0.0455
 1036YOPC   C3A13571   1.271   2.394   7.075 -0.1465 -0.1430 -0.0034
 1036YOPC   C4A13572   1.332   2.097   7.381 -0.0474 -0.1760  0.1315
 1036YOPC   C1B13573   1.220   3.381   6.589  0.0052 -0.0434  0.0026
 1036YOPC   C2B13574   1.001   3.418   6.992  0.0806  0.1025 -0.0992
 1036YOPC   D3B13575   1.079   3.289   7.408 -0.2209  0.0206 -0.2732
 1036YOPC   C4B13576   0.933   3.128   7.745 -0.3492  0.2048 -0.1745
 1037YOPC   NC313577   5.571   7.651   5.602  0.0058  0.3457 -0.2218
 1037YOPC   PO413578   5.197   7.700   5.879 -0.0075 -0.0738 -0.0383
 1037YOPC   GL113579   4.981   7.910   6.104  0.0642 -0.0085 -0.0114
 1037YOPC   GL213580   4.633   7.880   6.095 -0.1583 -0.1382  0.0885
 1037YOPC   C1A13581   5.026   8.065   6.530  0.0850 -0.1959  0.0624
 1037YOPC   D2A13582   5.153   7.898   6.935 -0.0627 -0.0008 -0.1754
 1037YOPC   C3A13583   5.044   7.704   7.254  0.0261  0.0930 -0.3859
 1037YOPC   C4A13584   5.166   7.825   7.711  0.0657  0.2967 -0.0690
 1037YOPC   C1B13585   4.773   7.649   6.446  0.3258  0.1029  0.0812
 1037YOPC   C2B13586   4.929   7.510   6.799 -0.0614 -0.0942 -0.1042
 1037YOPC   D3B13587   4.635   7.274   7.086 -0.1488  0.0451  0.3479
 1037YOPC   C4B13588   4.516   7.300   7.550  0.0136  0.0426  0.1600
 1038YOPC   NC313589   1.678  15.403   5.164  0.2960  0.2113 -0.1252
 1038YOPC   PO413590   1.316  15.293   5.448  0.0439  0.3874  0.1894
 1038YOPC   GL113591   1.093  15.472   5.879  0.0974  0.3099 -0.0166
 1038YOPC   GL213592   0.780  15.272   5.939  0.2734 -0.2168 -0.1262
 1038YOPC   C1A13593   1.084  15.833   6.180  0.3464  0.1900  0.5140
 1038YOPC   D2A13594   1.452  16.042   6.338 -0.0990  0.1022 -0.0479
 1038YOPC   C3A13595   1.596  15.784   6.611 -0.1263 -0.1140 -0.1656
 1038YOPC   C4A13596   1.875  15.399   6.754 -0.0278  0.1436 -0.0889
 1038YOPC   C1B13597   0.982  15.179   6.209  0.1082 -0.1721 -0.0600
 1038YOPC   C2B13598   1.155  14.847   6.571  0.1320  0.0262 -0.1243
 1038YOPC   D3B13599   1.157  14.972   7.033  0.2328  0.3877 -0.3016
 1038YOPC   C4B13600   1.175  15.245   7.442 -0.0076  0.6716  0.2704
 1039YOPC   NC313601   2.860  10.517   6.194  0.0641 -0.0225  0.5909
 1039YOPC   PO413602   3.182  10.314   6.234  0.1318 -0.2023 -0.0335
 1039YOPC   GL113603   3.048  10.435   6.638 -0.0403  0.0344 -0.0481
 1039YOPC   GL213604   2.716  10.355   6.639  0.0117 -0.0689  0.0256
 1039YOPC   C1A13605   3.038  10.585   7.131 -0.1389  0.0161  0.2036
 1039YOPC   D2A13606   3.064  10.545   7.613  0.1250  0.1809 -0.3038
 1039YOPC   C3A13607   2.649  10.660   7.884  0.2798  0.0913  0.2752
 1039YOPC   C4A13608   2.527  10.961   8.222  0.0512 -0.1991  0.1617
 1039YOPC   C1B13609   2.670  10.318   6.998  0.0279  0.1131  0.1217
 1039YOPC   C2B13610   2.693  10.243   7.437  0.1767 -0.0589  0.0924
 1039YOPC   D3B13611   2.397  10.237   7.864 -0.1557  0.0823  0.2623
 1039YOPC   C4B13612   2.297  10.498   8.174 -0.0008 -0.0442 -0.1150
 1040YOPC   NC313613  14.255  16.373   5.185 -0.0181  0.0698  0.0654
 1040YOPC   PO413614  14.469  16.032   5.469 -0.0422 -0.0758 -0.1215
 1040YOPC   GL113615  14.384  16.189   5.887 -0.0085  0.1410 -0.1019
 1040YOPC   GL213616  14.123  16.220   6.104 -0.4248  0.2191  0.1364
 1040YOPC   C1A13617  14.629  16.100   6.317 -0.2180 -0.0403 -0.2603
 1040YOPC   D2A13618  14.845  16.008   6.754  0.1414  0.0447 -0.0034
 1040YOPC   C3A13619  15.231  16.018   6.830  0.1129 -0.0064 -0.0929
 1040YOPC   C4A13620  15.553  16.021   7.145  0.2040 -0.2423  0.0012
 1040YOPC   C1B13621  14.162  16.066   6.516  0.1747  0.0727 -0.0996
 1040YOPC   C2B13622  14.071  15.638   6.677  0.0407  0.1599  0.0868
 1040YOPC   D3B13623  13.713  15.591   6.900  0.0396  0.5224  0.0790
 1040YOPC   C4B13624  13.493  15.908   7.269  0.1922  0.2124 -0.0879
 1041YOPC   NC313625  14.377   3.449   6.011 -0.0719  0.0158 -0.1627
 1041YOPC   PO413626  13.970   3.641   6.132 -0.0527  0.1203 -0.0144
 1041YOPC   GL113627  13.777   3.691   6.593 -0.2641  0.1513 -0.0511
 1041YOPC   GL213628  13.463   3.785   6.579  0.0296 -0.2604  0.0940
 1041YOPC   C1A13629  13.932   3.518   7.044 -0.2000 -0.1781  0.0047
 1041YOPC   D2A13630  14.002   3.435   7.531 -0.1841  0.0427 -0.0893
 1041YOPC   C3A13631  13.919   3.048   7.792  0.4097  0.2167  0.0434
 1041YOPC   C4A13632  13.753   2.807   8.073 -0.0587 -0.0592  0.0806
 1041YOPC   C1B13633  13.230   3.934   6.986  0.0483  0.2269 -0.3355
 1041YOPC   C2B13634  13.210   3.838   7.325  0.1390  0.0062  0.2947
 1041YOPC   D3B13635  13.419   3.757   7.713  0.3334  0.0425  0.1731
 1041YOPC   C4B13636  13.774   3.663   7.946  0.0489  0.0106 -0.0091
 1042YOPC   NC313637  13.134  16.611   5.425 -0.2139 -0.0799  0.0350
 1042YOPC   PO413638  13.298  16.988   5.665  0.2382  0.4172  0.1156
 1042YOPC   GL113639  13.268  16.875   6.058  0.0618  0.2229  0.0848
 1042YOPC   GL213640  13.008  16.966   6.278 -0.2591  0.1858 -0.2114
 1042YOPC   C1A13641  13.279  16.600   6.515 -0.3152 -0.5333  0.2238
 1042YOPC   D2A13642  13.302  16.562   6.858 -0.0812  0.0475  0.0061
 1042YOPC   C3A13643  13.771  16.431   7.013 -0.0238 -0.2231  0.2215
 1042YOPC   C4A13644  13.939  16.001   6.992 -0.0179 -0.4385  0.2286
 1042YOPC   C1B13645  13.052  17.045   6.725 -0.2849  0.1408 -0.0208
 1042YOPC   C2B13646  13.024  16.979   7.164 -0.3128  0.2167 -0.0580
 1042YOPC   D3B13647  13.112  17.119   7.470 -0.0009 -0.0219  0.0734
 1042YOPC   C4B13648  13.259  16.825   7.862 -0.0051  0.2667  0.2474
 1043YOPC   NC313649   2.200   5.597   6.113 -0.0551  0.1074 -0.0708
 1043YOPC   PO413650   1.908   5.860   6.190  0.1380 -0.0006  0.1728
 1043YOPC   GL113651   2.121   5.841   6.578  0.0376  0.1299  0.0704
 1043YOPC   GL213652   2.456   5.739   6.537 -0.1549 -0.1998  0.3308
 1043YOPC   C1A13653   2.153   5.778   6.937  0.0152 -0.1531 -0.2791
 1043YOPC   D2A13654   2.473   5.545   7.115  0.0356  0.1894  0.1508
 1043YOPC   C3A13655   2.388   5.418   7.441  0.3765 -0.2681  0.2394
 1043YOPC   C4A13656   2.416   5.663   7.737 -0.1631  0.2219 -0.0061
 1043YOPC   C1B13657   2.803   5.660   6.720 -0.1301  0.1080  0.2554
 1043YOPC   C2B13658   3.033   5.646   7.196  0.3188  0.0327  0.2392
 1043YOPC   D3B13659   3.304   5.298   7.246  0.0246  0.0618  0.1402
 1043YOPC   C4B13660   3.702   5.139   7.380 -0.0450 -0.2206 -0.2080
 1044YOPC   NC313661  17.462  15.314   6.014 -0.1419  0.0847  0.1689
 1044YOPC   PO413662  17.065  15.087   6.133  0.0726  0.1576 -0.1357
 1044YOPC   GL113663  17.058  15.299   6.461  0.2358 -0.0303  0.0130
 1044YOPC   GL213664  17.251  15.554   6.540  0.2488 -0.4369 -0.0880
 1044YOPC   C1A13665  16.838  15.410   6.747  0.0668 -0.0753  0.1280
 1044YOPC   D2A13666  16.806  15.417   7.284  0.0083 -0.0185 -0.0412
 1044YOPC   C3A13667  16.634  15.825   7.528  0.2113  0.2404 -0.2201
 1044YOPC   C4A13668  16.430  16.187   7.806  0.1932  0.2667  0.0102
 1044YOPC   C1B13669  17.068  15.754   6.937  0.1302  0.0256  0.2579
 1044YOPC   C2B13670  16.600  15.773   7.034 -0.2505  0.0436  0.0360
 1044YOPC   D3B13671  16.307  15.482   7.300 -0.1366 -0.3111 -0.0335
 1044YOPC   C4B13672  16.060  15.318   7.649 -0.0321  0.1318  0.1126
 1045YOPC   NC313673   4.909   5.302   6.301 -0.0108 -0.1563  0.0938
 1045YOPC   PO413674   4.988   4.953   6.216 -0.0743 -0.0689 -0.2755
 1045YOPC   GL113675   5.152   4.990   6.670 -0.0774  0.1299  0.2471
 1045YOPC   GL213676   4.883   5.016   6.788 -0.2355  0.2775  0.1585
 1045YOPC   C1A13677   5.376   4.943   7.016 -0.0328  0.2376 -0.2538
 1045YOPC   D2A13678   5.390   4.993   7.422  0.1379  0.1772 -0.0336
 1045YOPC   C3A13679   5.738   5.246   7.642  0.2047 -0.1386 -0.0223
 1045YOPC   C4A13680   6.029   5.496   7.890 -0.1048  0.0386 -0.0144
 1045YOPC   C1B13681   4.964   5.110   7.235 -0.1336  0.1316 -0.1099
 1045YOPC   C2B13682   5.058   5.341   7.636 -0.1961  0.0767  0.2697
 1045YOPC   D3B13683   4.925   5.320   8.104 -0.0082 -0.0891 -0.1030
 1045YOPC   C4B13684   4.891   5.400   8.546 -0.1177 -0.1666  0.0449
 1046YOPC   NC313685  13.391   2.932   6.183  0.0154  0.3059 -0.0497
 1046YOPC   PO413686  13.111   3.237   5.922  0.1025 -0.1268 -0.0856
 1046YOPC   GL113687  12.878   3.050   6.350 -0.0466  0.1357  0.4249
 1046YOPC   GL213688  12.603   3.221   6.408 -0.4550 -0.0278  0.0002
 1046YOPC   C1A13689  12.926   3.033   6.838  0.2068 -0.0078  0.3356
 1046YOPC   D2A13690  13.043   2.947   7.244 -0.1524 -0.0087 -0.1155
 1046YOPC   C3A13691  12.842   2.899   7.660 -0.0072  0.2080 -0.0329
 1046YOPC   C4A13692  12.406   2.794   7.686 -0.0222 -0.0116 -0.0972
 1046YOPC   C1B13693  12.300   3.040   6.618  0.0602 -0.1234  0.1135
 1046YOPC   C2B13694  12.112   2.659   6.687  0.0670 -0.0498 -0.0494
 1046YOPC   D3B13695  12.094   2.421   6.963  0.5444 -0.2344 -0.1070
 1046YOPC   C4B13696  11.879   2.277   7.436 -0.2486 -0.4195  0.0996
 1047YOPC   NC313697  10.586   9.744   6.087  0.5910 -0.2297  0.0469
 1047YOPC   PO413698  10.254   9.424   6.097  0.2899  0.1843 -0.1798
 1047YOPC   GL113699  10.291   9.368   6.507  0.2512  0.2378  0.2120
 1047YOPC   GL213700  10.528   9.447   6.532 -0.0911  0.0177  0.2646
 1047YOPC   C1A13701   9.973   9.234   6.795  0.1696  0.0477  0.3342
 1047YOPC   D2A13702   9.946   9.225   7.187 -0.0703  0.0823 -0.1178
 1047YOPC   C3A13703   9.868   9.494   7.525 -0.1009 -0.0422 -0.3579
 1047YOPC   C4A13704  10.056   9.538   7.919  0.0691  0.0888  0.0542
 1047YOPC   C1B13705  10.562   9.292   6.999  0.0108 -0.1322  0.2751
 1047YOPC   C2B13706  10.455   9.273   7.430 -0.0509  0.0653 -0.0133
 1047YOPC   D3B13707  10.642   9.499   7.712  0.1032 -0.0640 -0.1518
 1047YOPC   C4B13708  10.956   9.442   8.136 -0.0115  0.1914  0.1148
 1048YOPC   NC313709  11.823  11.140   5.740  0.1480 -0.2909 -0.3943
 1048YOPC   PO413710  11.915  10.841   5.915 -0.1884  0.0756 -0.3335
 1048YOPC   GL113711  12.019  10.884   6.334  0.0986  0.1148 -0.0739
 1048YOPC   GL213712  12.330  10.929   6.422 -0.2589 -0.2445 -0.1200
 1048YOPC   C1A13713  11.933  10.792   6.785 -0.1547 -0.1575 -0.1709
 1048YOPC   D2A13714  11.739  10.884   7.109  0.1414 -0.2222 -0.1399
 1048YOPC   C3A13715  11.737  10.902   7.577 -0.3865  0.0243  0.0541
 1048YOPC   C4A13716  11.541  10.881   7.997  0.0281 -0.0075  0.1589
 1048YOPC   C1B13717  12.445  11.034   6.721  0.1062 -0.2607 -0.1343
 1048YOPC   C2B13718  12.221  11.089   7.114 -0.2368  0.0080 -0.0133
 1048YOPC   D3B13719  12.362  11.347   7.466  0.1181  0.1592 -0.0959
 1048YOPC   C4B13720  12.054  11.598   7.598 -0.0616 -0.1668  0.2239
 1049YOPC   NC313721   4.174   3.200   5.862 -0.1589  0.2007 -0.0255
 1049YOPC   PO413722   3.987   2.835   5.918 -0.0426  0.1368 -0.3721
 1049YOPC   GL113723   4.014   2.989   6.324 -0.0290  0.0628 -0.0778
 1049YOPC   GL213724   4.364   2.940   6.304  0.1619  0.1311  0.0183
 1049YOPC   C1A13725   3.979   2.977   6.704  0.0415 -0.1866  0.0949
 1049YOPC   D2A13726   4.083   2.694   7.080  0.0165 -0.0635  0.3454
 1049YOPC   C3A13727   4.040   2.370   6.794  0.0897 -0.1950 -0.1084
 1049YOPC   C4A13728   4.271   2.138   6.466 -0.1175  0.3247  0.1370
 1049YOPC   C1B13729   4.422   2.704   6.672 -0.1992 -0.1118 -0.0207
 1049YOPC   C2B13730   4.560   2.805   7.099  0.1511 -0.0403 -0.0187
 1049YOPC   D3B13731   4.461   2.438   7.276  0.0057 -0.2125 -0.1353
 1049YOPC   C4B13732   4.635   2.321   7.586 -0.0364  0.0733 -0.0006
 1050YOPC   NC313733  13.030   0.866   5.367  0.0704 -0.2037  0.2758
 1050YOPC   PO413734  12.862   0.610   5.612 -0.0423 -0.1158 -0.1056
 1050YOPC   GL113735  12.942   0.692   6.082  0.2700  0.0351  0.3786
 1050YOPC   GL213736  12.696   0.556   6.272 -0.0804  0.2312  0.0978
 1050YOPC   C1A13737  12.983   1.001   6.404  0.0957  0.0183 -0.0383
 1050YOPC   D2A13738  13.016   1.046   6.898  0.0994  0.1027  0.3404
 1050YOPC   C3A13739  13.186   1.107   7.266  0.2180  0.2219 -0.0343
 1050YOPC   C4A13740  13.363   0.905   7.583  0.0826  0.0288  0.0189
 1050YOPC   C1B13741  12.712   0.763   6.696 -0.0057 -0.0799  0.1415
 1050YOPC   C2B13742  12.714   0.777   7.133  0.1484 -0.1008 -0.1310
 1050YOPC   D3B13743  12.726   1.077   7.446 -0.0246 -0.3040 -0.4492
 1050YOPC   C4B13744  12.930   1.184   7.771 -0.1368  0.0127  0.0015
 1051YOPC   NC313745  17.797  11.821   5.883 -0.0775 -0.0424  0.0853
 1051YOPC   PO413746  18.080  11.854   6.288 -0.4810 -0.1034  0.1268
 1051YOPC   GL113747  18.047  12.106   6.676 -0.1117  0.1066  0.0062
 1051YOPC   GL213748  18.343  12.196   6.875  0.2459 -0.0016 -0.0926
 1051YOPC   C1A13749  17.671  12.121   6.924  0.2313  0.1288 -0.3277
 1051YOPC   D2A13750  17.494  12.094   7.436 -0.0097 -0.1540  0.2929
 1051YOPC   C3A13751  17.787  11.990   7.809  0.0600 -0.1174  0.0956
 1051YOPC   C4A13752  18.140  11.741   7.668  0.0306 -0.0814 -0.0345
 1051YOPC   C1B13753  18.548  11.906   7.064  0.1140  0.0005 -0.0245
 1051YOPC   C2B13754  18.702  12.043   7.382 -0.3816 -0.0211  0.1192
 1051YOPC   D3B13755  18.571  12.007   7.759 -0.1698  0.0600  0.2173
 1051YOPC   C4B13756  18.626  12.189   8.174 -0.1979 -0.3262  0.0576
 1052YOPC   NC313757  14.512   6.126   5.555 -0.0898 -0.4141 -0.0235
 1052YOPC   PO413758  14.766   5.984   5.790  0.0117 -0.2841 -0.2205
 1052YOPC   GL113759  14.604   5.948   6.212 -0.2264  0.0239 -0.1605
 1052YOPC   GL213760  14.444   5.756   6.410 -0.0295 -0.1330 -0.1118
 1052YOPC   C1A13761  14.489   6.252   6.500 -0.0302  0.0281  0.1364
 1052YOPC   D2A13762  14.432   6.387   7.035 -0.0905  0.0851  0.1509
 1052YOPC   C3A13763  14.472   6.709   7.407  0.0623  0.1798 -0.3022
 1052YOPC   C4A13764  14.698   6.873   7.707 -0.2403  0.3183  0.0279
 1052YOPC   C1B13765  14.564   5.909   6.876 -0.0993 -0.2568  0.1410
 1052YOPC   C2B13766  14.486   5.892   7.267  0.1213  0.0409  0.1569
 1052YOPC   D3B13767  14.616   6.251   7.525  0.0826  0.0048 -0.1117
 1052YOPC   C4B13768  14.427   6.498   7.877 -0.2096 -0.3542  0.1653
 1053YOPC   NC313769   5.089  11.652   5.591 -0.1180 -0.0225 -0.1649
 1053YOPC   PO413770   4.686  11.373   5.799  0.1690  0.0330  0.1361
 1053YOPC   GL113771   4.865  11.262   6.181  0.1146 -0.1750  0.1989
 1053YOPC   GL213772   4.999  11.542   6.360  0.3738 -0.1721  0.3928
 1053YOPC   C1A13773   4.683  11.138   6.539 -0.0340  0.0250 -0.2830
 1053YOPC   D2A13774   4.347  11.226   6.829 -0.1278  0.0556  0.0383
 1053YOPC   C3A13775   4.411  11.284   7.261 -0.0228  0.0432 -0.3038
 1053YOPC   C4A13776   4.562  11.078   7.599  0.1527 -0.0374  0.0554
 1053YOPC   C1B13777   4.780  11.553   6.642  0.0605 -0.1204 -0.0641
 1053YOPC   C2B13778   4.763  11.659   7.150  0.0876 -0.1174 -0.0745
 1053YOPC   D3B13779   4.873  11.437   7.459 -0.2633 -0.1076 -0.1783
 1053YOPC   C4B13780   4.841  11.325   7.916 -0.0607 -0.0159  0.0192
 1054YOPC   NC313781   5.563  15.231   5.839  0.1933 -0.0518  0.0363
 1054YOPC   PO413782   5.205  15.536   5.947 -0.2437 -0.1956 -0.3469
 1054YOPC   GL113783   5.051  15.517   6.282 -0.2798 -0.0139  0.2496
 1054YOPC   GL213784   4.852  15.776   6.230 -0.0056 -0.1031  0.1428
 1054YOPC   C1A13785   5.082  15.373   6.758  0.3951  0.3089 -0.2140
 1054YOPC   D2A13786   4.729  15.380   7.090 -0.2893  0.1067 -0.1335
 1054YOPC   C3A13787   4.967  15.587   7.476  0.3115 -0.0828  0.5941
 1054YOPC   C4A13788   5.083  15.406   7.903  0.4823  0.3148  0.1696
 1054YOPC   C1B13789   4.460  16.007   6.348  0.0677  0.2731  0.0210
 1054YOPC   C2B13790   4.040  16.078   6.695  0.2081  0.4152 -0.1705
 1054YOPC   D3B13791   4.054  16.058   7.200  0.1098  0.0548  0.2679
 1054YOPC   C4B13792   3.957  15.955   7.574  0.1239 -0.0229  0.1504
 1055YOPC   NC313793   3.862   6.402   5.348 -0.1817 -0.0192  0.2577
 1055YOPC   PO413794   3.743   6.745   5.659 -0.1612 -0.0216  0.0591
 1055YOPC   GL113795   3.708   6.790   6.158 -0.0778  0.0277 -0.3803
 1055YOPC   GL213796   3.452   6.971   6.381 -0.1428 -0.0433  0.1289
 1055YOPC   C1A13797   3.769   6.617   6.536 -0.0378 -0.0517 -0.0864
 1055YOPC   D2A13798   4.051   6.549   6.847 -0.1124  0.1261 -0.3067
 1055YOPC   C3A13799   3.864   6.607   7.210 -0.0748 -0.4478 -0.1071
 1055YOPC   C4A13800   3.782   6.728   7.608 -0.1339  0.0086  0.1041
 1055YOPC   C1B13801   3.412   7.012   6.754  0.0016  0.0242 -0.0592
 1055YOPC   C2B13802   3.341   6.742   7.106  0.2050  0.1406 -0.1079
 1055YOPC   D3B13803   3.330   6.853   7.594 -0.0721 -0.4990  0.4596
 1055YOPC   C4B13804   3.254   7.052   7.972 -0.1289  0.0545  0.1289
 1056YOPC   NC313805   5.683   4.469   5.882  0.1594 -0.1215 -0.0695
 1056YOPC   PO413806   5.924   4.249   5.944  0.1928  0.2249 -0.0169
 1056YOPC   GL113807   5.793   4.094   6.255 -0.1684 -0.1629  0.2218
 1056YOPC   GL213808   5.621   3.856   6.212  0.0680  0.0990 -0.3123
 1056YOPC   C1A13809   5.598   4.322   6.549  0.1329  0.1360  0.0550
 1056YOPC   D2A13810   5.714   4.529   6.909 -0.0050 -0.1231  0.1128
 1056YOPC   C3A13811   5.751   4.450   7.326 -0.0538 -0.3905  0.0230
 1056YOPC   C4A13812   5.615   4.663   7.698 -0.1055  0.0252 -0.0147
 1056YOPC   C1B13813   5.718   3.804   6.661 -0.0049  0.0093  0.0493
 1056YOPC   C2B13814   5.943   3.622   7.029  0.1219  0.2310  0.4394
 1056YOPC   D3B13815   5.892   3.799   7.424  0.1825  0.3098 -0.1011
 1056YOPC   C4B13816   5.558   4.087   7.569 -0.3661 -0.0326  0.0666
 1057YOPC   NC313817   3.360  11.460   5.810 -0.1763 -0.1645  0.3090
 1057YOPC   PO413818   3.039  11.338   6.111  0.2662 -0.1999 -0.1424
 1057YOPC   GL113819   2.931  11.267   6.475 -0.1757 -0.1149 -0.3091
 1057YOPC   GL213820   2.772  10.991   6.493  0.1379  0.0945  0.0109
 1057YOPC   C1A13821   2.877  11.073   6.945  0.0003 -0.2148  0.2004
 1057YOPC   D2A13822   2.605  10.784   7.334 -0.0637  0.0399  0.1092
 1057YOPC   C3A13823   2.430  11.041   7.686 -0.1549  0.0472  0.2688
 1057YOPC   C4A13824   2.551  11.380   7.919  0.1296  0.0771  0.2591
 1057YOPC   C1B13825   2.508  10.737   6.851 -0.2271 -0.1125 -0.1660
 1057YOPC   C2B13826   2.183  10.621   7.179  0.1415  0.1532  0.0198
 1057YOPC   D3B13827   2.161  10.638   7.608 -0.0032  0.0984  0.2051
 1057YOPC   C4B13828   2.087  10.821   7.924 -0.1256 -0.1935 -0.1111
 1058YOPC   NC313829  16.456  17.618   5.972  0.0036 -0.0751 -0.1340
 1058YOPC   PO413830  16.176  17.815   5.839 -0.1143  0.0893 -0.1704
 1058YOPC   GL113831  15.991  17.556   6.186  0.0900 -0.2132  0.2394
 1058YOPC   GL213832  16.213  17.329   6.367 -0.2729 -0.0262  0.0348
 1058YOPC   C1A13833  15.794  17.489   6.543  0.0781  0.4541 -0.0816
 1058YOPC   D2A13834  15.900  17.544   6.896 -0.0491  0.0226 -0.1922
 1058YOPC   C3A13835  15.731  17.664   7.285 -0.1835 -0.0182 -0.2412
 1058YOPC   C4A13836  15.621  17.699   7.734  0.0313 -0.5198 -0.0852
 1058YOPC   C1B13837  16.326  17.302   6.799  0.1924 -0.2127  0.0744
 1058YOPC   C2B13838  16.211  17.402   7.248  0.0993 -0.5117 -0.0528
 1058YOPC   D3B13839  16.156  16.965   7.561 -0.0500 -0.1558 -0.0481
 1058YOPC   C4B13840  16.036  16.980   8.038 -0.3428  0.0667 -0.1885
 1059YOPC   NC313841   4.447   0.733   5.804  0.4135  0.2356 -0.1720
 1059YOPC   PO413842   4.747   1.075   5.949  0.0047 -0.1705 -0.0988
 1059YOPC   GL113843   4.354   0.953   6.260 -0.0549  0.2464  0.1848
 1059YOPC   GL213844   4.543   0.629   6.307  0.1896  0.0234 -0.0799
 1059YOPC   C1A13845   4.178   0.809   6.579  0.0532 -0.3605 -0.0571
 1059YOPC   D2A13846   3.896   0.532   6.812  0.1552 -0.0731 -0.0610
 1059YOPC   C3A13847   3.959   0.464   7.314  0.0432 -0.1596 -0.1303
 1059YOPC   C4A13848   3.853   0.258   7.652 -0.1415 -0.0544  0.0599
 1059YOPC   C1B13849   4.646   0.905   6.771  0.0923  0.0304 -0.0256
 1059YOPC   C2B13850   4.750   0.862   7.239  0.1406  0.1105 -0.0479
 1059YOPC   D3B13851   4.802   0.886   7.628  0.0376 -0.4126  0.0312
 1059YOPC   C4B13852   5.032   1.263   7.835 -0.1519  0.1511 -0.1933
 1060YOPC   NC313853   3.149   3.410   6.120  0.1575 -0.1980 -0.0830
 1060YOPC   PO413854   2.836   3.441   6.383 -0.3047  0.1513 -0.2551
 1060YOPC   GL113855   2.605   3.125   6.598 -0.0240 -0.2034 -0.0991
 1060YOPC   GL213856   2.449   2.874   6.316  0.0826 -0.0214  0.2155
 1060YOPC   C1A13857   2.547   3.080   7.101 -0.1038  0.2193  0.4405
 1060YOPC   D2A13858   2.630   2.930   7.523 -0.2736  0.1506  0.0383
 1060YOPC   C3A13859   2.342   3.041   7.875  0.0645  0.3758 -0.2416
 1060YOPC   C4A13860   1.882   2.820   7.945  0.1224  0.2447  0.1699
 1060YOPC   C1B13861   2.499   2.679   6.710  0.0450 -0.0680 -0.0363
 1060YOPC   C2B13862   2.551   2.539   7.187  0.0530 -0.1875 -0.0887
 1060YOPC   D3B13863   2.260   2.259   7.370  0.0149 -0.2516 -0.0202
 1060YOPC   C4B13864   2.009   2.290   7.709  0.2437  0.1459  0.1758
 1061YOPC   NC313865   7.750   7.713   5.897  0.0736 -0.1556 -0.1693
 1061YOPC   PO413866   7.969   8.040   6.087 -0.2750  0.0297 -0.0804
 1061YOPC   GL113867   7.913   8.148   6.474 -0.1997  0.1617 -0.0192
 1061YOPC   GL213868   7.560   8.178   6.522 -0.0990 -0.2513 -0.0703
 1061YOPC   C1A13869   7.884   8.017   6.944  0.0256  0.0529 -0.3035
 1061YOPC   D2A13870   8.036   8.014   7.323  0.2217  0.0207  0.0270
 1061YOPC   C3A13871   7.731   7.985   7.584 -0.1311 -0.2318  0.1299
 1061YOPC   C4A13872   7.551   7.705   7.907  0.0416 -0.0445  0.1438
 1061YOPC   C1B13873   7.433   8.206   6.943 -0.1151  0.1300 -0.1456
 1061YOPC   C2B13874   7.430   8.301   7.333  0.1602 -0.0239 -0.0389
 1061YOPC   D3B13875   7.255   8.566   7.587 -0.1700  0.3900  0.1678
 1061YOPC   C4B13876   6.990   8.719   7.818  0.1388 -0.0491 -0.2768
 1062YOPC   NC313877  10.665  14.069   6.102 -0.1014 -0.1124  0.1073
 1062YOPC   PO413878  10.655  13.602   5.946  0.1901  0.1025  0.1824
 1062YOPC   GL113879  10.838  13.679   6.390  0.2223 -0.2938  0.0666
 1062YOPC   GL213880  10.965  14.057   6.498  0.1802  0.2820  0.1047
 1062YOPC   C1A13881  11.153  13.544   6.707 -0.1155 -0.1785  0.2672
 1062YOPC   D2A13882  11.146  13.565   7.092 -0.2675 -0.0477 -0.2863
 1062YOPC   C3A13883  11.509  13.812   7.187 -0.1113 -0.2415  0.0830
 1062YOPC   C4A13884  11.753  13.959   7.490 -0.0885  0.2852  0.2133
 1062YOPC   C1B13885  11.076  14.083   6.937  0.0087  0.2110 -0.0862
 1062YOPC   C2B13886  11.022  13.955   7.382  0.2920 -0.0908  0.0073
 1062YOPC   D3B13887  10.556  14.037   7.648  0.1465 -0.1085 -0.0808
 1062YOPC   C4B13888  10.298  13.933   7.969 -0.2371  0.0451  0.0562
 1063YOPC   NC313889   9.493   5.779   6.087  0.1242 -0.1386  0.1850
 1063YOPC   PO413890   9.822   5.450   6.213 -0.0328 -0.1566  0.1520
 1063YOPC   GL113891  10.183   5.087   6.365  0.2294 -0.0278 -0.1951
 1063YOPC   GL213892  10.526   5.084   6.300 -0.1189 -0.2500  0.0942
 1063YOPC   C1A13893  10.300   4.902   6.759  0.1848  0.3537 -0.0433
 1063YOPC   D2A13894  10.355   4.773   7.149 -0.0873  0.0467  0.2387
 1063YOPC   C3A13895  10.468   4.392   7.359 -0.0221 -0.1020 -0.0473
 1063YOPC   C4A13896  10.314   4.241   7.724 -0.0129  0.2395 -0.2864
 1063YOPC   C1B13897  10.544   4.572   6.493 -0.0284  0.2905  0.2156
 1063YOPC   C2B13898  10.676   4.322   6.910 -0.0986 -0.1859 -0.4298
 1063YOPC   D3B13899  10.991   4.445   7.166 -0.0537  0.0516  0.4843
 1063YOPC   C4B13900  11.296   4.344   7.549 -0.1348  0.0082 -0.3065
 1064YOPC   NC313901  15.993  16.463   5.897 -0.0339 -0.0898  0.0870
 1064YOPC   PO413902  16.499  16.639   5.920  0.0108 -0.1796  0.0560
 1064YOPC   GL113903  16.326  16.714   6.370  0.2648 -0.0731  0.3905
 1064YOPC   GL213904  16.109  16.493   6.363  0.1066 -0.2645  0.0989
 1064YOPC   C1A13905  16.377  16.833   6.680 -0.0398  0.1435 -0.1942
 1064YOPC   D2A13906  16.286  16.895   7.085  0.2348 -0.0942 -0.0631
 1064YOPC   C3A13907  16.433  16.498   7.403  0.2203 -0.0609 -0.4951
 1064YOPC   C4A13908  16.216  16.097   7.361  0.2526 -0.2875  0.1236
 1064YOPC   C1B13909  15.960  16.447   6.853 -0.2923 -0.1098  0.1349
 1064YOPC   C2B13910  15.883  16.518   7.273 -0.2064  0.0274 -0.4582
 1064YOPC   D3B13911  15.646  16.327   7.554  0.3310 -0.1180 -0.3315
 1064YOPC   C4B13912  15.665  16.310   8.057 -0.0457 -0.0608 -0.0498
 1065YOPC   NC313913   4.612   3.811   6.000 -0.1782  0.1920  0.2072
 1065YOPC   PO413914   4.637   3.352   5.909 -0.0721  0.2843  0.2498
 1065YOPC   GL113915   4.477   3.409   6.310 -0.1963 -0.3074  0.3234
 1065YOPC   GL213916   4.453   3.735   6.524  0.0926 -0.1433 -0.1089
 1065YOPC   C1A13917   4.452   3.238   6.733  0.3972 -0.3629 -0.3773
 1065YOPC   D2A13918   4.315   3.249   7.137 -0.0643 -0.1451  0.1386
 1065YOPC   C3A13919   4.342   3.572   7.403 -0.2013 -0.1093  0.2673
 1065YOPC   C4A13920   4.122   3.955   7.439  0.1683 -0.2212  0.0658
 1065YOPC   C1B13921   4.512   3.693   6.888  0.3111  0.2037 -0.0478
 1065YOPC   C2B13922   4.852   3.492   7.156 -0.1072 -0.0618  0.2410
 1065YOPC   D3B13923   4.663   3.111   7.468  0.0505 -0.3959 -0.1127
 1065YOPC   C4B13924   4.622   2.835   7.798  0.1178 -0.1977  0.1576
 1066YOPC   NC313925   2.189   2.536   5.623  0.3217 -0.0338  0.1421
 1066YOPC   PO413926   2.144   2.069   5.501 -0.1175  0.1605  0.0090
 1066YOPC   GL113927   2.222   2.177   5.943  0.0062 -0.1329  0.0540
 1066YOPC   GL213928   2.255   1.825   6.048 -0.0111 -0.2182 -0.1726
 1066YOPC   C1A13929   2.284   2.317   6.311 -0.3274 -0.0521 -0.2981
 1066YOPC   D2A13930   2.186   2.328   6.833 -0.4182  0.2810  0.4162
 1066YOPC   C3A13931   1.959   2.639   7.038  0.0802 -0.1362 -0.0314
 1066YOPC   C4A13932   1.692   2.658   7.366 -0.0795  0.2483 -0.0774
 1066YOPC   C1B13933   1.945   1.496   6.202  0.3053  0.1897 -0.3317
 1066YOPC   C2B13934   1.970   1.143   6.394  0.0893 -0.2177 -0.0855
 1066YOPC   D3B13935   1.989   1.197   6.820 -0.0282  0.3440  0.0324
 1066YOPC   C4B13936   1.647   1.203   7.162  0.2352  0.0431  0.1706
 1067YOPC   NC313937   0.521  12.444   5.977 -0.0699  0.2395 -0.1565
 1067YOPC   PO413938   0.919  12.171   5.793 -0.1454 -0.0826 -0.0066
 1067YOPC   GL113939   0.944  12.140   6.247  0.2187 -0.1281  0.1630
 1067YOPC   GL213940   1.345  12.243   6.374  0.2617  0.0820 -0.1452
 1067YOPC   C1A13941   0.802  12.038   6.659  0.0728 -0.3797 -0.0654
 1067YOPC   D2A13942   0.862  11.733   6.906  0.0483 -0.0994  0.2336
 1067YOPC   C3A13943   0.715  11.514   7.098 -0.0323  0.1773 -0.1775
 1067YOPC   C4A13944   0.470  11.558   7.503 -0.0706  0.0744  0.1339
 1067YOPC   C1B13945   1.206  12.244   6.889 -0.1359  0.0118  0.3086
 1067YOPC   C2B13946   1.120  12.227   7.242 -0.1050 -0.1746 -0.3399
 1067YOPC   D3B13947   1.036  11.789   7.453  0.5128  0.4885  0.0526
 1067YOPC   C4B13948   1.027  11.337   7.584 -0.1273 -0.1165  0.0844
 1068YOPC   NC313949   1.453  12.777   5.949 -0.0745  0.3346 -0.0255
 1068YOPC   PO413950   1.720  13.069   5.844 -0.1135  0.0773 -0.1540
 1068YOPC   GL113951   1.623  13.067   6.298 -0.0469 -0.1435  0.0899
 1068YOPC   GL213952   1.675  12.759   6.462 -0.1249  0.2127 -0.0697
 1068YOPC   C1A13953   1.705  13.405   6.552  0.0057  0.2893 -0.0900
 1068YOPC   D2A13954   1.933  13.597   6.870 -0.1052  0.3305 -0.1085
 1068YOPC   C3A13955   2.003  13.650   7.281 -0.3244  0.0860  0.1520
 1068YOPC   C4A13956   2.211  13.770   7.797  0.4039 -0.0881  0.1218
 1068YOPC   C1B13957   1.882  12.955   6.832 -0.0577 -0.0686  0.3400
 1068YOPC   C2B13958   1.797  13.173   7.203  0.0371  0.1736 -0.0745
 1068YOPC   D3B13959   1.768  12.849   7.435  0.2551 -0.1111  0.2620
 1068YOPC   C4B13960   1.720  12.490   7.705  0.0136  0.2939  0.0707
 1069YOPC   NC313961  12.175  13.327   5.524  0.0043 -0.1945 -0.1389
 1069YOPC   PO413962  12.020  13.105   5.911 -0.0159 -0.4182 -0.1210
 1069YOPC   GL113963  11.978  13.087   6.289 -0.0093 -0.1286 -0.0517
 1069YOPC   GL213964  11.879  12.775   6.470 -0.0018  0.0434 -0.1144
 1069YOPC   C1A13965  12.295  13.293   6.533 -0.1168  0.0788  0.0442
 1069YOPC   D2A13966  12.355  13.475   6.842  0.1037  0.0206  0.0931
 1069YOPC   C3A13967  12.591  13.830   6.803 -0.2564 -0.2090 -0.1570
 1069YOPC   C4A13968  12.741  14.149   6.970  0.0139 -0.0644 -0.1573
 1069YOPC   C1B13969  11.930  12.919   6.864 -0.2089  0.0353  0.1310
 1069YOPC   C2B13970  11.884  12.893   7.337  0.6432  0.1238  0.2990
 1069YOPC   D3B13971  12.217  12.870   7.674 -0.0563 -0.1634 -0.0342
 1069YOPC   C4B13972  12.632  12.792   7.465  0.3319  0.1668 -0.3117
 1070YOPC   NC313973   0.285   9.127   6.255  0.0996  0.1982  0.0061
 1070YOPC   PO413974  -0.138   9.437   6.280 -0.2028 -0.0623 -0.1846
 1070YOPC   GL113975  -0.080   9.132   6.581 -0.3077 -0.1629  0.3631
 1070YOPC   GL213976  -0.314   8.879   6.592  0.1929 -0.0979 -0.0602
 1070YOPC   C1A13977  -0.073   9.126   7.042 -0.0286  0.3241  0.1189
 1070YOPC   D2A13978   0.081   9.273   7.455  0.3890 -0.0016 -0.2110
 1070YOPC   C3A13979  -0.004   8.834   7.737  0.4088 -0.3320 -0.3472
 1070YOPC   C4A13980  -0.145   8.499   8.044 -0.3895 -0.1864 -0.0107
 1070YOPC   C1B13981  -0.544   8.969   6.949 -0.1803  0.1658 -0.0390
 1070YOPC   C2B13982  -0.710   9.089   7.277  0.0917  0.1451  0.0041
 1070YOPC   D3B13983  -0.398   9.153   7.428 -0.1608 -0.1139 -0.0376
 1070YOPC   C4B13984  -0.289   9.309   7.773  0.2066 -0.0849  0.0656
 1071YOPC   NC313985   6.177   1.053   6.008 -0.1854 -0.1714  0.3022
 1071YOPC   PO413986   6.191   0.642   6.130  0.1141 -0.0322 -0.0041
 1071YOPC   GL113987   6.114   0.828   6.506 -0.1283 -0.0302  0.0826
 1071YOPC   GL213988   6.355   0.902   6.590  0.0578 -0.1257  0.2355
 1071YOPC   C1A13989   5.929   0.935   6.910  0.1871 -0.3718 -0.1124
 1071YOPC   D2A13990   5.817   0.908   7.324  0.0210  0.1378 -0.0309
 1071YOPC   C3A13991   5.929   1.047   7.717 -0.0627  0.1879  0.2378
 1071YOPC   C4A13992   6.043   1.255   8.149  0.0267 -0.1585 -0.2448
 1071YOPC   C1B13993   6.429   0.718   6.892  0.3791  0.3543 -0.3897
 1071YOPC   C2B13994   6.238   0.707   7.275  0.1831 -0.1507 -0.2666
 1071YOPC   D3B13995   6.430   0.937   7.512  0.0435 -0.0191  0.0118
 1071YOPC   C4B13996   6.413   0.992   7.953  0.1168 -0.1460  0.0974
 1072YOPC   NC313997  13.900  10.070   5.709  0.1031  0.3287  0.1822
 1072YOPC   PO413998  14.010  10.312   6.043 -0.4066  0.1375  0.2585
 1072YOPC   GL113999  14.111  10.048   6.442  0.1562  0.0718  0.2422
 1072YOPC   GL214000  14.417  10.059   6.480  0.0740  0.1473 -0.3073
 1072YOPC   C1A14001  14.013   9.953   6.799 -0.0509  0.2644  0.0045
 1072YOPC   D2A14002  13.953  10.011   7.201  0.0793 -0.3278 -0.1229
 1072YOPC   C3A14003  13.861   9.688   7.547 -0.0226 -0.0319  0.1731
 1072YOPC   C4A14004  13.785   9.392   7.789 -0.0088 -0.0929 -0.0742
 1072YOPC   C1B14005  14.432   9.651   6.759  0.3424 -0.2913 -0.5737
 1072YOPC   C2B14006  14.352   9.779   7.173  0.1789 -0.1588  0.2688
 1072YOPC   D3B14007  14.574   9.577   7.342 -0.0831 -0.1814  0.2476
 1072YOPC   C4B14008  14.820   9.398   7.702  0.0138 -0.2344  0.1103
 1073YOPC   NC314009  11.599   7.999   6.068 -0.0019 -0.0007 -0.1323
 1073YOPC   PO414010  11.909   8.372   6.134  0.3636  0.3149  0.0485
 1073YOPC   GL114011  12.167   8.593   6.320 -0.3490  0.0100  0.1902
 1073YOPC   GL214012  11.983   8.827   6.420 -0.3303 -0.0915 -0.2305
 1073YOPC   C1A14013  12.322   8.624   6.828 -0.0337  0.0576  0.0907
 1073YOPC   D2A14014  12.378   8.791   7.098 -0.0181  0.0636 -0.1120
 1073YOPC   C3A14015  12.315   8.880   7.633 -0.0265  0.0980  0.2007
 1073YOPC   C4A14016  12.165   8.598   8.005  0.1831 -0.1858  0.1307
 1073YOPC   C1B14017  11.905   8.885   6.886 -0.2733 -0.1375  0.0643
 1073YOPC   C2B14018  11.930   8.845   7.277 -0.3327  0.0467 -0.0846
 1073YOPC   D3B14019  11.889   8.567   7.572 -0.1000  0.1148  0.2275
 1073YOPC   C4B14020  11.546   8.582   7.857  0.2621 -0.2185  0.0256
 1074YOPC   NC314021  17.103   1.349   5.371  0.0025  0.0025  0.1816
 1074YOPC   PO414022  17.574   1.338   5.598 -0.0803 -0.0172  0.0357
 1074YOPC   GL114023  17.787   1.463   6.049  0.0926 -0.2860 -0.0806
 1074YOPC   GL214024  18.088   1.657   6.068 -0.0227  0.0522  0.2105
 1074YOPC   C1A14025  17.866   1.471   6.499 -0.2301 -0.4206 -0.1444
 1074YOPC   D2A14026  18.260   1.327   6.793  0.0321  0.1334 -0.1620
 1074YOPC   C3A14027  18.316   1.356   7.170  0.0772  0.3142  0.0626
 1074YOPC   C4A14028  18.523   1.307   7.576  0.0096  0.2500 -0.1247
 1074YOPC   C1B14029  18.259   1.252   6.239  0.0364  0.0270 -0.0851
 1074YOPC   C2B14030  18.502   0.903   6.442 -0.4527 -0.1285 -0.3109
 1074YOPC   D3B14031  18.523   0.856   6.885  0.1412  0.1757  0.2242
 1074YOPC   C4B14032  18.623   0.932   7.287  0.1477 -0.0750  0.1216
 1075YOPC   NC314033   1.367  13.475   5.624  0.0089  0.1221 -0.2206
 1075YOPC   PO414034   1.145  13.142   5.929  0.0531  0.0837 -0.0490
 1075YOPC   GL114035   0.979  12.991   6.281 -0.0624 -0.2491 -0.1265
 1075YOPC   GL214036   1.210  12.850   6.386 -0.0024 -0.1409 -0.2186
 1075YOPC   C1A14037   0.877  12.974   6.780  0.0254 -0.0912 -0.3599
 1075YOPC   D2A14038   0.489  13.010   7.005  0.2667 -0.0233  0.0736
 1075YOPC   C3A14039   0.255  13.411   7.230 -0.1589  0.1186  0.1812
 1075YOPC   C4A14040   0.011  13.791   7.529  0.1424 -0.0545  0.0452
 1075YOPC   C1B14041   1.376  12.857   6.831 -0.0187 -0.0937 -0.0011
 1075YOPC   C2B14042   1.178  12.908   7.232 -0.2214  0.0959  0.0863
 1075YOPC   D3B14043   0.882  13.145   7.223 -0.3296 -0.1991  0.0886
 1075YOPC   C4B14044   0.438  13.004   7.489  0.1766  0.0656  0.1381
 1076YOPC   NC314045   3.196  16.782   5.655  0.2155  0.1306  0.2666
 1076YOPC   PO414046   3.496  16.415   5.684  0.0612  0.0703  0.1048
 1076YOPC   GL114047   3.403  16.263   6.101 -0.2570  0.0593 -0.0413
 1076YOPC   GL214048   3.275  16.558   6.173 -0.0239  0.4299  0.0835
 1076YOPC   C1A14049   3.075  16.138   6.417  0.5059  0.0159 -0.2695
 1076YOPC   D2A14050   2.811  15.885   6.817  0.0579  0.2333 -0.2821
 1076YOPC   C3A14051   3.034  15.928   7.253  0.1717 -0.4335  0.0002
 1076YOPC   C4A14052   3.385  16.089   7.525  0.1309  0.1572  0.0478
 1076YOPC   C1B14053   3.329  16.555   6.709 -0.0997  0.0397 -0.3632
 1076YOPC   C2B14054   3.343  16.575   7.156  0.0510  0.0201  0.0808
 1076YOPC   D3B14055   2.933  16.439   7.386  0.1156  0.0764  0.1486
 1076YOPC   C4B14056   2.670  16.451   7.807 -0.0109  0.1133  0.2126
 1077YOPC   NC314057   7.997  16.529   6.173 -0.2341 -0.0397  0.1432
 1077YOPC   PO414058   7.797  16.210   5.886  0.0821  0.2064  0.0491
 1077YOPC   GL114059   8.070  15.914   6.223  0.2724  0.1460 -0.3948
 1077YOPC   GL214060   8.433  16.042   6.217  0.0701 -0.3300 -0.0244
 1077YOPC   C1A14061   8.280  15.791   6.578  0.1963  0.2623 -0.0209
 1077YOPC   D2A14062   8.423  15.610   6.975  0.1474  0.0401 -0.0469
 1077YOPC   C3A14063   8.167  15.731   7.368  0.2339  0.0856 -0.2116
 1077YOPC   C4A14064   7.996  15.752   7.683  0.2252 -0.3280 -0.0287
 1077YOPC   C1B14065   8.436  16.312   6.593 -0.0151  0.1166 -0.1146
 1077YOPC   C2B14066   8.080  16.539   6.678  0.0573 -0.1721  0.0844
 1077YOPC   D3B14067   7.855  16.486   7.000 -0.2819  0.0829  0.1916
 1077YOPC   C4B14068   7.517  16.343   7.105  0.1134 -0.0934  0.0642
 1078YOPC   NC314069  17.288   6.237   5.830  0.0979 -0.0249 -0.1882
 1078YOPC   PO414070  17.231   6.236   6.254  0.1415 -0.1950 -0.1105
 1078YOPC   GL114071  17.400   6.039   6.621 -0.0312 -0.0928 -0.0973
 1078YOPC   GL214072  17.590   5.677   6.582 -0.3457  0.1143  0.1302
 1078YOPC   C1A14073  17.307   5.663   6.950 -0.1452 -0.2236 -0.0574
 1078YOPC   D2A14074  17.383   5.495   7.342  0.2280  0.0853  0.2914
 1078YOPC   C3A14075  17.138   5.673   7.626  0.0379 -0.1139  0.2351
 1078YOPC   C4A14076  16.751   5.587   7.637  0.2930  0.0169  0.0766
 1078YOPC   C1B14077  17.668   5.383   6.882 -0.0248 -0.0201 -0.0643
 1078YOPC   C2B14078  17.953   5.326   7.147 -0.0605 -0.2088  0.0042
 1078YOPC   D3B14079  18.279   5.367   7.378  0.1005  0.2320 -0.0305
 1078YOPC   C4B14080  18.613   5.425   7.653  0.0017 -0.1084 -0.1835
 1079YOPC   NC314081   8.363   0.235   5.561 -0.0571  0.0376  0.0096
 1079YOPC   PO414082   8.101   0.168   5.908  0.0942  0.0675 -0.0592
 1079YOPC   GL114083   7.901  -0.024   6.349  0.3566  0.2890  0.1567
 1079YOPC   GL214084   7.759  -0.228   6.317 -0.0142  0.0612  0.1437
 1079YOPC   C1A14085   7.703  -0.098   6.798  0.1150 -0.1603 -0.3529
 1079YOPC   D2A14086   7.463  -0.193   7.124  0.2002 -0.0634 -0.3238
 1079YOPC   C3A14087   7.520   0.020   7.552  0.2300 -0.0103  0.1106
 1079YOPC   C4A14088   7.645   0.272   7.801  0.0890 -0.2834  0.0558
 1079YOPC   C1B14089   8.039  -0.420   6.647 -0.1777  0.2738 -0.1694
 1079YOPC   C2B14090   8.182  -0.345   6.974  0.0590 -0.0553 -0.2336
 1079YOPC   D3B14091   7.908  -0.271   7.329  0.1819 -0.1350 -0.1331
 1079YOPC   C4B14092   7.858  -0.273   7.781  0.1033  0.2360  0.2101
 1080YOPC   NC314093  11.317   9.360   6.007 -0.0291  0.1470  0.1424
 1080YOPC   PO414094  11.152   9.797   6.140 -0.1423 -0.0471  0.0837
 1080YOPC   GL114095  10.891   9.964   6.467 -0.0688  0.1628 -0.2059
 1080YOPC   GL214096  10.703  10.166   6.424  0.1175 -0.1450  0.1565
 1080YOPC   C1A14097  10.752   9.778   6.813  0.4995  0.0784  0.1118
 1080YOPC   D2A14098  10.730   9.757   7.288 -0.0537  0.2321 -0.0713
 1080YOPC   C3A14099  10.808   9.941   7.600 -0.2004  0.2644  0.0128
 1080YOPC   C4A14100  10.951  10.285   7.906  0.2805 -0.1922  0.0410
 1080YOPC   C1B14101  10.534  10.277   6.734  0.1445 -0.1736 -0.2379
 1080YOPC   C2B14102  10.383  10.386   7.120 -0.1519  0.0160  0.2466
 1080YOPC   D3B14103  10.506  10.362   7.536 -0.1044 -0.0473 -0.2160
 1080YOPC   C4B14104  10.512  10.498   8.003  0.2243 -0.0085  0.0923
 1081YOPC   NC314105   0.179  13.184   5.941  0.1863 -0.0104  0.1113
 1081YOPC   PO414106   0.100  12.774   5.886  0.3213 -0.0168 -0.1098
 1081YOPC   GL114107   0.321  12.813   6.250  0.0439 -0.0792  0.1223
 1081YOPC   GL214108   0.417  13.098   6.402 -0.0856 -0.2936 -0.0140
 1081YOPC   C1A14109   0.363  12.657   6.685 -0.2668 -0.0494  0.1546
 1081YOPC   D2A14110   0.701  12.514   6.951 -0.3011  0.2086 -0.2463
 1081YOPC   C3A14111   0.714  12.565   7.371 -0.1984  0.2096 -0.0312
 1081YOPC   C4A14112   0.462  12.531   7.703  0.1954 -0.2295  0.1257
 1081YOPC   C1B14113   0.484  13.424   6.703 -0.3198  0.2561 -0.0365
 1081YOPC   C2B14114   0.719  13.577   6.961  0.0791 -0.0131 -0.1243
 1081YOPC   D3B14115   0.702  13.611   7.359  0.1162 -0.1421  0.2384
 1081YOPC   C4B14116   0.642  13.314   7.762  0.2287  0.4263 -0.3230
 1082YOPC   NC314117  16.178   0.243   5.699 -0.2037 -0.0915  0.3085
 1082YOPC   PO414118  16.406   0.554   5.586 -0.0262  0.1659 -0.2094
 1082YOPC   GL114119  16.414   0.514   6.027  0.0304 -0.1053  0.0447
 1082YOPC   GL214120  16.169   0.547   6.172  0.1759  0.1607 -0.1783
 1082YOPC   C1A14121  16.554   0.790   6.400  0.1965 -0.0115  0.3113
 1082YOPC   D2A14122  16.489   0.775   6.735  0.1265 -0.0203  0.1357
 1082YOPC   C3A14123  16.552   0.948   7.072  0.1065 -0.0504  0.0718
 1082YOPC   C4A14124  16.643   1.135   7.302  0.1394  0.0594 -0.0455
 1082YOPC   C1B14125  16.148   0.368   6.549  0.3382  0.1326 -0.3521
 1082YOPC   C2B14126  16.031   0.406   7.007  0.1071  0.0547 -0.0828
 1082YOPC   D3B14127  15.888   0.526   7.369  0.0614 -0.3058 -0.2246
 1082YOPC   C4B14128  15.646   0.492   7.743 -0.2593  0.2515  0.1585
 1083YOPC   NC314129  16.195   1.148   5.557  0.2511  0.3353  0.2328
 1083YOPC   PO414130  15.981   0.763   5.749  0.0885  0.0508  0.0192
 1083YOPC   GL114131  15.720   1.029   6.019 -0.0751  0.2359 -0.4912
 1083YOPC   GL214132  15.412   0.864   5.998 -0.0588 -0.2757  0.0769
 1083YOPC   C1A14133  15.716   1.401   6.294  0.0857 -0.2033  0.0856
 1083YOPC   D2A14134  15.678   1.714   6.598 -0.0955  0.0241  0.1514
 1083YOPC   C3A14135  15.507   1.662   7.027  0.0478 -0.1969 -0.2071
 1083YOPC   C4A14136  15.442   1.584   7.450 -0.0045  0.0568 -0.1053
 1083YOPC   C1B14137  15.454   0.937   6.444  0.0497  0.0938  0.0126
 1083YOPC   C2B14138  15.429   1.263   6.731  0.0222  0.0245  0.0033
 1083YOPC   D3B14139  15.573   1.201   7.168  0.2800  0.0965 -0.1147
 1083YOPC   C4B14140  15.666   0.978   7.512 -0.0266 -0.4255  0.0939
 1084YOPC   NC314141   5.832   9.840   5.890  0.0366 -0.1959 -0.0155
 1084YOPC   PO414142   5.552  10.128   5.810  0.2372 -0.0301  0.1475
 1084YOPC   GL114143   5.466  10.420   6.115  0.0062  0.1928 -0.0778
 1084YOPC   GL214144   5.213  10.327   6.299  0.2438 -0.3633 -0.1102
 1084YOPC   C1A14145   5.600  10.671   6.527 -0.0638  0.1502  0.1110
 1084YOPC   D2A14146   5.756  10.539   6.973  0.1661 -0.2302  0.0959
 1084YOPC   C3A14147   5.700  10.692   7.386 -0.0806  0.1767  0.0908
 1084YOPC   C4A14148   5.705  10.831   7.849  0.0864 -0.2721 -0.0002
 1084YOPC   C1B14149   5.252  10.325   6.734  0.0355 -0.1436 -0.0257
 1084YOPC   C2B14150   5.235  10.466   7.158  0.2002 -0.1979  0.0510
 1084YOPC   D3B14151   5.391  10.287   7.424  0.0459 -0.3497  0.0394
 1084YOPC   C4B14152   5.457   9.950   7.723 -0.0557  0.2009  0.0864
 1085YOPC   NC314153   5.621   1.517   5.534 -0.1875 -0.0192 -0.1134
 1085YOPC   PO414154   5.322   1.744   5.746 -0.3545 -0.1650  0.0346
 1085YOPC   GL114155   5.327   1.801   6.183 -0.0156  0.0200  0.1310
 1085YOPC   GL214156   5.262   2.097   6.314 -0.0802  0.1477 -0.0961
 1085YOPC   C1A14157   5.173   1.571   6.469 -0.1005  0.0460 -0.2197
 1085YOPC   D2A14158   4.750   1.287   6.423 -0.0545 -0.0390  0.3568
 1085YOPC   C3A14159   4.381   1.327   6.708  0.0658 -0.0669 -0.0903
 1085YOPC   C4A14160   4.048   1.368   7.000  0.0280  0.0592  0.0374
 1085YOPC   C1B14161   5.178   2.017   6.734 -0.0883 -0.1310  0.0034
 1085YOPC   C2B14162   5.213   1.746   7.029  0.1157 -0.0611 -0.1177
 1085YOPC   D3B14163   5.298   1.717   7.465 -0.2106  0.0976 -0.0730
 1085YOPC   C4B14164   5.380   1.748   7.894  0.2044  0.1318 -0.0357
 1086YOPC   NC314165  13.687   6.549   5.897 -0.0611  0.0222  0.2286
 1086YOPC   PO414166  13.425   6.734   6.184 -0.0109 -0.2655 -0.2568
 1086YOPC   GL114167  13.239   7.084   6.402 -0.1177  0.4001  0.1975
 1086YOPC   GL214168  13.515   7.219   6.600  0.2614  0.1373  0.2169
 1086YOPC   C1A14169  13.041   7.061   6.797  0.0244  0.1154 -0.1528
 1086YOPC   D2A14170  13.037   7.168   7.236 -0.0991 -0.2269  0.1279
 1086YOPC   C3A14171  13.409   7.263   7.400 -0.0397  0.0205  0.2182
 1086YOPC   C4A14172  13.511   7.047   7.818 -0.1329  0.1006 -0.3721
 1086YOPC   C1B14173  13.655   7.117   6.895  0.0776 -0.2163 -0.0586
 1086YOPC   C2B14174  13.967   7.157   7.249  0.4769 -0.1611  0.2053
 1086YOPC   D3B14175  13.924   7.376   7.605  0.1214  0.4559 -0.0689
 1086YOPC   C4B14176  13.933   7.775   7.956  0.2227 -0.3056 -0.0306
 1087YOPC   NC314177   5.202   3.161   5.735  0.0177  0.4561 -0.0659
 1087YOPC   PO414178   5.574   3.434   5.573 -0.0807  0.1090  0.0165
 1087YOPC   GL114179   5.555   3.371   6.032 -0.4195 -0.2255  0.1132
 1087YOPC   GL214180   5.848   3.365   6.118  0.1856  0.2040 -0.3236
 1087YOPC   C1A14181   5.410   3.483   6.443  0.2017 -0.0681  0.2733
 1087YOPC   D2A14182   5.301   3.392   6.899  0.1285  0.3017 -0.2934
 1087YOPC   C3A14183   5.458   3.665   7.140 -0.2051 -0.2658 -0.0001
 1087YOPC   C4A14184   5.573   4.056   7.049 -0.0732 -0.1195  0.0370
 1087YOPC   C1B14185   5.791   3.173   6.551 -0.1824  0.1231  0.0351
 1087YOPC   C2B14186   5.730   3.213   7.025  0.1158  0.2524 -0.2296
 1087YOPC   D3B14187   5.851   3.123   7.330  0.2612  0.0690  0.0536
 1087YOPC   C4B14188   6.056   2.838   7.642 -0.1253 -0.0799  0.0382
 1088YOPC   NC314189  13.497  13.604   5.838  0.0072  0.1952 -0.2302
 1088YOPC   PO414190  13.070  13.625   5.880 -0.0982 -0.2679  0.0607
 1088YOPC   GL114191  12.867  13.618   6.238  0.1739  0.0963  0.3813
 1088YOPC   GL214192  12.982  13.889   6.359 -0.2154  0.3405 -0.3384
 1088YOPC   C1A14193  12.850  13.419   6.628 -0.2514  0.0507 -0.3156
 1088YOPC   D2A14194  12.768  13.304   7.080 -0.2674 -0.2213 -0.2802
 1088YOPC   C3A14195  12.610  13.666   7.300  0.0142 -0.0462 -0.1551
 1088YOPC   C4A14196  12.712  14.045   7.550  0.1577 -0.0338  0.0069
 1088YOPC   C1B14197  13.122  13.795   6.788 -0.1725 -0.0793 -0.0434
 1088YOPC   C2B14198  13.123  13.674   7.210  0.0998 -0.2665 -0.0271
 1088YOPC   D3B14199  13.042  13.599   7.617 -0.0072  0.0495  0.0236
 1088YOPC   C4B14200  12.718  13.664   7.870  0.0085  0.1085 -0.3036
 1089YOPC   NC314201  16.279   2.717   5.769 -0.1848  0.0062 -0.1396
 1089YOPC   PO414202  16.352   3.073   5.851 -0.4200  0.0660 -0.0024
 1089YOPC   GL114203  16.175   3.045   6.222 -0.1404  0.0400  0.0006
 1089YOPC   GL214204  16.039   3.324   6.317 -0.1244  0.0375 -0.2954
 1089YOPC   C1A14205  16.164   3.012   6.700 -0.1085 -0.0650 -0.0391
 1089YOPC   D2A14206  16.180   2.878   7.151  0.2778 -0.0173 -0.2355
 1089YOPC   C3A14207  15.824   2.874   7.521  0.0381 -0.0493 -0.0146
 1089YOPC   C4A14208  15.530   3.086   7.778  0.2478  0.0192 -0.2726
 1089YOPC   C1B14209  15.940   3.442   6.786 -0.0827  0.1048  0.0542
 1089YOPC   C2B14210  15.950   3.330   7.290  0.0648 -0.1253  0.0637
 1089YOPC   D3B14211  15.956   3.494   7.768  0.2522  0.1470  0.0009
 1089YOPC   C4B14212  15.965   3.267   8.240  0.0263  0.1422 -0.0815
 1090YOPC   NC314213   7.535  15.708   6.007  0.2924  0.2233  0.1485
 1090YOPC   PO414214   7.182  15.784   5.930  0.0099 -0.2854  0.0066
 1090YOPC   GL114215   7.320  15.789   6.437 -0.1287  0.0976 -0.0784
 1090YOPC   GL214216   7.708  15.759   6.526  0.1103  0.0103  0.1085
 1090YOPC   C1A14217   7.282  15.920   6.900  0.0875 -0.0661 -0.0539
 1090YOPC   D2A14218   7.238  15.840   7.394  0.1759 -0.1262  0.0472
 1090YOPC   C3A14219   7.556  15.979   7.585  0.0347  0.1378  0.2800
 1090YOPC   C4A14220   7.781  16.175   7.913 -0.0874 -0.0064 -0.2402
 1090YOPC   C1B14221   7.763  16.120   6.669 -0.2270 -0.1009 -0.0834
 1090YOPC   C2B14222   8.155  16.072   6.996 -0.1237  0.1239 -0.1045
 1090YOPC   D3B14223   8.171  16.232   7.415  0.0939 -0.2193 -0.4142
 1090YOPC   C4B14224   8.410  16.024   7.684 -0.1082  0.1796  0.3093
 1091YOPC   NC314225   1.969  16.233   5.452  0.1946  0.1365  0.1428
 1091YOPC   PO414226   1.712  16.319   5.844 -0.1046 -0.0093 -0.1207
 1091YOPC   GL114227   2.013  16.245   6.272  0.0374  0.0142 -0.3400
 1091YOPC   GL214228   2.165  16.536   6.300 -0.1642  0.0124 -0.2577
 1091YOPC   C1A14229   1.875  16.270   6.703  0.0408  0.3195 -0.0780
 1091YOPC   D2A14230   1.683  16.129   7.058  0.2598 -0.2283 -0.3014
 1091YOPC   C3A14231   1.802  15.773   7.073  0.2816 -0.1022  0.3500
 1091YOPC   C4A14232   1.981  15.370   7.270 -0.0597 -0.0075  0.1743
 1091YOPC   C1B14233   2.364  16.874   6.546 -0.1822  0.1551 -0.0727
 1091YOPC   C2B14234   2.593  16.991   6.844  0.1611  0.0390 -0.4519
 1091YOPC   D3B14235   2.385  17.182   7.233 -0.0731 -0.1026  0.1357
 1091YOPC   C4B14236   2.390  17.580   7.482  0.0326  0.0240 -0.0201
 1092YOPC   NC314237   7.251  12.026   5.816 -0.1606 -0.1695  0.1659
 1092YOPC   PO414238   7.155  12.422   6.194  0.0676  0.1146  0.1077
 1092YOPC   GL114239   7.164  12.470   6.581 -0.0879 -0.3346  0.1969
 1092YOPC   GL214240   7.398  12.705   6.609 -0.0895  0.1722  0.0122
 1092YOPC   C1A14241   7.049  12.521   6.922  0.2312 -0.1306  0.2154
 1092YOPC   D2A14242   6.966  12.290   7.339  0.0976  0.0740  0.1860
 1092YOPC   C3A14243   6.605  12.290   7.459  0.2450  0.0333 -0.4905
 1092YOPC   C4A14244   6.180  12.458   7.486  0.2037 -0.1208 -0.0137
 1092YOPC   C1B14245   7.289  12.917   6.959 -0.1022  0.1339 -0.1172
 1092YOPC   C2B14246   7.177  12.796   7.316  0.0130 -0.0438 -0.0422
 1092YOPC   D3B14247   7.090  13.157   7.573  0.0992  0.1610 -0.0993
 1092YOPC   C4B14248   6.973  13.445   7.849 -0.2934 -0.0084  0.3245
 1093YOPC   NC314249  11.251   4.103   5.367 -0.0163 -0.0368 -0.3774
 1093YOPC   PO414250  11.561   4.101   5.727  0.1467 -0.4610  0.0378
 1093YOPC   GL114251  11.608   4.413   5.961 -0.2261  0.1781 -0.0306
 1093YOPC   GL214252  11.632   4.747   5.862  0.0726 -0.0211 -0.0126
 1093YOPC   C1A14253  11.551   4.584   6.367  0.1715 -0.3746  0.0885
 1093YOPC   D2A14254  11.826   4.699   6.665  0.0578  0.0976  0.0967
 1093YOPC   C3A14255  11.863   4.720   7.113 -0.1108  0.0833 -0.0390
 1093YOPC   C4A14256  11.576   4.794   7.459  0.0273 -0.0057  0.0438
 1093YOPC   C1B14257  11.262   4.842   6.051 -0.1043  0.1006 -0.1423
 1093YOPC   C2B14258  11.069   4.927   6.387  0.1300  0.4437 -0.3521
 1093YOPC   D3B14259  11.273   4.961   6.711  0.0746  0.0642  0.1429
 1093YOPC   C4B14260  11.387   4.729   7.019 -0.0762 -0.0848  0.1191
 1094YOPC   NC314261   7.401   1.339   6.118 -0.0505  0.3332  0.2871
 1094YOPC   PO414262   6.985   1.538   6.101 -0.0352  0.1867  0.2171
 1094YOPC   GL114263   7.064   1.355   6.499  0.1994 -0.1841 -0.0176
 1094YOPC   GL214264   7.226   1.020   6.479 -0.0021  0.0642 -0.0350
 1094YOPC   C1A14265   6.777   1.086   6.682 -0.0698 -0.2421 -0.1211
 1094YOPC   D2A14266   6.713   1.111   7.101 -0.1309  0.0634 -0.0526
 1094YOPC   C3A14267   6.759   1.311   7.520  0.1393  0.2356  0.1031
 1094YOPC   C4A14268   6.742   1.435   7.985 -0.0741 -0.0251 -0.0114
 1094YOPC   C1B14269   7.245   1.150   6.918  0.1477  0.1832 -0.2988
 1094YOPC   C2B14270   7.231   1.171   7.308  0.1304 -0.1570 -0.0816
 1094YOPC   D3B14271   7.436   0.919   7.561  0.2380  0.2063  0.1725
 1094YOPC   C4B14272   7.421   0.803   7.963  0.1922 -0.1307 -0.1186
 1095YOPC   NC314273  11.407   0.668   5.862 -0.2246  0.2009  0.0970
 1095YOPC   PO414274  11.595   1.052   6.061  0.0058 -0.2103  0.0704
 1095YOPC   GL114275  11.490   0.922   6.446  0.0370  0.1250  0.2441
 1095YOPC   GL214276  11.335   0.699   6.339  0.1550 -0.0334  0.1868
 1095YOPC   C1A14277  11.432   0.895   6.831 -0.1061  0.0172  0.0660
 1095YOPC   D2A14278  11.495   0.892   7.253  0.2867  0.1180 -0.1568
 1095YOPC   C3A14279  11.332   1.049   7.612 -0.0734 -0.0093  0.1485
 1095YOPC   C4A14280  11.372   1.448   7.918 -0.2750 -0.1022 -0.0429
 1095YOPC   C1B14281  11.013   0.689   6.517  0.2520  0.1165 -0.3187
 1095YOPC   C2B14282  10.978   0.913   6.954  0.2465 -0.2376 -0.0655
 1095YOPC   D3B14283  10.898   0.770   7.343 -0.0953  0.2889 -0.2942
 1095YOPC   C4B14284  10.701   0.656   7.840 -0.0353  0.2519  0.0295
 1096YOPC   NC314285  15.756   6.147   5.737 -0.1962 -0.3578 -0.0133
 1096YOPC   PO414286  15.830   5.692   5.812  0.2665 -0.0454 -0.0720
 1096YOPC   GL114287  15.487   5.841   6.029  0.1687  0.4040 -0.2560
 1096YOPC   GL214288  15.083   5.816   6.127 -0.1035 -0.3833  0.0772
 1096YOPC   C1A14289  15.570   6.123   6.410  0.0514  0.1086 -0.0638
 1096YOPC   D2A14290  15.625   6.427   6.769  0.0311 -0.0262  0.3234
 1096YOPC   C3A14291  15.536   6.323   7.173 -0.0144 -0.1534  0.3285
 1096YOPC   C4A14292  15.563   6.392   7.567  0.3307  0.4331 -0.0251
 1096YOPC   C1B14293  14.915   5.816   6.587 -0.0074 -0.1095  0.0699
 1096YOPC   C2B14294  15.018   5.814   7.039 -0.1995 -0.0379  0.0816
 1096YOPC   D3B14295  15.009   5.800   7.366  0.0535 -0.0230  0.1912
 1096YOPC   C4B14296  15.054   6.102   7.580  0.0984 -0.0971  0.2097
 1097YOPC   NC314297  12.059   2.000   5.592 -0.0060 -0.0023 -0.0204
 1097YOPC   PO414298  11.719   1.808   5.676  0.0320  0.1000 -0.0321
 1097YOPC   GL114299  11.867   1.851   6.132  0.0464  0.1175 -0.0799
 1097YOPC   GL214300  12.200   1.800   6.045  0.1010 -0.0996  0.0213
 1097YOPC   C1A14301  12.101   2.057   6.470  0.1502  0.0463  0.0982
 1097YOPC   D2A14302  12.466   2.236   6.633 -0.2664 -0.2616 -0.1017
 1097YOPC   C3A14303  12.539   2.172   7.033  0.0630 -0.3066 -0.0013
 1097YOPC   C4A14304  12.392   2.441   7.347  0.3298  0.1319  0.0042
 1097YOPC   C1B14305  12.514   1.780   6.361  0.2012  0.0467  0.0423
 1097YOPC   C2B14306  12.549   1.778   6.807  0.2538  0.3904 -0.1816
 1097YOPC   D3B14307  12.266   1.854   7.212  0.3855 -0.0387 -0.3038
 1097YOPC   C4B14308  12.039   1.734   7.541  0.0076 -0.0377  0.0377
 1098YOPC   NC314309   0.025   5.826   5.981  0.1681 -0.1451  0.0217
 1098YOPC   PO414310  -0.238   5.571   6.085 -0.0890  0.0957 -0.0327
 1098YOPC   GL114311   0.017   5.535   6.454 -0.1574  0.2199 -0.0855
 1098YOPC   GL214312   0.020   5.251   6.637  0.0740  0.4602  0.3825
 1098YOPC   C1A14313   0.227   5.683   6.881  0.2088 -0.2115  0.0308
 1098YOPC   D2A14314   0.436   5.847   7.197 -0.1481  0.1119 -0.1593
 1098YOPC   C3A14315   0.464   5.895   7.598 -0.0113  0.0648 -0.2518
 1098YOPC   C4A14316   0.112   5.868   7.879  0.1159 -0.3329  0.1006
 1098YOPC   C1B14317   0.167   4.997   7.002  0.2490  0.1599 -0.1659
 1098YOPC   C2B14318   0.175   4.796   7.360 -0.1861 -0.0883  0.2640
 1098YOPC   D3B14319   0.141   4.946   7.780  0.0889 -0.0826 -0.0345
 1098YOPC   C4B14320   0.208   4.931   8.182  0.2026  0.0733  0.0102
 1099YOPC   NC314321   0.326  16.992   6.176 -0.0628  0.0542 -0.0963
 1099YOPC   PO414322   0.548  17.251   5.854 -0.0262  0.0555  0.1216
 1099YOPC   GL114323   0.625  17.439   6.236  0.3012  0.1290  0.0636
 1099YOPC   GL214324   0.285  17.538   6.293 -0.0245 -0.3880  0.0030
 1099YOPC   C1A14325   0.793  17.697   6.597  0.0436 -0.0138 -0.1867
 1099YOPC   D2A14326   1.118  17.676   6.869 -0.0166  0.0506 -0.0235
 1099YOPC   C3A14327   1.134  17.273   7.105  0.3060 -0.3466  0.5021
 1099YOPC   C4A14328   1.412  17.138   7.397 -0.2371  0.3425  0.2136
 1099YOPC   C1B14329   0.233  17.452   6.678  0.0077 -0.0173  0.1717
 1099YOPC   C2B14330   0.439  17.724   6.952  0.1258 -0.0618 -0.0314
 1099YOPC   D3B14331   0.560  17.629   7.307  0.1540 -0.3877 -0.1590
 1099YOPC   C4B14332   0.910  17.502   7.545 -0.1129 -0.1028 -0.0572
 1100YOPC   NC314333   1.333  11.981   5.459  0.0014 -0.0880 -0.0549
 1100YOPC   PO414334   1.718  11.805   5.749  0.1830 -0.0028  0.0972
 1100YOPC   GL114335   1.685  11.866   6.193  0.0209  0.0602 -0.1143
 1100YOPC   GL214336   1.553  11.678   6.323  0.2672  0.1662 -0.2638
 1100YOPC   C1A14337   1.764  12.026   6.683 -0.3782  0.1259  0.0610
 1100YOPC   D2A14338   1.687  12.213   7.064  0.0043  0.2677 -0.0918
 1100YOPC   C3A14339   1.529  12.502   7.191 -0.3067  0.1987  0.1420
 1100YOPC   C4A14340   1.280  12.580   7.568  0.2545 -0.1717  0.4417
 1100YOPC   C1B14341   1.361  11.749   6.679  0.0411  0.0709 -0.2255
 1100YOPC   C2B14342   1.388  11.816   7.126 -0.3246  0.4480 -0.1214
 1100YOPC   D3B14343   1.514  12.064   7.481 -0.1111  0.1397  0.0414
 1100YOPC   C4B14344   1.425  12.140   7.894  0.0101 -0.0078  0.0909
 1101YOPC   NC314345   8.250  15.325   5.573  0.2285 -0.1696  0.0695
 1101YOPC   PO414346   8.071  14.986   5.565 -0.0477  0.2722 -0.0484
 1101YOPC   GL114347   8.225  14.921   5.981 -0.1106  0.1167 -0.0547
 1101YOPC   GL214348   8.270  14.611   6.125 -0.2037  0.2844  0.0392
 1101YOPC   C1A14349   8.018  14.946   6.378  0.0346  0.0448 -0.0044
 1101YOPC   D2A14350   7.949  14.887   6.797  0.1674 -0.1455  0.1088
 1101YOPC   C3A14351   8.211  14.679   7.170 -0.0653  0.0558  0.2836
 1101YOPC   C4A14352   8.388  14.812   7.583 -0.0990  0.1291 -0.2214
 1101YOPC   C1B14353   8.351  14.686   6.612 -0.0279  0.0338  0.0689
 1101YOPC   C2B14354   8.642  14.569   6.950 -0.1406  0.0801 -0.1845
 1101YOPC   D3B14355   8.582  14.338   7.297  0.0767  0.1243  0.2235
 1101YOPC   C4B14356   8.726  14.249   7.629  0.0813 -0.0263 -0.0269
 1102YOPC   NC314357   9.037   0.041   5.856  0.0366 -0.2663 -0.0928
 1102YOPC   PO414358   8.684  -0.115   5.674  0.0556 -0.1009 -0.0950
 1102YOPC   GL114359   8.334  -0.248   5.931 -0.2225  0.1235  0.0312
 1102YOPC   GL214360   8.451  -0.545   6.037 -0.0860  0.0107  0.2237
 1102YOPC   C1A14361   8.368  -0.094   6.450  0.1417  0.1850 -0.1478
 1102YOPC   D2A14362   8.572  -0.063   6.876  0.0026 -0.2023 -0.3872
 1102YOPC   C3A14363   8.504  -0.062   7.309 -0.2359  0.2698  0.2239
 1102YOPC   C4A14364   8.614  -0.201   7.763 -0.3069  0.0328 -0.1995
 1102YOPC   C1B14365   8.429  -0.655   6.445  0.2923 -0.0090 -0.1595
 1102YOPC   C2B14366   8.494  -0.793   6.876  0.1766  0.1652 -0.0617
 1102YOPC   D3B14367   8.750  -0.490   7.196 -0.1766  0.2327  0.0131
 1102YOPC   C4B14368   9.037  -0.244   7.316 -0.0537  0.0686  0.0917
 1103YOPC   NC314369  15.685   7.623   6.038 -0.0425  0.1535 -0.1785
 1103YOPC   PO414370  15.797   8.121   5.939 -0.1971  0.0426  0.1961
 1103YOPC   GL114371  15.951   8.079   6.385 -0.2718 -0.1392 -0.0383
 1103YOPC   GL214372  16.199   7.900   6.474 -0.1212  0.0841  0.3200
 1103YOPC   C1A14373  15.782   8.041   6.730  0.0202  0.2176 -0.1934
 1103YOPC   D2A14374  15.463   8.207   6.938  0.3363 -0.0485  0.2157
 1103YOPC   C3A14375  15.396   8.328   7.412  0.1648 -0.0010  0.1755
 1103YOPC   C4A14376  15.180   8.489   7.832  0.2523 -0.2204  0.0397
 1103YOPC   C1B14377  16.309   8.326   6.623  0.0339  0.0975 -0.1245
 1103YOPC   C2B14378  16.679   8.447   6.808  0.1796 -0.1145  0.0365
 1103YOPC   D3B14379  16.806   8.563   7.343  0.3709 -0.0298 -0.2444
 1103YOPC   C4B14380  16.635   8.698   7.776 -0.3053  0.1488  0.0244
 1104YOPC   NC314381  12.379  15.881   5.624 -0.4174 -0.1333  0.0197
 1104YOPC   PO414382  12.464  15.580   5.770  0.1118  0.0481 -0.1596
 1104YOPC   GL114383  12.523  15.450   6.288  0.0080 -0.1523  0.0534
 1104YOPC   GL214384  12.338  15.168   6.470  0.0118  0.0475 -0.1149
 1104YOPC   C1A14385  12.563  15.505   6.700 -0.1070 -0.2047 -0.1844
 1104YOPC   D2A14386  12.591  15.479   7.119 -0.1320  0.2619  0.2008
 1104YOPC   C3A14387  12.500  15.642   7.454  0.0425  0.0133  0.2752
 1104YOPC   C4A14388  12.455  15.555   7.871 -0.0452  0.3468 -0.2011
 1104YOPC   C1B14389  12.177  15.297   6.889 -0.0708  0.1195  0.0927
 1104YOPC   C2B14390  12.115  15.350   7.285  0.0554  0.2706  0.1295
 1104YOPC   D3B14391  12.452  15.162   7.559  0.0053 -0.0329  0.0336
 1104YOPC   C4B14392  12.746  14.945   7.505 -0.1861  0.1077  0.0553
 1105YOPC   NC314393   0.982   1.177   5.628  0.1293  0.1172  0.0587
 1105YOPC   PO414394   0.731   1.506   5.408 -0.3545 -0.0451  0.3339
 1105YOPC   GL114395   0.867   1.658   5.828 -0.3704  0.0909  0.2036
 1105YOPC   GL214396   1.078   1.624   5.956 -0.0385 -0.1229  0.2191
 1105YOPC   C1A14397   0.943   1.776   6.382 -0.2202 -0.2720 -0.0914
 1105YOPC   D2A14398   0.647   2.024   6.623  0.1810 -0.0674  0.0195
 1105YOPC   C3A14399   0.772   2.203   6.920 -0.1411 -0.1923  0.1185
 1105YOPC   C4A14400   0.904   2.266   7.380 -0.1421 -0.1588  0.1564
 1105YOPC   C1B14401   1.485   1.670   5.869 -0.0950 -0.0642  0.0715
 1105YOPC   C2B14402   1.744   1.945   6.033 -0.0403 -0.1040 -0.1306
 1105YOPC   D3B14403   2.045   1.952   6.526  0.2689 -0.1453  0.0908
 1105YOPC   C4B14404   2.144   1.740   6.959 -0.1412  0.1302 -0.0808
 1106YOPC   NC314405   4.412   7.843   5.588  0.0300  0.1543 -0.2060
 1106YOPC   PO414406   4.315   7.457   5.720  0.2045 -0.1221 -0.0185
 1106YOPC   GL114407   4.471   7.405   6.093 -0.0433  0.0567  0.0898
 1106YOPC   GL214408   4.878   7.308   6.072  0.2057  0.2899  0.1993
 1106YOPC   C1A14409   4.306   7.526   6.595 -0.0045  0.3175 -0.0282
 1106YOPC   D2A14410   4.185   7.404   6.997  0.2455  0.2691 -0.0583
 1106YOPC   C3A14411   4.176   7.661   7.190 -0.2997 -0.0310 -0.0105
 1106YOPC   C4A14412   4.042   7.563   7.520  0.0103  0.0717 -0.1294
 1106YOPC   C1B14413   5.200   7.295   6.393  0.0215 -0.2491 -0.0388
 1106YOPC   C2B14414   5.250   7.041   6.695  0.2407 -0.2317 -0.0390
 1106YOPC   D3B14415   5.174   7.222   7.177  0.2565 -0.0806  0.1979
 1106YOPC   C4B14416   5.470   7.517   7.381 -0.0990  0.1541 -0.1698
 1107YOPC   NC314417   6.063   6.785   5.570 -0.0073 -0.2939  0.1259
 1107YOPC   PO414418   5.812   7.147   5.611  0.2586 -0.1129  0.1490
 1107YOPC   GL114419   5.923   7.351   5.907 -0.0140  0.2165  0.3051
 1107YOPC   GL214420   6.272   7.279   5.933 -0.1198  0.1623  0.3108
 1107YOPC   C1A14421   5.717   7.310   6.260  0.0915 -0.2781  0.0242
 1107YOPC   D2A14422   5.728   7.019   6.551  0.1691 -0.0795  0.2302
 1107YOPC   C3A14423   5.388   6.751   6.316 -0.1394  0.0411 -0.1854
 1107YOPC   C4A14424   4.989   6.802   6.201 -0.0038  0.0162 -0.1010
 1107YOPC   C1B14425   6.140   6.971   6.203 -0.1182  0.4294  0.0831
 1107YOPC   C2B14426   6.159   6.672   6.567  0.1234  0.2281 -0.0735
 1107YOPC   D3B14427   6.102   6.827   6.921  0.6404 -0.1360 -0.0673
 1107YOPC   C4B14428   6.293   6.686   7.356  0.1754 -0.3397 -0.1406
 1108YOPC   NC314429  14.564  12.748   5.816  0.0620 -0.1685 -0.2382
 1108YOPC   PO414430  14.781  12.624   6.071  0.1520 -0.1578 -0.2284
 1108YOPC   GL114431  14.760  12.342   6.404  0.0195 -0.0915  0.1552
 1108YOPC   GL214432  14.434  12.214   6.552  0.0889 -0.0756  0.0744
 1108YOPC   C1A14433  14.887  12.259   6.894 -0.2521  0.0534  0.0367
 1108YOPC   D2A14434  14.981  12.142   7.387  0.0770 -0.0849 -0.0196
 1108YOPC   C3A14435  15.147  11.911   7.731 -0.0696  0.0906 -0.1145
 1108YOPC   C4A14436  15.364  12.072   8.088 -0.0569  0.1058 -0.1541
 1108YOPC   C1B14437  14.317  12.171   6.990 -0.2140  0.0587 -0.1087
 1108YOPC   C2B14438  14.443  12.242   7.379  0.0924 -0.0731 -0.2703
 1108YOPC   D3B14439  14.574  12.100   7.699 -0.3745 -0.0402  0.1001
 1108YOPC   C4B14440  14.805  12.078   8.019 -0.0509 -0.1600  0.1140
 1109YOPC   NC314441  14.105  15.071   5.565  0.4559  0.3708  0.1517
 1109YOPC   PO414442  13.999  14.595   5.755 -0.0627  0.1813 -0.0046
 1109YOPC   GL114443  13.638  14.562   6.062  0.2333  0.1702 -0.2265
 1109YOPC   GL214444  13.803  14.295   6.144  0.1520 -0.0853  0.0069
 1109YOPC   C1A14445  13.632  14.768   6.583 -0.2354  0.0277 -0.0990
 1109YOPC   D2A14446  13.552  15.099   6.937  0.2776 -0.0423  0.1306
 1109YOPC   C3A14447  13.707  15.025   7.331  0.2332  0.2047  0.2353
 1109YOPC   C4A14448  13.622  15.266   7.721  0.3229 -0.0695 -0.1014
 1109YOPC   C1B14449  13.988  14.352   6.615 -0.2351  0.0790 -0.0812
 1109YOPC   C2B14450  14.225  14.305   7.034  0.2519  0.1693 -0.3257
 1109YOPC   D3B14451  14.120  14.538   7.402 -0.2958  0.1362  0.0118
 1109YOPC   C4B14452  13.949  14.646   7.820  0.4295 -0.0084  0.0049
 1110YOPC   NC314453   1.138   4.764   6.031 -0.2209 -0.2358  0.1867
 1110YOPC   PO414454   1.515   4.565   6.235 -0.1377  0.0172  0.1039
 1110YOPC   GL114455   1.831   4.780   6.405 -0.1930  0.0223  0.4629
 1110YOPC   GL214456   2.127   4.722   6.446 -0.1323  0.0256  0.0953
 1110YOPC   C1A14457   1.691   4.985   6.792 -0.1109  0.2898  0.0606
 1110YOPC   D2A14458   1.751   4.855   7.227  0.0876  0.1968 -0.0009
 1110YOPC   C3A14459   1.647   4.881   7.611  0.3769 -0.0094  0.2997
 1110YOPC   C4A14460   1.539   5.190   7.953  0.3086 -0.0425  0.1992
 1110YOPC   C1B14461   1.966   4.597   6.878 -0.0882  0.1133 -0.0350
 1110YOPC   C2B14462   2.043   4.465   7.329 -0.1132 -0.0389 -0.2908
 1110YOPC   D3B14463   2.001   4.506   7.754 -0.2951  0.1810  0.0614
 1110YOPC   C4B14464   2.204   4.573   8.151  0.0800 -0.2028 -0.0832
 1111YOPC   NC314465  13.121   2.028   5.990  0.1949 -0.1063 -0.1057
 1111YOPC   PO414466  12.866   1.618   5.797 -0.3189 -0.0517 -0.1047
 1111YOPC   GL114467  13.045   1.531   6.215  0.1900 -0.2180 -0.3191
 1111YOPC   GL214468  13.458   1.365   6.191 -0.1637  0.0356  0.1097
 1111YOPC   C1A14469  13.015   1.619   6.635 -0.1867 -0.0926  0.0512
 1111YOPC   D2A14470  13.123   1.501   6.955  0.0756 -0.0837 -0.2262
 1111YOPC   C3A14471  12.887   1.603   7.286 -0.1911 -0.0573  0.2955
 1111YOPC   C4A14472  12.651   1.928   7.475 -0.0969  0.2747  0.1823
 1111YOPC   C1B14473  13.439   1.205   6.632  0.3123 -0.0449  0.0848
 1111YOPC   C2B14474  13.497   0.931   6.864  0.0717 -0.0329  0.1413
 1111YOPC   D3B14475  13.660   0.964   7.201 -0.1349 -0.3473  0.0145
 1111YOPC   C4B14476  13.809   0.704   7.497 -0.1586 -0.2139  0.0270
 1112YOPC   NC314477   6.845  18.064   5.897  0.2391  0.3919 -0.2015
 1112YOPC   PO414478   6.572  18.408   6.135 -0.1231 -0.0319  0.2158
 1112YOPC   GL114479   6.842  18.181   6.371 -0.0967  0.0631 -0.1447
 1112YOPC   GL214480   6.957  17.887   6.346  0.1471 -0.0473  0.1849
 1112YOPC   C1A14481   7.000  18.139   6.852 -0.1366  0.1884  0.1586
 1112YOPC   D2A14482   7.003  18.174   7.222 -0.0418  0.2449  0.0158
 1112YOPC   C3A14483   7.084  17.917   7.542 -0.1329  0.2246  0.2223
 1112YOPC   C4A14484   6.965  17.718   7.938 -0.0479  0.0034 -0.0578
 1112YOPC   C1B14485   7.245  17.766   6.666  0.0399  0.1978 -0.2621
 1112YOPC   C2B14486   7.334  17.431   7.015  0.3397 -0.0811  0.2522
 1112YOPC   D3B14487   7.522  17.505   7.444 -0.0519  0.1729 -0.1354
 1112YOPC   C4B14488   7.421  17.599   7.782 -0.3595 -0.1455 -0.0234
 1113YOPC   NC314489  10.114  16.216   5.822 -0.0942 -0.0473 -0.1313
 1113YOPC   PO414490  10.466  16.438   5.812 -0.4720 -0.1537 -0.1473
 1113YOPC   GL114491  10.742  16.508   6.172 -0.0097  0.1065  0.1986
 1113YOPC   GL214492  10.960  16.681   6.360 -0.1307 -0.2562 -0.0438
 1113YOPC   C1A14493  10.472  16.655   6.569  0.3896 -0.0399  0.0170
 1113YOPC   D2A14494  10.249  16.454   6.843  0.4204 -0.1242  0.0044
 1113YOPC   C3A14495  10.111  16.568   7.108  0.1353 -0.0260  0.0297
 1113YOPC   C4A14496  10.181  16.926   7.468  0.0356 -0.3388 -0.3498
 1113YOPC   C1B14497  10.913  16.647   6.751  0.0138  0.1638 -0.1866
 1113YOPC   C2B14498  10.606  16.760   7.070 -0.0165 -0.0263 -0.0660
 1113YOPC   D3B14499  10.553  17.126   7.219 -0.1776 -0.2323 -0.3085
 1113YOPC   C4B14500  10.402  17.360   7.581 -0.0566 -0.0845 -0.3766
 1114YOPC   NC314501   4.830   1.954   5.087  0.0646 -0.0894  0.0837
 1114YOPC   PO414502   4.815   1.915   5.571 -0.0336 -0.0573  0.3944
 1114YOPC   GL114503   4.885   2.120   5.978 -0.2429 -0.2087  0.1624
 1114YOPC   GL214504   4.914   2.460   6.005 -0.1964  0.0127  0.1521
 1114YOPC   C1A14505   4.815   1.922   6.318 -0.1304  0.1029  0.0481
 1114YOPC   D2A14506   4.700   1.733   6.669 -0.0236  0.1564 -0.1338
 1114YOPC   C3A14507   4.980   1.331   6.928  0.0844 -0.0912  0.0511
 1114YOPC   C4A14508   5.226   1.233   7.367 -0.1495  0.0398  0.1444
 1114YOPC   C1B14509   4.752   2.399   6.391  0.1247  0.0104  0.0735
 1114YOPC   C2B14510   4.573   2.212   6.869 -0.0763  0.0213  0.1744
 1114YOPC   D3B14511   4.848   2.006   7.247 -0.1958  0.0577  0.2387
 1114YOPC   C4B14512   4.834   1.686   7.479  0.0784 -0.3733  0.0654
 1115YOPC   NC314513   9.683   2.161   6.064 -0.1854 -0.0118  0.2310
 1115YOPC   PO414514   9.896   1.702   6.002  0.0888 -0.1669 -0.0828
 1115YOPC   GL114515  10.186   1.560   6.307  0.2779  0.0782  0.3232
 1115YOPC   GL214516  10.260   1.230   6.336 -0.0147 -0.2667 -0.1158
 1115YOPC   C1A14517  10.327   1.551   6.773 -0.1205 -0.1809 -0.0238
 1115YOPC   D2A14518  10.213   1.650   7.207 -0.2124  0.0261 -0.0596
 1115YOPC   C3A14519  10.297   2.001   7.497  0.1369  0.1580  0.0788
 1115YOPC   C4A14520  10.258   2.409   7.773 -0.0306  0.0223 -0.1723
 1115YOPC   C1B14521  10.340   1.038   6.849 -0.0776  0.0188 -0.1802
 1115YOPC   C2B14522  10.470   0.718   7.088  0.1930  0.0675  0.1077
 1115YOPC   D3B14523  10.388   0.785   7.477 -0.1613 -0.0442  0.1005
 1115YOPC   C4B14524  10.547   1.115   7.728  0.0915 -0.1401  0.0406
 1116YOPC   NC314525  14.202   7.197   5.661  0.2823  0.0049  0.0182
 1116YOPC   PO414526  14.002   7.569   5.786  0.1519 -0.0042  0.1138
 1116YOPC   GL114527  13.782   7.498   6.171 -0.1530  0.1892 -0.1641
 1116YOPC   GL214528  13.446   7.630   6.322 -0.4284  0.2055 -0.0486
 1116YOPC   C1A14529  13.949   7.429   6.631 -0.2609 -0.0291 -0.0111
 1116YOPC   D2A14530  14.242   7.596   6.915  0.1733 -0.1012  0.2090
 1116YOPC   C3A14531  14.276   7.636   7.324 -0.2490 -0.0912 -0.0608
 1116YOPC   C4A14532  14.352   7.604   7.799  0.0923  0.0479  0.3136
 1116YOPC   C1B14533  13.563   7.724   6.763  0.3832 -0.3292  0.2573
 1116YOPC   C2B14534  13.740   7.572   7.090  0.0722 -0.1351  0.1535
 1116YOPC   D3B14535  13.659   7.753   7.474 -0.0826  0.1805 -0.2187
 1116YOPC   C4B14536  13.494   7.559   7.764  0.1610 -0.1270  0.0700
 1117YOPC   NC314537  11.786  15.027   5.717  0.3476  0.1113 -0.0651
 1117YOPC   PO414538  11.833  14.796   6.012 -0.0100 -0.2073  0.0590
 1117YOPC   GL114539  11.816  14.917   6.471  0.0798  0.0410 -0.0257
 1117YOPC   GL214540  11.564  15.061   6.618 -0.2989 -0.1106 -0.0487
 1117YOPC   C1A14541  11.965  14.838   6.932 -0.0850  0.0161 -0.0330
 1117YOPC   D2A14542  12.218  14.890   7.206 -0.4104  0.2023 -0.1068
 1117YOPC   C3A14543  12.192  14.758   7.638 -0.1032 -0.2774 -0.0874
 1117YOPC   C4A14544  12.173  14.778   8.087 -0.1066  0.0484 -0.3756
 1117YOPC   C1B14545  11.662  15.325   6.829 -0.0161 -0.0381  0.0745
 1117YOPC   C2B14546  11.570  15.410   7.232  0.0174 -0.2068  0.2072
 1117YOPC   D3B14547  11.355  15.143   7.546  0.2572 -0.0765  0.1111
 1117YOPC   C4B14548  11.173  14.787   7.635  0.1987 -0.1383  0.1933
 1118YOPC   NC314549   9.333  16.354   6.095 -0.0511  0.1654  0.2021
 1118YOPC   PO414550   9.311  16.796   6.076  0.0610 -0.1579 -0.0469
 1118YOPC   GL114551   9.266  16.902   6.585 -0.1458 -0.0503  0.1212
 1118YOPC   GL214552   9.357  16.613   6.658 -0.0156 -0.2035 -0.0075
 1118YOPC   C1A14553   9.353  16.952   7.009  0.0627  0.2216 -0.0659
 1118YOPC   D2A14554   9.649  16.862   7.292  0.0612  0.0606  0.0300
 1118YOPC   C3A14555   9.406  17.018   7.682 -0.0881 -0.0968 -0.1373
 1118YOPC   C4A14556   9.157  17.003   8.049  0.1159 -0.0080  0.4308
 1118YOPC   C1B14557   9.386  16.411   6.987  0.2754 -0.2413  0.0634
 1118YOPC   C2B14558   8.912  16.375   7.223  0.1671 -0.1017 -0.0811
 1118YOPC   D3B14559   8.918  16.094   7.621  0.0126 -0.0543 -0.0940
 1118YOPC   C4B14560   8.814  15.768   7.913 -0.1508 -0.2303 -0.1865
 1119YOPC   NC314561   3.215   5.760   5.900  0.1042 -0.0219  0.2823
 1119YOPC   PO414562   3.172   6.260   5.797 -0.2203 -0.2892  0.2941
 1119YOPC   GL114563   3.422   6.300   6.105 -0.2043 -0.1232  0.1995
 1119YOPC   GL214564   3.748   6.226   5.909  0.2153 -0.0690 -0.1845
 1119YOPC   C1A14565   3.682   6.115   6.512  0.1641 -0.3426 -0.1698
 1119YOPC   D2A14566   4.053   6.068   6.690  0.1550 -0.0242 -0.1923
 1119YOPC   C3A14567   4.025   6.146   7.151  0.0796  0.3686  0.3198
 1119YOPC   C4A14568   3.859   6.123   7.545  0.1639  0.1045  0.0584
 1119YOPC   C1B14569   4.088   6.218   6.190 -0.2563 -0.1572  0.0014
 1119YOPC   C2B14570   4.281   6.571   6.243 -0.3155 -0.0589 -0.0337
 1119YOPC   D3B14571   4.541   6.741   6.399 -0.2511  0.0977  0.0682
 1119YOPC   C4B14572   4.702   7.115   6.545  0.0268 -0.0716  0.1658
 1120YOPC   NC314573  12.121  15.768   6.063  0.0954 -0.2265  0.0107
 1120YOPC   PO414574  12.184  16.237   5.938  0.0496  0.0657 -0.0263
 1120YOPC   GL114575  12.254  16.281   6.399 -0.0112  0.1535  0.2684
 1120YOPC   GL214576  12.424  15.964   6.457  0.0641 -0.0836 -0.0845
 1120YOPC   C1A14577  12.296  16.416   6.804 -0.0570  0.0488  0.0061
 1120YOPC   D2A14578  12.247  16.551   7.134 -0.0560  0.1682 -0.0653
 1120YOPC   C3A14579  12.412  16.588   7.516  0.1386 -0.1652  0.0258
 1120YOPC   C4A14580  12.264  16.593   7.910  0.2733 -0.0143 -0.1587
 1120YOPC   C1B14581  12.574  15.976   6.884  0.1299 -0.2306 -0.0098
 1120YOPC   C2B14582  12.598  16.169   7.371  0.0438  0.1766 -0.1644
 1120YOPC   D3B14583  13.002  16.028   7.641  0.1294 -0.0349  0.1825
 1120YOPC   C4B14584  13.323  15.666   7.737 -0.0882  0.0355  0.0119
 1121YOPC   NC314585   0.995   6.192   6.137  0.2023 -0.1028  0.2100
 1121YOPC   PO414586   0.592   6.014   6.022  0.1743  0.1808  0.0737
 1121YOPC   GL114587   0.504   5.985   6.443 -0.1088 -0.0648 -0.0632
 1121YOPC   GL214588   0.770   5.822   6.622  0.1403 -0.0581  0.3000
 1121YOPC   C1A14589   0.314   6.150   6.795  0.1311 -0.0862  0.3712
 1121YOPC   D2A14590   0.107   6.320   7.198  0.2014  0.3933  0.2205
 1121YOPC   C3A14591  -0.206   6.332   7.486 -0.0249 -0.2217 -0.0161
 1121YOPC   C4A14592  -0.559   6.497   7.863  0.2088  0.0353  0.0152
 1121YOPC   C1B14593   0.820   5.662   6.938  0.2702 -0.3310 -0.0588
 1121YOPC   C2B14594   0.997   5.642   7.292  0.0944 -0.2647 -0.1225
 1121YOPC   D3B14595   0.944   5.748   7.768 -0.3925 -0.2571 -0.0273
 1121YOPC   C4B14596   0.619   5.820   8.081  0.2434  0.1225  0.1018
 1122YOPC   NC314597   5.069  10.076   5.914 -0.2140 -0.0464  0.1800
 1122YOPC   PO414598   4.487   9.988   5.795 -0.0173  0.0050 -0.2474
 1122YOPC   GL114599   4.496   9.948   6.229 -0.0615 -0.0752 -0.2119
 1122YOPC   GL214600   4.748   9.953   6.277  0.0431  0.1320  0.0009
 1122YOPC   C1A14601   4.326  10.079   6.680  0.0376  0.0224  0.0371
 1122YOPC   D2A14602   4.239  10.126   7.047 -0.1119  0.1447  0.0138
 1122YOPC   C3A14603   4.483  10.139   7.450  0.2619  0.0344  0.2384
 1122YOPC   C4A14604   4.529  10.193   7.828  0.1828  0.3263  0.0673
 1122YOPC   C1B14605   4.804  10.196   6.645  0.1609 -0.0693 -0.4445
 1122YOPC   C2B14606   4.703  10.358   7.012 -0.1555  0.0927  0.0340
 1122YOPC   D3B14607   4.810  10.541   7.366 -0.1741  0.2233 -0.0562
 1122YOPC   C4B14608   4.855  10.565   7.820 -0.0823 -0.2055 -0.3996
 1123YOPC   NC314609  17.601   7.574   6.216 -0.3069  0.0522  0.0142
 1123YOPC   PO414610  17.282   7.250   6.143  0.5035 -0.2009 -0.2072
 1123YOPC   GL114611  17.463   7.086   6.485  0.1114  0.1086 -0.4357
 1123YOPC   GL214612  17.798   7.137   6.453 -0.3186  0.0418 -0.0540
 1123YOPC   C1A14613  17.334   6.957   6.898 -0.1484  0.0625 -0.2344
 1123YOPC   D2A14614  17.073   7.001   7.138 -0.1168 -0.0667 -0.3821
 1123YOPC   C3A14615  17.168   7.169   7.493  0.1399 -0.1382 -0.2220
 1123YOPC   C4A14616  17.172   7.415   7.926 -0.1398 -0.3594 -0.4746
 1123YOPC   C1B14617  17.763   7.128   6.901 -0.4451 -0.0106 -0.1226
 1123YOPC   C2B14618  17.591   7.257   7.232  0.3610 -0.0394  0.3148
 1123YOPC   D3B14619  17.647   7.278   7.599  0.0576 -0.0664 -0.4497
 1123YOPC   C4B14620  17.642   7.358   8.030  0.0291  0.1866 -0.3053
 1124YOPC   NC314621  11.798   5.694   5.818  0.4430  0.0359 -0.0855
 1124YOPC   PO414622  12.308   5.601   5.749  0.0535 -0.0510  0.2014
 1124YOPC   GL114623  12.252   5.499   6.149  0.2066  0.2128  0.1203
 1124YOPC   GL214624  12.034   5.785   6.232  0.0098  0.2311 -0.0912
 1124YOPC   C1A14625  12.166   5.311   6.459  0.1833  0.0587  0.0448
 1124YOPC   D2A14626  12.211   5.081   6.718  0.0851  0.1451  0.0285
 1124YOPC   C3A14627  12.177   5.145   7.116 -0.2189 -0.3077  0.2728
 1124YOPC   C4A14628  11.979   5.157   7.425  0.2528 -0.1918 -0.2764
 1124YOPC   C1B14629  12.220   5.822   6.646 -0.0549  0.1867  0.3619
 1124YOPC   C2B14630  12.518   5.575   6.876  0.1960  0.0974 -0.1643
 1124YOPC   D3B14631  12.368   5.553   7.373  0.3154 -0.2003  0.1756
 1124YOPC   C4B14632  12.606   5.790   7.661 -0.2578 -0.1970  0.1577
 1125YOPC   NC314633   5.241  13.482   5.662  0.0856 -0.2240  0.1343
 1125YOPC   PO414634   4.870  13.525   5.700  0.3089 -0.2503  0.0542
 1125YOPC   GL114635   4.710  13.838   5.939 -0.1817  0.3178  0.2279
 1125YOPC   GL214636   4.489  13.629   6.141 -0.1677 -0.0215  0.2727
 1125YOPC   C1A14637   4.675  14.110   6.318  0.1642 -0.0708 -0.1234
 1125YOPC   D2A14638   4.609  14.045   6.753 -0.1530 -0.5025 -0.4035
 1125YOPC   C3A14639   4.777  14.074   7.173  0.0889  0.0630  0.4310
 1125YOPC   C4A14640   4.659  14.340   7.479 -0.0875 -0.0943 -0.0612
 1125YOPC   C1B14641   4.388  13.655   6.553  0.1917  0.1945 -0.0450
 1125YOPC   C2B14642   4.218  13.495   6.820 -0.0582  0.0595 -0.0248
 1125YOPC   D3B14643   4.230  13.326   7.272 -0.1134 -0.0769  0.0133
 1125YOPC   C4B14644   4.016  13.237   7.557  0.0629  0.1864 -0.1317
 1126YOPC   NC314645  17.614  10.512   5.966  0.0917  0.0950 -0.0111
 1126YOPC   PO414646  17.629  10.936   5.996  0.1817 -0.0881  0.2091
 1126YOPC   GL114647  17.781  10.914   6.373  0.0030 -0.1284  0.0776
 1126YOPC   GL214648  17.652  10.684   6.622  0.1371  0.0814  0.0161
 1126YOPC   C1A14649  17.953  11.143   6.782  0.0444  0.1984 -0.1749
 1126YOPC   D2A14650  17.871  11.128   7.216 -0.0683 -0.3060  0.1066
 1126YOPC   C3A14651  18.210  11.216   7.527  0.0055  0.2079 -0.3601
 1126YOPC   C4A14652  18.419  11.436   7.940  0.1212  0.0487  0.1296
 1126YOPC   C1B14653  17.791  10.706   6.995  0.1880 -0.1639  0.0261
 1126YOPC   C2B14654  17.955  10.688   7.455  0.1758 -0.1646  0.0069
 1126YOPC   D3B14655  17.754  10.940   7.689 -0.1288  0.3507 -0.0042
 1126YOPC   C4B14656  17.404  10.765   8.006 -0.1496 -0.1134  0.1647
 1127YOPC   NC314657   9.365  13.815   6.113 -0.1324  0.2125  0.2144
 1127YOPC   PO414658   9.745  13.919   6.155 -0.2808 -0.0248 -0.0434
 1127YOPC   GL114659   9.732  13.732   6.488  0.0478  0.1576  0.0392
 1127YOPC   GL214660   9.558  13.604   6.607 -0.1981  0.1848 -0.1722
 1127YOPC   C1A14661   9.718  13.959   6.943  0.2219  0.1727  0.1105
 1127YOPC   D2A14662   9.699  13.947   7.307  0.1767  0.2108 -0.1980
 1127YOPC   C3A14663   9.666  14.124   7.782  0.0267 -0.0894 -0.0682
 1127YOPC   C4A14664   9.731  14.550   8.137 -0.0243  0.0722  0.0745
 1127YOPC   C1B14665   9.613  13.395   7.025  0.0259 -0.0511 -0.0666
 1127YOPC   C2B14666   9.675  13.453   7.468 -0.1069  0.1188  0.1010
 1127YOPC   D3B14667   9.438  13.347   7.774  0.1922 -0.0988  0.0128
 1127YOPC   C4B14668   9.500  13.135   8.186  0.2539 -0.1705 -0.0941
 1128YOPC   NC314669  17.398   4.969   6.059  0.3488 -0.0374  0.1986
 1128YOPC   PO414670  17.100   5.379   6.092  0.1241 -0.2089 -0.2750
 1128YOPC   GL114671  17.245   5.296   6.613  0.1447 -0.0906  0.0937
 1128YOPC   GL214672  17.395   4.917   6.654 -0.1370 -0.0060 -0.2170
 1128YOPC   C1A14673  17.267   5.051   7.068  0.1206  0.0472  0.2412
 1128YOPC   D2A14674  17.100   4.701   7.238  0.0995  0.0998 -0.0841
 1128YOPC   C3A14675  17.391   4.498   7.084  0.1006  0.1076  0.0992
 1128YOPC   C4A14676  17.795   4.352   6.938 -0.1640  0.2113 -0.0430
 1128YOPC   C1B14677  16.958   4.849   6.637 -0.1739 -0.0725 -0.1689
 1128YOPC   C2B14678  16.675   4.782   7.032 -0.0518 -0.0137 -0.1950
 1128YOPC   D3B14679  16.621   4.863   7.395  0.1749 -0.1568  0.4663
 1128YOPC   C4B14680  16.313   4.912   7.761  0.1735  0.1349 -0.1667
 1129YOPC   NC314681  11.087  13.212   5.999 -0.0276  0.1859 -0.2256
 1129YOPC   PO414682  10.677  13.086   5.915  0.1884 -0.2021 -0.4323
 1129YOPC   GL114683  10.686  13.013   6.314 -0.0471 -0.1034 -0.2249
 1129YOPC   GL214684  10.982  13.137   6.488 -0.0323  0.0805 -0.2193
 1129YOPC   C1A14685  10.528  12.914   6.806  0.0371 -0.1830 -0.4226
 1129YOPC   D2A14686  10.410  12.583   7.038  0.0081  0.1670 -0.0184
 1129YOPC   C3A14687  10.085  12.627   7.361  0.0478  0.2304 -0.1905
 1129YOPC   C4A14688   9.776  12.432   7.707  0.0555  0.0331  0.1437
 1129YOPC   C1B14689  11.073  13.081   6.877  0.2778  0.2187 -0.0435
 1129YOPC   C2B14690  10.811  13.139   7.252  0.2288 -0.1610 -0.0625
 1129YOPC   D3B14691  10.620  12.792   7.451 -0.1980  0.1472  0.2841
 1129YOPC   C4B14692  10.242  12.869   7.787  0.0232  0.3524 -0.1040
 1130YOPC   NC314693  15.926   1.484   5.248 -0.1977  0.0697 -0.0098
 1130YOPC   PO414694  15.788   1.862   5.577  0.0331  0.0103 -0.0162
 1130YOPC   GL114695  16.055   1.775   6.030  0.0297 -0.0015  0.3052
 1130YOPC   GL214696  16.353   2.008   6.083  0.1190 -0.1932  0.0994
 1130YOPC   C1A14697  16.189   1.665   6.448  0.1273 -0.0808  0.2270
 1130YOPC   D2A14698  16.190   1.782   6.773 -0.0913 -0.2799 -0.1548
 1130YOPC   C3A14699  16.437   1.646   7.145 -0.0349 -0.0988  0.3174
 1130YOPC   C4A14700  16.395   1.489   7.559 -0.2003 -0.1395 -0.2455
 1130YOPC   C1B14701  16.636   1.982   6.371 -0.3266  0.0495  0.0706
 1130YOPC   C2B14702  16.810   1.843   6.795 -0.1438 -0.0597 -0.0331
 1130YOPC   D3B14703  16.752   2.004   7.237  0.1380  0.4436 -0.0427
 1130YOPC   C4B14704  16.711   1.981   7.617  0.0925  0.1586 -0.0427
 1131YOPC   NC314705   3.723   0.503   5.467 -0.0115 -0.2401 -0.1116
 1131YOPC   PO414706   3.679  -0.004   5.630  0.1460 -0.0397  0.0133
 1131YOPC   GL114707   3.543  -0.205   6.023  0.0810  0.0666 -0.0086
 1131YOPC   GL214708   3.299  -0.442   5.978  0.0430 -0.0363  0.3088
 1131YOPC   C1A14709   3.731  -0.512   6.328 -0.1366 -0.0163  0.2258
 1131YOPC   D2A14710   3.716  -0.459   6.847 -0.2968  0.1406 -0.2369
 1131YOPC   C3A14711   3.330  -0.664   7.042 -0.3319 -0.3534 -0.1831
 1131YOPC   C4A14712   3.271  -0.841   7.448  0.1420  0.0340 -0.0753
 1131YOPC   C1B14713   3.295  -0.402   6.475  0.0845 -0.2899  0.0545
 1131YOPC   C2B14714   3.322  -0.155   6.886  0.2315  0.0146  0.0387
 1131YOPC   D3B14715   3.025  -0.263   7.216  0.0331  0.2498  0.0412
 1131YOPC   C4B14716   2.785  -0.192   7.458 -0.2343  0.1732 -0.3791
 1132YOPC   NC314717  15.484   2.265   5.666  0.0556  0.1550 -0.0624
 1132YOPC   PO414718  15.036   2.154   5.591  0.0707  0.1976 -0.0223
 1132YOPC   GL114719  15.146   2.268   6.080  0.0915  0.1253  0.4623
 1132YOPC   GL214720  15.424   2.398   6.186 -0.2866 -0.3944 -0.2774
 1132YOPC   C1A14721  15.038   2.258   6.510 -0.3596 -0.3596  0.1763
 1132YOPC   D2A14722  14.805   2.331   6.857 -0.0786  0.0229 -0.1946
 1132YOPC   C3A14723  14.910   2.173   7.280 -0.0386  0.0060 -0.0194
 1132YOPC   C4A14724  15.066   1.992   7.691 -0.1870  0.2396  0.2356
 1132YOPC   C1B14725  15.510   2.306   6.602  0.1839  0.3060 -0.0786
 1132YOPC   C2B14726  15.318   2.115   6.978  0.2913  0.0978  0.3371
 1132YOPC   D3B14727  15.434   2.096   7.379  0.0901 -0.1531  0.0221
 1132YOPC   C4B14728  15.598   1.913   7.813 -0.1089 -0.2572 -0.2895
 1133YOPC   NC314729  16.929  16.430   5.728  0.0859 -0.0180  0.2423
 1133YOPC   PO414730  16.933  16.291   6.031 -0.1860  0.1278 -0.0948
 1133YOPC   GL114731  16.901  16.420   6.433 -0.1633  0.1346  0.0998
 1133YOPC   GL214732  16.885  16.737   6.523  0.0371 -0.1677  0.1425
 1133YOPC   C1A14733  17.158  16.320   6.806  0.0334  0.0816 -0.2158
 1133YOPC   D2A14734  17.234  16.187   7.270  0.0036 -0.0792 -0.1487
 1133YOPC   C3A14735  16.893  16.261   7.478 -0.1226 -0.1340 -0.1693
 1133YOPC   C4A14736  16.837  16.570   7.816  0.1793  0.0322 -0.0307
 1133YOPC   C1B14737  17.141  16.796   6.752  0.1509  0.0962 -0.1735
 1133YOPC   C2B14738  17.310  16.741   7.097 -0.2378  0.0556  0.2394
 1133YOPC   D3B14739  17.824  16.859   7.221  0.0071  0.0275 -0.0589
 1133YOPC   C4B14740  18.140  16.764   7.368  0.1507  0.0487  0.2988
 1134YOPC   NC314741   7.725  13.505   5.845 -0.1691  0.1243  0.0922
 1134YOPC   PO414742   7.474  13.076   5.960  0.3594 -0.0610  0.3110
 1134YOPC   GL114743   7.402  13.212   6.397  0.0236 -0.2585  0.1585
 1134YOPC   GL214744   7.680  13.430   6.411  0.0004 -0.0411 -0.1310
 1134YOPC   C1A14745   7.388  13.340   6.784 -0.0518 -0.0576 -0.4512
 1134YOPC   D2A14746   7.211  13.617   6.812  0.4637 -0.5462  0.0414
 1134YOPC   C3A14747   7.029  13.728   7.174  0.1651  0.0715  0.0914
 1134YOPC   C4A14748   6.922  14.013   7.573 -0.1653  0.1132 -0.2317
 1134YOPC   C1B14749   7.904  13.472   6.809 -0.1014  0.3331  0.0432
 1134YOPC   C2B14750   7.874  13.460   7.189  0.3902  0.1756  0.0417
 1134YOPC   D3B14751   7.429  13.390   7.312 -0.1947  0.4575 -0.2403
 1134YOPC   C4B14752   7.338  13.751   7.547 -0.2153  0.0041 -0.0105
 1135YOPC   NC314753  17.733  16.961   5.698  0.1477 -0.0605  0.1211
 1135YOPC   PO414754  17.513  17.251   5.875 -0.3230  0.0976  0.1072
 1135YOPC   GL114755  17.766  17.384   6.269 -0.0777 -0.0253 -0.0688
 1135YOPC   GL214756  17.998  17.252   6.381  0.1311  0.0325 -0.4093
 1135YOPC   C1A14757  17.891  17.626   6.680  0.4182 -0.0987  0.2680
 1135YOPC   D2A14758  18.055  17.862   6.949  0.1497 -0.0249 -0.0693
 1135YOPC   C3A14759  17.957  17.799   7.366 -0.3988 -0.0503  0.0072
 1135YOPC   C4A14760  18.224  17.676   7.732  0.1083 -0.0052  0.1682
 1135YOPC   C1B14761  18.086  17.078   6.865 -0.0290 -0.3088 -0.0894
 1135YOPC   C2B14762  18.195  17.372   7.250 -0.1376 -0.0588  0.3223
 1135YOPC   D3B14763  18.022  17.245   7.593 -0.0981  0.0046  0.0628
 1135YOPC   C4B14764  17.968  17.173   7.975 -0.0628  0.0615  0.1500
 1136YOPC   NC314765   6.476   8.093   5.782  0.2414 -0.1930  0.1515
 1136YOPC   PO414766   6.698   7.763   5.908 -0.4059 -0.0368 -0.0955
 1136YOPC   GL114767   6.747   7.579   6.307 -0.0392  0.0414 -0.4490
 1136YOPC   GL214768   7.141   7.313   6.321 -0.1076  0.3425  0.2514
 1136YOPC   C1A14769   6.608   7.621   6.741  0.0216  0.0810  0.0173
 1136YOPC   D2A14770   6.470   7.644   7.181  0.2805  0.0174 -0.1043
 1136YOPC   C3A14771   6.733   7.721   7.534  0.2909  0.2289 -0.2322
 1136YOPC   C4A14772   6.822   7.898   7.888  0.2097  0.3327  0.0761
 1136YOPC   C1B14773   7.055   7.472   6.687  0.0057  0.0635 -0.1637
 1136YOPC   C2B14774   6.987   7.538   7.106 -0.3412  0.1709  0.0783
 1136YOPC   D3B14775   7.093   7.433   7.459 -0.0642 -0.0756 -0.0111
 1136YOPC   C4B14776   7.072   7.481   7.901  0.2405  0.2014  0.0126
 1137YOPC   NC314777  17.424  13.623   6.025  0.0635 -0.2223 -0.1952
 1137YOPC   PO414778  16.980  13.545   5.959 -0.0844 -0.1346 -0.0453
 1137YOPC   GL114779  17.099  13.428   6.414  0.1091  0.1174  0.1354
 1137YOPC   GL214780  17.069  13.680   6.574 -0.0786 -0.1904 -0.0717
 1137YOPC   C1A14781  16.972  13.175   6.788 -0.0737  0.0373  0.3461
 1137YOPC   D2A14782  16.826  13.213   7.166  0.0051  0.1335  0.0364
 1137YOPC   C3A14783  17.025  13.278   7.456 -0.1668 -0.1248  0.0759
 1137YOPC   C4A14784  17.400  13.381   7.566 -0.5938  0.1248 -0.3851
 1137YOPC   C1B14785  17.086  13.696   7.028 -0.0743  0.0492 -0.0210
 1137YOPC   C2B14786  17.050  13.742   7.398  0.0557 -0.0822  0.2377
 1137YOPC   D3B14787  16.756  13.676   7.688 -0.2622  0.1013 -0.1316
 1137YOPC   C4B14788  16.585  13.920   7.936  0.1781 -0.0261 -0.4067
 1138YOPC   NC314789  11.535   6.402   5.679 -0.3174 -0.0076  0.0485
 1138YOPC   PO414790  11.810   6.170   5.799  0.0518  0.0532 -0.1607
 1138YOPC   GL114791  11.514   6.118   6.128 -0.0761  0.2635 -0.1274
 1138YOPC   GL214792  11.491   5.842   6.258 -0.0189 -0.1325 -0.2291
 1138YOPC   C1A14793  11.331   6.215   6.538  0.0318  0.1244  0.1247
 1138YOPC   D2A14794  11.305   6.005   6.959 -0.1918 -0.1301  0.0579
 1138YOPC   C3A14795  11.503   5.656   7.052  0.0701 -0.0724 -0.0909
 1138YOPC   C4A14796  11.874   5.637   7.353 -0.1371 -0.2368  0.0553
 1138YOPC   C1B14797  11.690   5.791   6.603  0.0252 -0.3166  0.0334
 1138YOPC   C2B14798  11.962   5.505   6.854  0.0261 -0.2478  0.0413
 1138YOPC   D3B14799  11.661   5.210   7.047  0.0032 -0.4622  0.2903
 1138YOPC   C4B14800  11.503   5.316   7.421  0.1000  0.1072  0.2091
 1139YOPC   NC314801  14.422   8.408   5.961  0.0989 -0.1343  0.2182
 1139YOPC   PO414802  14.518   8.783   5.770  0.1032  0.1875  0.1151
 1139YOPC   GL114803  14.554   8.893   6.178  0.1085 -0.0522  0.1060
 1139YOPC   GL214804  14.886   9.025   6.197 -0.2191  0.3318  0.0152
 1139YOPC   C1A14805  14.476   8.873   6.618  0.0249 -0.1106  0.0718
 1139YOPC   D2A14806  14.683   8.612   6.919  0.2880 -0.1789 -0.2057
 1139YOPC   C3A14807  14.904   8.264   6.828 -0.1480 -0.2190  0.2474
 1139YOPC   C4A14808  15.109   8.170   6.454 -0.1251 -0.1754 -0.1446
 1139YOPC   C1B14809  14.852   8.625   6.431 -0.1098  0.0931 -0.0642
 1139YOPC   C2B14810  14.510   8.303   6.495  0.0486 -0.2445 -0.1177
 1139YOPC   D3B14811  14.696   7.936   6.503  0.1880 -0.1069  0.1927
 1139YOPC   C4B14812  14.463   7.620   6.372 -0.1800 -0.1673 -0.0761
 1140YOPC   NC314813  13.581   8.689   6.080 -0.2362  0.1771  0.0386
 1140YOPC   PO414814  13.881   8.360   5.963  0.0827  0.2945 -0.1455
 1140YOPC   GL114815  14.049   8.497   6.341 -0.1560 -0.1683  0.0128
 1140YOPC   GL214816  13.758   8.562   6.517 -0.0977 -0.1095  0.0681
 1140YOPC   C1A14817  14.156   8.507   6.816  0.1178  0.0522 -0.1972
 1140YOPC   D2A14818  14.285   8.551   7.200  0.1224  0.1774  0.1065
 1140YOPC   C3A14819  14.146   8.601   7.580  0.2697 -0.0934  0.0454
 1140YOPC   C4A14820  14.302   8.508   7.977 -0.2093 -0.0308 -0.0191
 1140YOPC   C1B14821  13.635   8.397   6.909 -0.1856 -0.0199 -0.1411
 1140YOPC   C2B14822  13.632   8.056   7.091  0.3844  0.1935  0.1928
 1140YOPC   D3B14823  13.983   8.071   7.241  0.1572  0.2692 -0.2804
 1140YOPC   C4B14824  14.340   8.098   7.485 -0.0649 -0.0713  0.3854
 1141YOPC   NC314825   0.245   7.109   6.242  0.1350 -0.0959 -0.1016
 1141YOPC   PO414826   0.620   7.332   6.230  0.0489  0.1054  0.3213
 1141YOPC   GL114827   0.722   7.372   6.664 -0.2460 -0.0451  0.1679
 1141YOPC   GL214828   0.954   7.273   6.813  0.1493  0.1058  0.1585
 1141YOPC   C1A14829   0.592   7.354   7.114 -0.1450  0.1372  0.0243
 1141YOPC   D2A14830   0.605   7.179   7.464  0.0561  0.1021 -0.2276
 1141YOPC   C3A14831   0.548   7.334   7.773 -0.1396 -0.0257 -0.0816
 1141YOPC   C4A14832   0.515   7.351   8.276 -0.1534  0.0858  0.0637
 1141YOPC   C1B14833   1.092   7.325   7.151 -0.1144 -0.0101 -0.0911
 1141YOPC   C2B14834   1.119   7.197   7.566 -0.2156 -0.0730  0.2040
 1141YOPC   D3B14835   0.946   7.114   7.941  0.0159  0.0212  0.0730
 1141YOPC   C4B14836   0.779   6.864   8.318 -0.2602 -0.1624  0.0591
 1142YOPC   NC314837   6.077  10.767   5.662  0.2624 -0.0627  0.1274
 1142YOPC   PO414838   6.423  10.675   5.746  0.0142 -0.1580 -0.2751
 1142YOPC   GL114839   6.294  10.434   6.142 -0.0717 -0.1771  0.0863
 1142YOPC   GL214840   6.028  10.305   6.121 -0.0107  0.0364  0.0463
 1142YOPC   C1A14841   6.520  10.437   6.522  0.2068  0.1067  0.0422
 1142YOPC   D2A14842   6.642  10.125   6.746  0.1374 -0.0952 -0.3653
 1142YOPC   C3A14843   6.538  10.351   7.205 -0.1000 -0.0250 -0.0591
 1142YOPC   C4A14844   6.658  10.499   7.614 -0.0915 -0.2186 -0.1625
 1142YOPC   C1B14845   6.108  10.142   6.539 -0.2579 -0.1724  0.0466
 1142YOPC   C2B14846   6.155  10.295   6.965  0.1286  0.1770  0.0023
 1142YOPC   D3B14847   6.011  10.284   7.401 -0.1740  0.0191 -0.1167
 1142YOPC   C4B14848   6.146  10.415   7.717 -0.1578 -0.1157 -0.4507
 1143YOPC   NC314849  10.799   2.555   5.303 -0.1854  0.1420 -0.3206
 1143YOPC   PO414850  11.129   2.618   5.674 -0.2031 -0.1645  0.0572
 1143YOPC   GL114851  11.181   2.551   6.047 -0.0392  0.1287  0.0436
 1143YOPC   GL214852  10.962   2.383   6.283 -0.1044  0.3344  0.0533
 1143YOPC   C1A14853  11.312   2.704   6.364  0.0894  0.0083  0.1021
 1143YOPC   D2A14854  11.248   2.979   6.630 -0.1155  0.2553 -0.1740
 1143YOPC   C3A14855  11.381   2.951   7.048 -0.1144 -0.1347  0.1199
 1143YOPC   C4A14856  11.216   3.173   7.511  0.1459 -0.0435 -0.0198
 1143YOPC   C1B14857  10.989   2.516   6.736  0.1858 -0.0737 -0.1799
 1143YOPC   C2B14858  10.990   2.725   7.175 -0.0264  0.0180 -0.0702
 1143YOPC   D3B14859  11.077   2.684   7.592 -0.0427  0.1184  0.2995
 1143YOPC   C4B14860  11.047   2.898   7.943  0.0711 -0.0136 -0.1859
 1144ERGO   ROH14861  13.856   0.870   6.079  0.1651  0.3412  0.0180
 1144ERGO    R114862  14.027   0.912   6.301  0.1532  0.2304  0.0487
 1144ERGO    R214863  13.935   1.009   6.543  0.1456  0.1410  0.0829
 1144ERGO    R314864  14.054   0.785   6.641  0.1129  0.0862 -0.0018
 1144ERGO    R414865  14.025   0.960   6.873  0.0384 -0.0453  0.0863
 1144ERGO    R514866  14.209   0.866   6.804  0.0595 -0.0066  0.0943
 1144ERGO    C114867  14.189   0.722   7.157 -0.0547 -0.2052  0.0089
 1144ERGO    C214868  14.275   0.795   7.529  0.1158  0.1424  0.3127
 1145ERGO   ROH14869   0.187   7.248   6.765  0.1220 -0.1474  0.0425
 1145ERGO    R114870   0.183   7.094   7.003  0.0990 -0.0324  0.1173
 1145ERGO    R214871   0.154   7.208   7.253 -0.1431  0.0722  0.0460
 1145ERGO    R314872  -0.052   7.033   7.274 -0.0193 -0.0807  0.0048
 1145ERGO    R414873   0.030   7.085   7.551 -0.0471 -0.0999  0.0159
 1145ERGO    R514874   0.009   6.890   7.456  0.0878 -0.0882 -0.0374
 1145ERGO    C114875  -0.237   6.848   7.744  0.1250 -0.3435 -0.0403
 1145ERGO    C214876  -0.257   6.882   8.036 -0.0466 -0.0595 -0.1530
 1146ERGO   ROH14877  12.411   4.692   6.407 -0.1135 -0.2939 -0.0112
 1146ERGO    R114878  12.450   4.573   6.661 -0.0806 -0.1445  0.0543
 1146ERGO    R214879  12.565   4.709   6.873 -0.0606 -0.0175 -0.0390
 1146ERGO    R314880  12.337   4.634   7.002 -0.0424  0.0502  0.0337
 1146ERGO    R414881  12.502   4.761   7.209  0.1424 -0.1582  0.0224
 1146ERGO    R514882  12.412   4.562   7.218  0.0262 -0.1119 -0.0408
 1146ERGO    C114883  12.252   4.721   7.526  0.2775 -0.1766  0.1267
 1146ERGO    C214884  12.411   5.023   7.669 -0.1174  0.3840  0.1839
 1147ERGO   ROH14885   0.769   7.907   6.732 -0.2575  0.2090 -0.0448
 1147ERGO    R114886   0.829   7.752   6.961 -0.4035  0.0164 -0.1329
 1147ERGO    R214887   1.001   7.840   7.159  0.0303 -0.4332 -0.2864
 1147ERGO    R314888   0.790   7.786   7.322  0.0466  0.0673 -0.0840
 1147ERGO    R414889   1.025   7.776   7.498  0.1831 -0.3765 -0.2859
 1147ERGO    R514890   0.873   7.621   7.474 -0.1746 -0.0659 -0.1075
 1147ERGO    C114891   0.840   7.689   7.848  0.2874  0.1264 -0.0956
 1147ERGO    C214892   0.884   7.815   8.117  0.1481 -0.1960  0.1817
 1148ERGO   ROH14893  16.194   9.825   6.745  0.1616 -0.1432 -0.0838
 1148ERGO    R114894  16.299   9.833   7.008  0.0969 -0.0751 -0.0603
 1148ERGO    R214895  16.284  10.059   7.166  0.0307 -0.0443 -0.1123
 1148ERGO    R314896  16.167   9.888   7.343  0.0095 -0.0205 -0.1028
 1148ERGO    R414897  16.306  10.085   7.510 -0.0068  0.0028 -0.1132
 1148ERGO    R514898  16.326   9.869   7.521 -0.0092  0.0026 -0.0821
 1148ERGO    C114899  16.208   9.941   7.876 -0.0486  0.0524 -0.1048
 1148ERGO    C214900  16.230  10.117   8.165  0.1895 -0.1639 -0.1095
 1149ERGO   ROH14901   7.844  13.906   6.393  0.1182 -0.2012  0.1397
 1149ERGO    R114902   7.760  14.009   6.643 -0.0504 -0.2346  0.1016
 1149ERGO    R214903   7.616  13.859   6.825 -0.0409 -0.3202  0.0630
 1149ERGO    R314904   7.817  13.930   6.994 -0.1402 -0.1848  0.1226
 1149ERGO    R414905   7.593  13.863   7.170 -0.2359  0.0606  0.0499
 1149ERGO    R514906   7.708  14.048   7.171 -0.2089  0.0230 -0.0714
 1149ERGO    C114907   7.769  13.931   7.529 -0.4428  0.4093  0.0982
 1149ERGO    C214908   7.779  13.742   7.695  0.0768 -0.0021 -0.0658
 1150ERGO   ROH14909  14.268   0.808   5.940  0.0833  0.0730 -0.1901
 1150ERGO    R114910  14.450   0.703   6.129  0.0137  0.0176 -0.1534
 1150ERGO    R214911  14.518   0.838   6.361  0.0725  0.0355 -0.1810
 1150ERGO    R314912  14.440   0.606   6.480 -0.0626  0.1057 -0.1309
 1150ERGO    R414913  14.605   0.741   6.681  0.0643  0.0278 -0.1811
 1150ERGO    R514914  14.631   0.538   6.608 -0.0852 -0.0023 -0.1540
 1150ERGO    C114915  14.582   0.468   6.980 -0.0672  0.0891 -0.1342
 1150ERGO    C214916  14.594   0.263   7.260 -0.1108  0.0756 -0.2939
 1151ERGO   ROH14917  11.761  16.043   6.251 -0.0119  0.1868  0.0600
 1151ERGO    R114918  11.786  16.196   6.488 -0.0987  0.1608  0.0866
 1151ERGO    R214919  11.583  16.217   6.673 -0.1177  0.0284  0.0818
 1151ERGO    R314920  11.776  16.133   6.847 -0.0826  0.0961  0.0760
 1151ERGO    R414921  11.593  16.296   7.010 -0.2021 -0.0629  0.1058
 1151ERGO    R514922  11.809  16.321   6.993 -0.2141  0.0761  0.1343
 1151ERGO    C114923  11.779  16.263   7.369 -0.2183 -0.0526  0.1144
 1151ERGO    C214924  11.839  16.412   7.735  0.1176  0.2917  0.0436
 1152ERGO   ROH14925   4.019  11.870   6.133 -0.0335 -0.0412  0.0115
 1152ERGO    R114926   3.961  11.979   6.387  0.0212  0.0439 -0.0099
 1152ERGO    R214927   3.715  11.946   6.510  0.0473  0.0651  0.0687
 1152ERGO    R314928   3.866  11.849   6.714  0.1146  0.1452  0.0548
 1152ERGO    R414929   3.655  12.003   6.846  0.1190  0.1030  0.0739
 1152ERGO    R514930   3.870  12.025   6.875  0.1086  0.1640  0.0228
 1152ERGO    C114931   3.763  11.945   7.233  0.2238  0.2003  0.0638
 1152ERGO    C214932   3.877  11.978   7.528  0.0844 -0.1428  0.1780
 1153ERGO   ROH14933  11.586   7.264   6.613 -0.2270  0.1523 -0.0235
 1153ERGO    R114934  11.769   7.344   6.813 -0.0196  0.1458 -0.2053
 1153ERGO    R214935  11.872   7.600   6.826 -0.3152  0.2662 -0.0763
 1153ERGO    R314936  11.776   7.592   7.080  0.0711 -0.1460  0.0677
 1153ERGO    R414937  11.916   7.848   7.062 -0.2114  0.0162  0.1713
 1153ERGO    R514938  11.948   7.693   7.212  0.1693 -0.1432 -0.0632
 1153ERGO    C114939  11.852   7.985   7.439  0.2117 -0.5164  0.4506
 1153ERGO    C214940  11.770   8.140   7.746  0.0011 -0.0863  0.0689
 1154ERGO   ROH14941   1.860   8.491   6.494 -0.1798  0.3205 -0.0266
 1154ERGO    R114942   1.834   8.358   6.743 -0.2149  0.1873 -0.1005
 1154ERGO    R214943   2.047   8.320   6.914 -0.2438  0.1089 -0.0799
 1154ERGO    R314944   1.883   8.441   7.094 -0.2811  0.0033 -0.0479
 1154ERGO    R414945   2.079   8.298   7.258 -0.1719  0.1202 -0.0858
 1154ERGO    R514946   1.862   8.283   7.272 -0.1550 -0.0095 -0.0478
 1154ERGO    C114947   1.943   8.399   7.626 -0.1651  0.0277 -0.0591
 1154ERGO    C214948   1.739   8.465   7.884  0.1427  0.2829 -0.3182
 1155ERGO   ROH14949   7.388   1.767   6.484 -0.3099  0.1772  0.0102
 1155ERGO    R114950   7.554   1.744   6.712 -0.1459  0.0342 -0.1214
 1155ERGO    R214951   7.504   1.882   6.946  0.1307  0.0370 -0.0658
 1155ERGO    R314952   7.515   1.634   7.057  0.0503  0.0152 -0.1033
 1155ERGO    R414953   7.444   1.812   7.279 -0.0578 -0.0131 -0.1084
 1155ERGO    R514954   7.609   1.670   7.274 -0.0633 -0.0275 -0.0430
 1155ERGO    C114955   7.419   1.539   7.577 -0.2431 -0.0628 -0.1684
 1155ERGO    C214956   7.281   1.356   7.817 -0.1018  0.0045  0.1983
 1156ERGO   ROH14957   6.317   0.337   6.582  0.0640  0.2309  0.0524
 1156ERGO    R114958   6.375   0.186   6.814 -0.0601  0.1294  0.0182
 1156ERGO    R214959   6.573   0.258   6.993  0.0430 -0.1071  0.0010
 1156ERGO    R314960   6.371   0.241   7.174  0.0503  0.0738  0.0289
 1156ERGO    R414961   6.592   0.363   7.322  0.1374  0.0055 -0.0393
 1156ERGO    R514962   6.479   0.186   7.380  0.0422  0.0884  0.0385
 1156ERGO    C114963   6.413   0.408   7.683  0.1992  0.2408 -0.0365
 1156ERGO    C214964   6.515   0.519   7.798  0.0854 -0.0833  0.2496
 1157ERGO   ROH14965  12.986   6.594   6.823  0.0036 -0.0824  0.0330
 1157ERGO    R114966  12.883   6.411   7.014 -0.0009 -0.0945  0.0195
 1157ERGO    R214967  12.995   6.378   7.264 -0.0757 -0.0263  0.0639
 1157ERGO    R314968  12.742   6.431   7.349 -0.1233 -0.1006 -0.0313
 1157ERGO    R414969  12.861   6.273   7.565 -0.1114  0.0571  0.0772
 1157ERGO    R514970  12.674   6.231   7.462 -0.0636 -0.0773  0.0454
 1157ERGO    C114971  12.545   6.261   7.819 -0.1769  0.0360 -0.0044
 1157ERGO    C214972  12.480   6.225   8.118  0.1854 -0.5349 -0.4061
 1158ERGO   ROH14973   9.525   7.270   6.915  0.0165  0.0523  0.0231
 1158ERGO    R114974   9.575   7.265   7.193  0.1325 -0.0253  0.0009
 1158ERGO    R214975   9.439   7.098   7.367  0.0293  0.1042  0.0433
 1158ERGO    R314976   9.689   7.020   7.437 -0.0208 -0.1695 -0.0698
 1158ERGO    R414977   9.536   7.012   7.687  0.1153  0.1606  0.0331
 1158ERGO    R514978   9.724   7.117   7.653  0.2316 -0.0886 -0.1416
 1158ERGO    C114979   9.828   6.888   7.939  0.1184 -0.0634 -0.0791
 1158ERGO    C214980   9.705   6.879   8.161 -0.0249  0.1103  0.1485
 1159ERGO   ROH14981   6.493  16.573   6.432  0.0724 -0.1787  0.0816
 1159ERGO    R114982   6.366  16.418   6.632 -0.0906 -0.0292  0.0963
 1159ERGO    R214983   6.480  16.373   6.880 -0.1342 -0.1296  0.0963
 1159ERGO    R314984   6.244  16.472   6.971 -0.0305  0.1283  0.0945
 1159ERGO    R414985   6.364  16.341   7.204 -0.2640 -0.2011  0.0436
 1159ERGO    R514986   6.165  16.306   7.123 -0.2964  0.1215 -0.0411
 1159ERGO    C114987   6.075  16.415   7.478 -0.2423 -0.0006  0.0113
 1159ERGO    C214988   6.095  16.506   7.799  0.0928  0.0411  0.0361
 1160ERGO   ROH14989  13.876   9.059   6.366 -0.0191 -0.0953  0.1584
 1160ERGO    R114990  14.039   8.999   6.589  0.0081 -0.0314  0.1556
 1160ERGO    R214991  14.171   9.195   6.733  0.0937  0.0018  0.0315
 1160ERGO    R314992  14.042   9.082   6.944  0.1032  0.1446  0.1155
 1160ERGO    R414993  14.226   9.275   7.065  0.2325  0.1087 -0.0163
 1160ERGO    R514994  14.209   9.063   7.114  0.1475  0.1336  0.0719
 1160ERGO    C114995  14.137   9.215   7.456  0.3221  0.3049  0.0348
 1160ERGO    C214996  14.305   9.302   7.760  0.0203  0.2227  0.0869
 1161ERGO   ROH14997   5.828   8.875   6.154 -0.0034  0.4525  0.1083
 1161ERGO    R114998   5.978   8.721   6.339 -0.0588  0.1209 -0.1132
 1161ERGO    R214999   6.030   8.807   6.597  0.4099 -0.0414 -0.1393
 1161ERGO    R315000   5.919   8.568   6.664  0.0416  0.1384 -0.0882
 1161ERGO    R415001   6.052   8.659   6.908  0.3827 -0.1266 -0.1781
 1161ERGO    R515002   6.079   8.467   6.810 -0.0261 -0.1636 -0.2224
 1161ERGO    C115003   5.961   8.349   7.153  0.0210 -0.0075 -0.1528
 1161ERGO    C215004   5.852   8.250   7.455 -0.4538 -0.0097  0.2035
 1162ERGO   ROH15005  11.530  13.412   6.309  0.2337  0.1109 -0.0600
 1162ERGO    R115006  11.583  13.290   6.559  0.2465  0.1383 -0.0511
 1162ERGO    R215007  11.811  13.343   6.706  0.1482  0.3135  0.0259
 1162ERGO    R315008  11.632  13.400   6.902  0.0389  0.1535 -0.0223
 1162ERGO    R415009  11.889  13.382   7.040  0.0597  0.5321  0.0244
 1162ERGO    R515010  11.707  13.274   7.090  0.1821  0.3087  0.0349
 1162ERGO    C115011  11.765  13.458   7.419 -0.0945  0.5090 -0.0218
 1162ERGO    C215012  11.782  13.277   7.741 -0.2810 -0.2503 -0.0517
 1163ERGO   ROH15013  15.957  18.095   6.191  0.0620 -0.0631  0.0203
 1163ERGO    R115014  15.758  18.122   6.391  0.0211  0.0302 -0.0335
 1163ERGO    R215015  15.742  17.955   6.610 -0.1407  0.0136 -0.0603
 1163ERGO    R315016  15.749  18.188   6.749 -0.0440 -0.0084 -0.0269
 1163ERGO    R415017  15.657  17.989   6.943  0.0823 -0.0417  0.0040
 1163ERGO    R515018  15.559  18.177   6.894  0.0505 -0.0304  0.0995
 1163ERGO    C115019  15.615  18.227   7.268  0.3030 -0.0945  0.0728
 1163ERGO    C215020  15.687  18.130   7.574 -0.1624 -0.2260  0.1544
 1164ERGO   ROH15021  17.910   6.118   6.617  0.2122 -0.3858 -0.0877
 1164ERGO    R115022  17.919   6.093   6.899  0.5173 -0.3274 -0.0887
 1164ERGO    R215023  17.706   5.997   7.047  0.4441  0.2652  0.2202
 1164ERGO    R315024  17.891   5.822   7.140  0.1268 -0.2020  0.0145
 1164ERGO    R415025  17.701   5.854   7.361  0.4395  0.2907  0.2315
 1164ERGO    R515026  17.917   5.881   7.371  0.5342 -0.2459 -0.0123
 1164ERGO    C115027  17.872   5.606   7.632  0.1391 -0.1330  0.0450
 1164ERGO    C215028  17.898   5.522   7.969  0.1544 -0.2308 -0.1723
 1165ERGO   ROH15029   0.919   2.770   5.938 -0.2472  0.0221  0.0709
 1165ERGO    R115030   0.849   2.837   6.204 -0.1554 -0.1070  0.1284
 1165ERGO    R215031   0.892   2.666   6.416  0.1772 -0.0993  0.0727
 1165ERGO    R315032   1.023   2.880   6.520 -0.0004  0.0345  0.0250
 1165ERGO    R415033   0.963   2.709   6.751  0.2781 -0.0401  0.0440
 1165ERGO    R515034   0.913   2.921   6.729  0.0471 -0.0899  0.0743
 1165ERGO    C115035   1.127   2.936   7.045  0.1702  0.1199 -0.0176
 1165ERGO    C215036   1.180   2.769   7.386 -0.0436  0.1052 -0.0541
 1166ERGO   ROH15037   4.885  12.314   6.208 -0.3209 -0.0041 -0.1172
 1166ERGO    R115038   4.771  12.202   6.441 -0.1045 -0.0052 -0.0096
 1166ERGO    R215039   4.924  12.118   6.656  0.0836  0.1724 -0.0699
 1166ERGO    R315040   4.760  12.284   6.795  0.0517  0.1073 -0.0299
 1166ERGO    R415041   4.898  12.126   7.000 -0.0823 -0.0673 -0.0744
 1166ERGO    R515042   4.682  12.150   6.979 -0.0661 -0.0068 -0.1614
 1166ERGO    C115043   4.729  12.286   7.332 -0.2090 -0.2679 -0.0395
 1166ERGO    C215044   4.638  12.536   7.589  0.0912 -0.1546  0.0860
 1167ERGO   ROH15045  10.281  15.667   6.450  0.1584  0.4303 -0.1286
 1167ERGO    R115046  10.369  15.731   6.711  0.0638  0.5141 -0.1181
 1167ERGO    R215047  10.285  15.958   6.845 -0.3631  0.3127 -0.0366
 1167ERGO    R315048  10.214  15.780   7.037 -0.0001  0.1095 -0.0817
 1167ERGO    R415049  10.235  16.036   7.178 -0.5845  0.1490 -0.0282
 1167ERGO    R515050  10.335  15.850   7.231 -0.1742  0.3478 -0.0507
 1167ERGO    C115051  10.140  15.914   7.552 -0.3727 -0.1372 -0.0656
 1167ERGO    C215052  10.140  16.000   7.887 -0.3799 -0.2551 -0.1729
 1168ERGO   ROH15053   2.248   5.288   6.494 -0.0857  0.0205 -0.0174
 1168ERGO    R115054   2.196   5.138   6.729  0.0203 -0.1783 -0.1204
 1168ERGO    R215055   2.363   4.934   6.815  0.2839  0.0345 -0.1364
 1168ERGO    R315056   2.364   5.077   7.046 -0.0574 -0.0856 -0.0613
 1168ERGO    R415057   2.382   4.797   7.132  0.4551 -0.1181 -0.2097
 1168ERGO    R515058   2.236   4.945   7.199  0.1470 -0.4269 -0.1695
 1168ERGO    C115059   2.394   4.852   7.533  0.2344 -0.3196 -0.1819
 1168ERGO    C215060   2.368   4.779   7.718  0.0455 -0.2837 -0.0376
 1169ERGO   ROH15061  15.909  16.962   6.119  0.2626 -0.0097  0.0056
 1169ERGO    R115062  15.790  17.002   6.373  0.1718  0.1868 -0.0662
 1169ERGO    R215063  15.814  16.818   6.578 -0.2399  0.1511 -0.0444
 1169ERGO    R315064  15.905  17.034   6.716  0.0218  0.0149  0.0017
 1169ERGO    R415065  15.749  16.881   6.912 -0.2896  0.2357 -0.0690
 1169ERGO    R515066  15.725  17.092   6.863  0.0422  0.2777 -0.0732
 1169ERGO    C115067  15.798  17.120   7.236 -0.0729  0.1573 -0.0400
 1169ERGO    C215068  15.735  17.258   7.562  0.2145  0.1125 -0.0487
 1170ERGO   ROH15069   2.703  12.117   6.263  0.1327  0.0920  0.0715
 1170ERGO    R115070   2.737  12.224   6.522  0.0798  0.0057  0.1138
 1170ERGO    R215071   2.531  12.345   6.662  0.0489 -0.0591  0.1181
 1170ERGO    R315072   2.598  12.164   6.853  0.0286 -0.1167  0.0719
 1170ERGO    R415073   2.521  12.404   7.002  0.1385 -0.1091  0.1302
 1170ERGO    R515074   2.708  12.293   7.022  0.1092 -0.1780  0.0715
 1170ERGO    C115075   2.578  12.269   7.380  0.1717 -0.1923  0.0939
 1170ERGO    C215076   2.478  12.337   7.758 -0.3315 -0.1319  0.1809
 1171ERGO   ROH15077   6.236  10.871   6.528  0.0524 -0.0294  0.0308
 1171ERGO    R115078   6.218  10.746   6.781  0.0464 -0.0027  0.0437
 1171ERGO    R215079   6.403  10.790   6.982  0.0691 -0.0186  0.0276
 1171ERGO    R315080   6.182  10.854   7.127  0.0904  0.0368  0.0357
 1171ERGO    R415081   6.400  10.849   7.322  0.1067  0.0577  0.0149
 1171ERGO    R515082   6.212  10.740   7.335  0.0977  0.0808  0.0579
 1171ERGO    C115083   6.191  10.944   7.657  0.1487  0.1541  0.0150
 1171ERGO    C215084   6.157  11.018   7.995  0.1153 -0.0303 -0.0598
 1172ERGO   ROH15085  15.718  14.242   6.210 -0.1782 -0.1624 -0.0103
 1172ERGO    R115086  15.576  14.375   6.415 -0.0330 -0.1329  0.0702
 1172ERGO    R215087  15.671  14.392   6.675  0.2573  0.0966 -0.0520
 1172ERGO    R315088  15.636  14.659   6.635  0.0233  0.0507 -0.1744
 1172ERGO    R415089  15.655  14.629   6.926 -0.1614  0.1658 -0.1369
 1172ERGO    R515090  15.495  14.727   6.816 -0.1846 -0.0268 -0.2965
 1172ERGO    C115091  15.611  15.017   7.035 -0.6247  0.1633 -0.3012
 1172ERGO    C215092  15.818  15.270   7.173 -0.1598  0.0975  0.0957
 1173ERGO   ROH15093   7.878  12.329   6.613 -0.1098  0.1554  0.0739
 1173ERGO    R115094   7.786  12.435   6.858 -0.1205  0.0175  0.1295
 1173ERGO    R215095   7.543  12.365   6.969 -0.1211 -0.0476  0.0800
 1173ERGO    R315096   7.695  12.304   7.186 -0.1307 -0.1645  0.0557
 1173ERGO    R415097   7.429  12.358   7.295 -0.1675 -0.3356  0.0613
 1173ERGO    R515098   7.616  12.451   7.357 -0.2047 -0.3197  0.1590
 1173ERGO    C115099   7.506  12.297   7.688 -0.2035 -0.6130  0.0275
 1173ERGO    C215100   7.326  12.332   8.055  0.0730 -0.2572 -0.2185
 1174ERGO   ROH15101   3.548  10.646   6.545  0.2777  0.0409 -0.0142
 1174ERGO    R115102   3.425  10.769   6.768  0.1454 -0.0281 -0.0476
 1174ERGO    R215103   3.480  10.695   7.029  0.1421  0.0265 -0.0309
 1174ERGO    R315104   3.535  10.959   7.059 -0.0454  0.0669 -0.0360
 1174ERGO    R415105   3.368  10.892   7.290  0.0665 -0.0661  0.0072
 1174ERGO    R515106   3.333  11.053   7.147 -0.0914 -0.0856  0.0227
 1174ERGO    C115107   3.354  11.255   7.469 -0.1535 -0.0821  0.0246
 1174ERGO    C215108   3.204  11.545   7.587  0.1079  0.2838  0.1865
 1175ERGO   ROH15109  12.437   3.706   6.384 -0.0343 -0.0040 -0.0690
 1175ERGO    R115110  12.308   3.578   6.601 -0.0550  0.0427 -0.0562
 1175ERGO    R215111  12.432   3.538   6.845 -0.0017 -0.1054 -0.1149
 1175ERGO    R315112  12.213   3.667   6.941  0.1249  0.0331 -0.0008
 1175ERGO    R415113  12.357   3.575   7.180  0.1967 -0.0602 -0.0720
 1175ERGO    R515114  12.147   3.538   7.132  0.1427  0.0691  0.0345
 1175ERGO    C115115  12.108   3.718   7.466  0.4311  0.0961  0.0600
 1175ERGO    C215116  12.174   3.826   7.781  0.3985  0.0022  0.2201
 1176ERGO   ROH15117  13.099   7.609   6.722  0.1282 -0.2889  0.0100
 1176ERGO    R115118  13.114   7.551   6.998  0.0079 -0.1939  0.0369
 1176ERGO    R215119  13.222   7.728   7.181  0.0686 -0.1951 -0.0011
 1176ERGO    R315120  12.982   7.694   7.306  0.0089  0.0096 -0.0545
 1176ERGO    R415121  13.148   7.839   7.500  0.1500 -0.2674  0.0437
 1176ERGO    R515122  13.041   7.652   7.535 -0.0665 -0.1695 -0.0642
 1176ERGO    C115123  12.881   7.872   7.803  0.1414 -0.1175  0.0195
 1176ERGO    C215124  12.617   8.031   7.914  0.0995  0.1380  0.1831
 1177ERGO   ROH15125   9.399   9.307   6.537  0.1829 -0.0180  0.0128
 1177ERGO    R115126   9.299   9.272   6.799 -0.0255  0.0044 -0.0620
 1177ERGO    R215127   9.464   9.227   7.017 -0.2074 -0.1471  0.0456
 1177ERGO    R315128   9.331   9.441   7.120 -0.1330 -0.0743 -0.0084
 1177ERGO    R415129   9.464   9.316   7.350 -0.0045  0.0543 -0.0060
 1177ERGO    R515130   9.252   9.364   7.332 -0.0147  0.0576  0.0874
 1177ERGO    C115131   9.340   9.569   7.642  0.1835  0.2399 -0.0867
 1177ERGO    C215132   9.457   9.480   7.986  0.2768 -0.0932  0.0801
 1178ERGO   ROH15133  17.524   9.393   6.641 -0.2175  0.0080 -0.0581
 1178ERGO    R115134  17.691   9.536   6.821 -0.1149 -0.0010 -0.1437
 1178ERGO    R215135  17.600   9.750   6.969 -0.0199  0.0238 -0.1115
 1178ERGO    R315136  17.696   9.605   7.178  0.0571  0.0193 -0.1508
 1178ERGO    R415137  17.655   9.874   7.287 -0.2269 -0.0773 -0.0353
 1178ERGO    R515138  17.838   9.757   7.296 -0.1219  0.0955 -0.0370
 1178ERGO    C115139  17.776   9.810   7.668 -0.2750 -0.1405 -0.0277
 1178ERGO    C215140  17.757   9.963   8.002  0.1509 -0.0908  0.0009
 1179ERGO   ROH15141  13.302  13.396   6.275  0.0058 -0.0687 -0.0809
 1179ERGO    R115142  13.305  13.251   6.517  0.0156 -0.0765 -0.0868
 1179ERGO    R215143  13.510  13.271   6.701 -0.0279 -0.0080 -0.0526
 1179ERGO    R315144  13.307  13.329   6.873 -0.0776 -0.0922 -0.0809
 1179ERGO    R415145  13.525  13.233   7.044  0.0745  0.3229 -0.0160
 1179ERGO    R515146  13.321  13.158   7.040  0.1565  0.0685  0.0771
 1179ERGO    C115147  13.344  13.265   7.405  0.0877  0.4365 -0.0212
 1179ERGO    C215148  13.442  13.132   7.674 -0.2138 -0.0608 -0.0097
 1180ERGO   ROH15149   8.472   1.075   6.524 -0.1189  0.2388 -0.0126
 1180ERGO    R115150   8.549   0.899   6.732  0.0277  0.2177 -0.0819
 1180ERGO    R215151   8.808   0.885   6.828  0.0693  0.3199 -0.1545
 1180ERGO    R315152   8.687   0.929   7.067  0.1051  0.1994 -0.1149
 1180ERGO    R415153   8.973   0.908   7.130  0.0970  0.1951 -0.1602
 1180ERGO    R515154   8.811   0.794   7.222  0.1285  0.1459 -0.1917
 1180ERGO    C115155   8.955   0.963   7.532  0.1468  0.0093 -0.1264
 1180ERGO    C215156   9.217   1.018   7.767  0.1489 -0.2176  0.2218
 1181ERGO   ROH15157   5.245  13.092   6.037  0.0994  0.0321 -0.0433
 1181ERGO    R115158   5.203  13.182   6.302  0.0143 -0.0197 -0.0392
 1181ERGO    R215159   5.036  13.051   6.479  0.0060 -0.0888 -0.0997
 1181ERGO    R315160   5.257  13.052   6.638 -0.0322 -0.0578 -0.0460
 1181ERGO    R415161   5.031  13.025   6.823 -0.0772 -0.0664 -0.0987
 1181ERGO    R515162   5.189  13.175   6.832 -0.0922 -0.0504 -0.0701
 1181ERGO    C115163   5.236  13.011   7.173 -0.1615 -0.0244 -0.0477
 1181ERGO    C215164   5.394  12.921   7.508 -0.0839 -0.1775  0.0332
 1182ERGO   ROH15165   9.560   6.051   6.532 -0.1901 -0.3603  0.1542
 1182ERGO    R115166   9.622   6.165   6.784 -0.0111 -0.2526  0.0639
 1182ERGO    R215167   9.442   6.170   6.994  0.0723 -0.0042  0.1382
 1182ERGO    R315168   9.645   6.049   7.128  0.0442 -0.0675  0.1223
 1182ERGO    R415169   9.449   6.115   7.335  0.0322 -0.1283  0.1194
 1182ERGO    R515170   9.660   6.169   7.334  0.0317 -0.1465  0.1653
 1182ERGO    C115171   9.644   5.970   7.659 -0.0173 -0.2598  0.0934
 1182ERGO    C215172   9.832   5.848   7.901 -0.0677 -0.3186 -0.0179
 1183ERGO   ROH15173   6.062   1.406   6.408 -0.2855 -0.1421  0.0918
 1183ERGO    R115174   6.055   1.332   6.681 -0.2671 -0.1259  0.0966
 1183ERGO    R215175   6.285   1.299   6.832 -0.2571 -0.1232  0.0808
 1183ERGO    R315176   6.162   1.476   6.997 -0.2396 -0.1106  0.0805
 1183ERGO    R415177   6.274   1.273   7.177 -0.1941 -0.0826  0.0861
 1183ERGO    R515178   6.067   1.341   7.170 -0.2004 -0.0966  0.1141
 1183ERGO    C115179   6.152   1.425   7.532 -0.1409 -0.0471  0.0889
 1183ERGO    C215180   6.323   1.415   7.739 -0.2878 -0.1832  0.0973
 1184ERGO   ROH15181  13.460   5.785   6.469 -0.0623  0.2027 -0.0808
 1184ERGO    R115182  13.431   5.717   6.742 -0.1007  0.2413 -0.0750
 1184ERGO    R215183  13.642   5.623   6.895 -0.1976 -0.0667 -0.1226
 1184ERGO    R315184  13.572   5.829   7.059  0.1354  0.0380 -0.1047
 1184ERGO    R415185  13.735   5.654   7.227 -0.1565 -0.2549 -0.1158
 1184ERGO    R515186  13.535   5.727   7.272 -0.0430  0.0741 -0.1167
 1184ERGO    C115187  13.724   5.865   7.573  0.1802 -0.2662 -0.0950
 1184ERGO    C215188  13.725   5.907   7.987 -0.1185  0.0692 -0.1572
 1185ERGO   ROH15189   4.004   3.441   6.600  0.0349 -0.0549  0.0222
 1185ERGO    R115190   3.846   3.502   6.827  0.0662  0.0466  0.0170
 1185ERGO    R215191   3.829   3.335   7.046 -0.0423  0.0606  0.0192
 1185ERGO    R315192   3.904   3.558   7.182  0.0915  0.0180  0.0177
 1185ERGO    R415193   3.852   3.358   7.390 -0.2228  0.1037  0.0294
 1185ERGO    R515194   3.766   3.558   7.378 -0.0267  0.1871 -0.0623
 1185ERGO    C115195   3.936   3.582   7.718 -0.2023  0.0890  0.0340
 1185ERGO    C215196   3.977   3.552   8.072 -0.1419 -0.0790 -0.0352
 1186ERGO   ROH15197   2.160   8.781   6.292 -0.0345  0.0916 -0.0509
 1186ERGO    R115198   2.165   8.902   6.548  0.0087  0.0759 -0.0449
 1186ERGO    R215199   1.942   8.916   6.710 -0.0024  0.2096 -0.0749
 1186ERGO    R315200   2.106   8.796   6.891 -0.1029  0.0980 -0.0564
 1186ERGO    R415201   1.890   8.912   7.052 -0.0893  0.1779 -0.0880
 1186ERGO    R515202   2.104   8.943   7.080 -0.0777  0.0694 -0.0313
 1186ERGO    C115203   2.013   8.797   7.420 -0.2344  0.0546 -0.0782
 1186ERGO    C215204   2.061   8.892   7.677 -0.2092 -0.3467 -0.0601
 1187ERGO   ROH15205   1.862   6.471   6.261  0.1192  0.2813  0.1680
 1187ERGO    R115206   1.819   6.453   6.541 -0.1078  0.0283  0.1225
 1187ERGO    R215207   1.675   6.247   6.656  0.0395 -0.2436 -0.1483
 1187ERGO    R315208   1.900   6.217   6.806 -0.0475 -0.0652  0.0196
 1187ERGO    R415209   1.687   6.102   6.970 -0.0907 -0.0990 -0.0767
 1187ERGO    R515210   1.828   6.256   7.031 -0.2136 -0.0052 -0.0477
 1187ERGO    C115211   1.904   5.990   7.293 -0.2482  0.1527  0.1226
 1187ERGO    C215212   2.008   5.777   7.435 -0.2400 -0.0248  0.0633
 1188ERGO   ROH15213  10.176   8.759   6.734 -0.0540  0.1219 -0.0578
 1188ERGO    R115214  10.209   8.830   7.006  0.1554  0.1993 -0.1020
 1188ERGO    R215215  10.112   8.676   7.213 -0.1138  0.4991  0.0013
 1188ERGO    R315216  10.369   8.687   7.299 -0.0622  0.0217 -0.0672
 1188ERGO    R415217  10.214   8.619   7.538 -0.1417  0.3815 -0.0100
 1188ERGO    R515218  10.355   8.784   7.518  0.1785  0.1090 -0.0871
 1188ERGO    C115219  10.516   8.596   7.808 -0.1093 -0.1352 -0.0808
 1188ERGO    C215220  10.625   8.566   8.197  0.0277 -0.0908 -0.0870
 1189ERGO   ROH15221   7.540   7.635   6.325 -0.1130  0.1262 -0.0557
 1189ERGO    R115222   7.624   7.710   6.585 -0.0860  0.2257 -0.0919
 1189ERGO    R215223   7.449   7.726   6.799 -0.0413  0.1753 -0.0480
 1189ERGO    R315224   7.628   7.558   6.916  0.0809  0.2948 -0.0617
 1189ERGO    R415225   7.472   7.667   7.139  0.0198  0.1835 -0.0514
 1189ERGO    R515226   7.689   7.667   7.119  0.0178  0.3319 -0.0638
 1189ERGO    C115227   7.653   7.474   7.446  0.1701  0.3004 -0.0662
 1189ERGO    C215228   7.582   7.249   7.608  0.1285 -0.0777 -0.0692
 1190ERGO   ROH15229   1.533  14.477   5.810 -0.0231 -0.2212  0.0319
 1190ERGO    R115230   1.454  14.370   6.060  0.2174 -0.2185  0.1132
 1190ERGO    R215231   1.630  14.334   6.269  0.3375  0.1908  0.0959
 1190ERGO    R315232   1.447  14.482   6.406  0.1207 -0.0312  0.0506
 1190ERGO    R415233   1.631  14.382   6.612  0.2188  0.2398  0.0890
 1190ERGO    R515234   1.414  14.361   6.610  0.2475 -0.0463  0.0592
 1190ERGO    C115235   1.459  14.548   6.939 -0.0538  0.0600  0.0424
 1190ERGO    C215236   1.620  14.489   7.271 -0.0462  0.1476  0.1166
 1191ERGO   ROH15237   0.543  14.626   6.153 -0.0754  0.1561 -0.0801
 1191ERGO    R115238   0.618  14.803   6.361  0.1067  0.0542 -0.0575
 1191ERGO    R215239   0.434  14.925   6.527  0.2305  0.2234 -0.0425
 1191ERGO    R315240   0.585  14.814   6.723  0.1183  0.0426 -0.0559
 1191ERGO    R415241   0.465  15.050   6.847  0.2512  0.0765  0.0139
 1191ERGO    R515242   0.677  15.001   6.841  0.2212 -0.0636  0.0368
 1191ERGO    C115243   0.625  15.019   7.218  0.1579 -0.1789  0.0342
 1191ERGO    C215244   0.717  15.086   7.603 -0.3115 -0.1049 -0.2940
 1192ERGO   ROH15245   0.962  13.502   6.258  0.0536  0.1071  0.0821
 1192ERGO    R115246   0.975  13.449   6.536 -0.0843  0.2639  0.1188
 1192ERGO    R215247   1.190  13.320   6.653 -0.2960  0.0239  0.2417
 1192ERGO    R315248   1.193  13.541   6.812 -0.0080  0.1238  0.1084
 1192ERGO    R415249   1.387  13.358   6.934 -0.1642 -0.0260  0.1583
 1192ERGO    R515250   1.218  13.453   7.034 -0.0375  0.2232  0.1561
 1192ERGO    C115251   1.504  13.587   7.248  0.1829  0.0386 -0.0153
 1192ERGO    C215252   1.591  13.647   7.534  0.4544  0.0223 -0.0317
 1193ERGO   ROH15253   3.535  14.616   6.029 -0.1004  0.0686  0.0679
 1193ERGO    R115254   3.341  14.642   6.234 -0.0926 -0.1492  0.1055
 1193ERGO    R215255   3.269  14.431   6.397  0.2025 -0.2265  0.1480
 1193ERGO    R315256   3.333  14.606   6.596  0.0315 -0.1195  0.1106
 1193ERGO    R415257   3.168  14.401   6.726  0.0157 -0.0985  0.1040
 1193ERGO    R515258   3.135  14.617   6.731 -0.0484 -0.1104 -0.0121
 1193ERGO    C115259   3.169  14.547   7.104 -0.2535  0.0767  0.0433
 1193ERGO    C215260   3.341  14.445   7.334  0.4046 -0.0017  0.1990
 1194ERGO   ROH15261   3.195   8.545   6.572  0.1212  0.0668  0.2366
 1194ERGO    R115262   3.217   8.611   6.847  0.0824 -0.1628  0.2979
 1194ERGO    R215263   3.047   8.790   6.971  0.3929  0.1523  0.2877
 1194ERGO    R315264   3.009   8.584   7.144 -0.2014  0.1127  0.1303
 1194ERGO    R415265   2.970   8.825   7.306  0.0895  0.0973  0.2260
 1194ERGO    R515266   3.105   8.660   7.349 -0.2744 -0.1982  0.2845
 1194ERGO    C115267   2.888   8.651   7.663 -0.6450  0.0280  0.0423
 1194ERGO    C215268   2.927   8.685   7.939 -0.1046 -0.1181 -0.1760
 1195ERGO   ROH15269   0.869   4.897   6.396  0.0306  0.2975 -0.0254
 1195ERGO    R115270   0.933   4.753   6.631  0.0524  0.2271 -0.0756
 1195ERGO    R215271   1.167   4.796   6.773 -0.0110  0.2949 -0.0008
 1195ERGO    R315272   0.995   4.831   6.981 -0.0805  0.1007 -0.0211
 1195ERGO    R415273   1.251   4.764   7.107 -0.0242  0.3278  0.0067
 1195ERGO    R515274   1.060   4.666   7.141  0.0599  0.1350 -0.0357
 1195ERGO    C115275   1.140   4.780   7.496 -0.0971  0.1647 -0.0080
 1195ERGO    C215276   1.185   4.774   7.890  0.2227  0.2662  0.1755
 1196ERGO   ROH15277   7.755   5.945   6.638 -0.2135  0.2619  0.0975
 1196ERGO    R115278   7.775   5.804   6.882 -0.1542  0.1699  0.0409
 1196ERGO    R215279   8.017   5.758   7.009 -0.1194  0.1159 -0.0365
 1196ERGO    R315280   7.892   5.876   7.220 -0.0655  0.0444  0.0357
 1196ERGO    R415281   8.065   5.672   7.340 -0.0386  0.0182 -0.0731
 1196ERGO    R515282   7.851   5.696   7.372 -0.0242  0.0027 -0.0092
 1196ERGO    C115283   7.977   5.732   7.730  0.0590 -0.1057 -0.0266
 1196ERGO    C215284   8.102   5.626   8.008  0.0041 -0.0229  0.1962
 1197ERGO   ROH15285  15.453   4.669   6.597 -0.0524 -0.1994  0.1196
 1197ERGO    R115286  15.412   4.792   6.848  0.0245 -0.1932  0.1284
 1197ERGO    R215287  15.466   4.665   7.088  0.1918 -0.1507  0.1109
 1197ERGO    R315288  15.618   4.885   7.134  0.1299 -0.0870  0.0207
 1197ERGO    R415289  15.566   4.773   7.400  0.3761 -0.1457  0.0522
 1197ERGO    R515290  15.528   4.978   7.336  0.2352 -0.1514  0.1014
 1197ERGO    C115291  15.767   5.042   7.626  0.4253 -0.0831 -0.0666
 1197ERGO    C215292  15.858   4.976   7.966  0.1103  0.0079  0.2802
 1198ERGO   ROH15293  15.498   1.864   6.116  0.1940 -0.2403  0.1608
 1198ERGO    R115294  15.271   1.852   6.285  0.1150 -0.0022  0.0762
 1198ERGO    R215295  15.180   1.616   6.396 -0.2070  0.0800  0.0060
 1198ERGO    R315296  15.202   1.755   6.628 -0.1237  0.0177  0.0350
 1198ERGO    R415297  15.018   1.536   6.691 -0.1768  0.0606  0.0164
 1198ERGO    R515298  14.983   1.748   6.723 -0.1069  0.0618  0.0733
 1198ERGO    C115299  14.945   1.620   7.081 -0.0811 -0.0092  0.0496
 1198ERGO    C215300  14.963   1.552   7.428  0.1805  0.0120 -0.3836
 1199ERGO   ROH15301   3.307   7.468   6.409  0.1109 -0.1118  0.0273
 1199ERGO    R115302   3.351   7.490   6.688  0.0401 -0.1645  0.0438
 1199ERGO    R215303   3.603   7.469   6.801  0.0300 -0.0780  0.0969
 1199ERGO    R315304   3.539   7.709   6.910 -0.1087 -0.1359  0.1387
 1199ERGO    R415305   3.722   7.588   7.103 -0.0835 -0.0682  0.1380
 1199ERGO    R515306   3.524   7.667   7.145 -0.1225 -0.1826  0.1233
 1199ERGO    C115307   3.732   7.883   7.380 -0.2797 -0.1169  0.2012
 1199ERGO    C215308   3.711   8.055   7.741 -0.2076  0.2862 -0.1406
 1200ERGO   ROH15309   7.804   9.301   6.600 -0.0505  0.0584  0.0046
 1200ERGO    R115310   7.864   9.330   6.875 -0.0296 -0.0434  0.0099
 1200ERGO    R215311   7.754   9.530   7.032 -0.0219 -0.1095  0.0906
 1200ERGO    R315312   7.680   9.321   7.189 -0.0013 -0.1679  0.0250
 1200ERGO    R415313   7.725   9.541   7.376 -0.4209 -0.0935  0.0622
 1200ERGO    R515314   7.814   9.343   7.386 -0.2370 -0.0142  0.1794
 1200ERGO    C115315   7.639   9.352   7.724 -0.6340 -0.1390 -0.0159
 1200ERGO    C215316   7.510   9.348   8.108  0.0555  0.1601 -0.3166
 1201ERGO   ROH15317   5.585  13.451   6.163  0.1794 -0.1287 -0.0111
 1201ERGO    R115318   5.656  13.260   6.359  0.1952 -0.0788  0.0324
 1201ERGO    R215319   5.813  13.040   6.301  0.2241 -0.0720  0.0849
 1201ERGO    R315320   5.964  13.135   6.507  0.2047 -0.0102  0.0708
 1201ERGO    R415321   6.089  12.879   6.434  0.0981 -0.1265  0.2855
 1201ERGO    R515322   6.022  12.939   6.633  0.0622  0.0438  0.2239
 1201ERGO    C115323   6.391  12.874   6.704  0.0065 -0.1001  0.3891
 1201ERGO    C215324   6.681  12.679   6.624 -0.1337 -0.1201  0.2522
 1202ERGO   ROH15325  16.644   2.940   6.204  0.0869  0.1606  0.0693
 1202ERGO    R115326  16.635   2.814   6.458 -0.0204  0.0674  0.0203
 1202ERGO    R215327  16.828   2.853   6.650 -0.0544 -0.0725  0.0859
 1202ERGO    R315328  16.615   2.920   6.805 -0.0707 -0.0567  0.0557
 1202ERGO    R415329  16.835   2.874   6.995 -0.0433  0.1432  0.0729
 1202ERGO    R515330  16.638   2.781   6.999 -0.0077  0.0715  0.1408
 1202ERGO    C115331  16.638   2.950   7.341 -0.0520  0.2837  0.0370
 1202ERGO    C215332  16.719   2.949   7.634 -0.0449 -0.1604 -0.1315
 1203ERGO   ROH15333   0.772  16.827   6.321 -0.1040  0.0137  0.0226
 1203ERGO    R115334   0.766  16.935   6.583 -0.0602  0.0175  0.0221
 1203ERGO    R215335   0.621  17.162   6.647  0.0852  0.1166  0.0057
 1203ERGO    R315336   0.514  17.000   6.837 -0.0467  0.1884 -0.0063
 1203ERGO    R415337   0.610  17.234   6.985  0.0670  0.1391  0.0003
 1203ERGO    R515338   0.658  17.025   7.026 -0.0646  0.1105  0.0189
 1203ERGO    C115339   0.502  17.123   7.360 -0.0675  0.2196 -0.0140
 1203ERGO    C215340   0.451  17.219   7.638 -0.1189 -0.0876 -0.0882
 1204ERGO   ROH15341  10.379   5.506   6.600 -0.0703 -0.2285  0.1006
 1204ERGO    R115342  10.331   5.368   6.843  0.0240 -0.2018  0.1344
 1204ERGO    R215343  10.536   5.277   7.005  0.0861 -0.0537  0.1376
 1204ERGO    R315344  10.405   5.420   7.196  0.0224 -0.0846  0.1188
 1204ERGO    R415345  10.628   5.291   7.338  0.3012  0.3162  0.0684
 1204ERGO    R515346  10.416   5.281   7.391  0.3439  0.0696  0.2187
 1204ERGO    C115347  10.558   5.433   7.711  0.3666  0.5025  0.0104
 1204ERGO    C215348  10.569   5.451   8.001  0.1143  0.1267 -0.1560
 1205ERGO   ROH15349   3.654   4.535   6.759  0.1440  0.1050  0.0491
 1205ERGO    R115350   3.759   4.510   7.020  0.1224  0.0976  0.0570
 1205ERGO    R215351   3.721   4.703   7.215 -0.1203 -0.0315  0.1390
 1205ERGO    R315352   3.626   4.492   7.358  0.0775 -0.2010  0.0267
 1205ERGO    R415353   3.813   4.627   7.540 -0.0866 -0.0836  0.1174
 1205ERGO    R515354   3.815   4.416   7.485  0.1432 -0.0612  0.0183
 1205ERGO    C115355   3.777   4.385   7.863  0.1187 -0.2731 -0.0005
 1205ERGO    C215356   3.803   4.456   8.120  0.0082 -0.0835  0.0536
 1206ERGO   ROH15357  17.697  16.253   7.966  0.0900 -0.0226 -0.2344
 1206ERGO    R115358  17.414  16.264   7.975  0.0941 -0.0315 -0.0332
 1206ERGO    R215359  17.254  16.109   7.812 -0.0138  0.1265 -0.0801
 1206ERGO    R315360  17.143  16.033   8.048  0.1454 -0.1057 -0.0758
 1206ERGO    R415361  16.979  15.902   7.843 -0.0086  0.1166 -0.0997
 1206ERGO    R515362  16.907  16.030   8.004  0.1134 -0.0399  0.0843
 1206ERGO    C115363  16.714  15.711   8.084  0.1439 -0.1072 -0.1072
 1206ERGO    C215364  16.496  15.644   8.010  0.0870 -0.0748  0.1122
 1207ERGO   ROH15365  17.659   1.971   6.005 -0.0024  0.0837  0.0327
 1207ERGO    R115366  17.652   2.052   6.276 -0.3073 -0.1645  0.1053
 1207ERGO    R215367  17.620   1.873   6.483  0.1534 -0.4540 -0.0515
 1207ERGO    R315368  17.848   1.990   6.576 -0.1874  0.1355  0.0901
 1207ERGO    R415369  17.749   1.829   6.801  0.2864 -0.4400 -0.1033
 1207ERGO    R515370  17.798   2.042   6.805 -0.3551 -0.2798  0.1509
 1207ERGO    C115371  18.037   1.913   7.073  0.0441  0.1215 -0.0007
 1207ERGO    C215372  18.100   1.743   7.453  0.2235  0.0617  0.4597
 1208ERGO   ROH15373   0.588   1.548   6.238 -0.1144  0.1310  0.0204
 1208ERGO    R115374   0.547   1.466   6.506  0.0636 -0.2016 -0.0485
 1208ERGO    R215375   0.695   1.265   6.625  0.5168  0.0094 -0.2323
 1208ERGO    R315376   0.744   1.455   6.812  0.0967 -0.0372 -0.0625
 1208ERGO    R415377   0.779   1.200   6.954  0.4245 -0.0912 -0.2274
 1208ERGO    R515378   0.650   1.366   7.014  0.1159 -0.3375 -0.1804
 1208ERGO    C115379   0.874   1.342   7.321 -0.0236 -0.1937 -0.0652
 1208ERGO    C215380   0.966   1.225   7.659 -0.3405  0.1340 -0.2370
 1209ERGO   ROH15381  16.312   8.857   6.550 -0.3513  0.0795 -0.1260
 1209ERGO    R115382  16.272   8.785   6.820 -0.5610  0.0667 -0.1583
 1209ERGO    R215383  16.444   8.863   7.022 -0.3279 -0.5001 -0.1171
 1209ERGO    R315384  16.217   8.959   7.135 -0.0774  0.1015 -0.0844
 1209ERGO    R415385  16.374   8.858   7.360 -0.4007 -0.5589 -0.1329
 1209ERGO    R515386  16.169   8.805   7.312 -0.5697  0.0911 -0.2136
 1209ERGO    C115387  16.120   8.945   7.663 -0.2079 -0.0282 -0.1115
 1209ERGO    C215388  16.157   9.044   8.056 -0.0165 -0.2720 -0.0496
 1210ERGO   ROH15389   6.236   7.758   6.080  0.0753 -0.0291 -0.0659
 1210ERGO    R115390   6.105   7.616   6.288  0.0777 -0.1076 -0.1144
 1210ERGO    R215391   6.215   7.394   6.409  0.1514 -0.0713 -0.0891
 1210ERGO    R315392   6.172   7.536   6.636  0.0149 -0.0947 -0.1024
 1210ERGO    R415393   6.177   7.257   6.724  0.0069 -0.0806 -0.1121
 1210ERGO    R515394   6.019   7.402   6.763 -0.0256 -0.1125 -0.1848
 1210ERGO    C115395   6.114   7.311   7.121 -0.2054 -0.1080 -0.1379
 1210ERGO    C215396   6.071   7.136   7.353  0.1007  0.2548  0.2367
 1211ERGO   ROH15397   6.722   6.650   6.117 -0.0040 -0.0884  0.0189
 1211ERGO    R115398   6.584   6.627   6.364 -0.0060 -0.1680  0.0107
 1211ERGO    R215399   6.558   6.387   6.498  0.1746 -0.1743  0.0376
 1211ERGO    R315400   6.666   6.527   6.704  0.0476 -0.0619  0.0292
 1211ERGO    R415401   6.549   6.289   6.829  0.3327 -0.2035  0.0345
 1211ERGO    R515402   6.511   6.497   6.884  0.1060 -0.2465  0.0503
 1211ERGO    C115403   6.644   6.364   7.216  0.3056 -0.1150  0.0247
 1211ERGO    C215404   6.763   6.153   7.523 -0.1030 -0.0118  0.2265
 1212ERGO   ROH15405  15.672   0.534   6.189  0.1132 -0.0361  0.1392
 1212ERGO    R115406  15.625   0.453   6.456  0.1511  0.0113  0.1580
 1212ERGO    R215407  15.710   0.600   6.673  0.0767  0.1034  0.1107
 1212ERGO    R315408  15.448   0.584   6.746  0.0855 -0.0041  0.1292
 1212ERGO    R415409  15.592   0.657   6.993  0.0885  0.1082  0.1160
 1212ERGO    R515410  15.455   0.488   6.966  0.1565  0.0314  0.1521
 1212ERGO    C115411  15.278   0.676   7.248  0.1037  0.0102  0.1364
 1212ERGO    C215412  15.244   0.713   7.617  0.0005  0.1664  0.2504
 1213ERGO   ROH15413   8.357   9.271   6.618 -0.0751 -0.2167 -0.0335
 1213ERGO    R115414   8.402   9.381   6.875  0.0215 -0.0476 -0.1194
 1213ERGO    R215415   8.245   9.581   6.981  0.0273 -0.0075 -0.1688
 1213ERGO    R315416   8.218   9.406   7.188  0.1555  0.1074 -0.0541
 1213ERGO    R415417   8.168   9.670   7.307 -0.2237  0.1225 -0.2611
 1213ERGO    R515418   8.312   9.521   7.376 -0.0714  0.3533 -0.0919
 1213ERGO    C115419   8.099   9.557   7.690 -0.2495  0.3060 -0.2072
 1213ERGO    C215420   8.094   9.557   8.074 -0.1191 -0.0718 -0.1532
 1214ERGO   ROH15421   9.397   7.125   6.455 -0.0739  0.1064  0.0034
 1214ERGO    R115422   9.353   6.918   6.643 -0.0708  0.1145  0.0126
 1214ERGO    R215423   9.560   6.775   6.757 -0.0780 -0.0076 -0.1282
 1214ERGO    R315424   9.443   6.853   6.990  0.1082  0.0359 -0.0465
 1214ERGO    R415425   9.585   6.606   7.058 -0.1952 -0.1993 -0.2244
 1214ERGO    R515426   9.375   6.648   7.093 -0.1315  0.0691 -0.1292
 1214ERGO    C115427   9.490   6.580   7.451 -0.0885 -0.2701 -0.2038
 1214ERGO    C215428   9.682   6.517   7.672  0.0160  0.0161  0.2392
 1215ERGO   ROH15429   6.234   3.691   6.376  0.0278  0.0156  0.0748
 1215ERGO    R115430   6.171   3.473   6.544  0.0251  0.0816  0.1596
 1215ERGO    R215431   6.324   3.243   6.554 -0.1740 -0.0615 -0.0159
 1215ERGO    R315432   6.331   3.297   6.820  0.1947 -0.0535 -0.0216
 1215ERGO    R415433   6.318   3.004   6.803 -0.2933 -0.0413  0.0011
 1215ERGO    R515434   6.184   3.134   6.917  0.0305  0.1834  0.1400
 1215ERGO    C115435   6.320   2.916   7.199 -0.0166 -0.0220  0.0058
 1215ERGO    C215436   6.456   2.613   7.403  0.1119 -0.0241  0.2819
 1216ERGO   ROH15437   7.725  14.331   6.322 -0.1644 -0.3047 -0.0542
 1216ERGO    R115438   7.782  14.434   6.579 -0.0551 -0.0738 -0.1698
 1216ERGO    R215439   7.590  14.553   6.738 -0.0269 -0.1117 -0.1214
 1216ERGO    R315440   7.674  14.369   6.921  0.2476  0.0899 -0.0353
 1216ERGO    R415441   7.550  14.581   7.081 -0.2023 -0.0572 -0.1446
 1216ERGO    R515442   7.750  14.500   7.106 -0.0475  0.3063 -0.0490
 1216ERGO    C115443   7.605  14.426   7.451 -0.0467  0.1638 -0.0772
 1216ERGO    C215444   7.560  14.321   7.797  0.2378  0.1974 -0.1578
 1217ERGO   ROH15445  13.118   0.368   6.467 -0.2262 -0.0092  0.0145
 1217ERGO    R115446  13.224   0.485   6.702 -0.2208  0.1125 -0.0489
 1217ERGO    R215447  13.076   0.514   6.933 -0.1575  0.0634 -0.0070
 1217ERGO    R315448  13.284   0.380   7.045 -0.0276  0.2290 -0.0446
 1217ERGO    R415449  13.153   0.516   7.270 -0.2931 -0.1200  0.0272
 1217ERGO    R515450  13.364   0.528   7.217 -0.2799  0.1936  0.1129
 1217ERGO    C115451  13.393   0.391   7.572 -0.2500 -0.0714  0.0119
 1217ERGO    C215452  13.640   0.330   7.818  0.0382 -0.2518  0.3284
 1218ERGO   ROH15453  16.720   0.053   6.293 -0.0367 -0.1264  0.2102
 1218ERGO    R115454  16.573   0.157   6.511 -0.1168 -0.2608  0.2232
 1218ERGO    R215455  16.568   0.035   6.760  0.2327 -0.1288  0.3072
 1218ERGO    R315456  16.647   0.281   6.845 -0.1598  0.0740  0.1109
 1218ERGO    R415457  16.519   0.159   7.078  0.1672 -0.0042  0.2480
 1218ERGO    R515458  16.472   0.353   6.991 -0.2188 -0.1409  0.1444
 1218ERGO    C115459  16.565   0.462   7.344 -0.2396  0.2586  0.0293
 1218ERGO    C215460  16.517   0.711   7.650 -0.2811 -0.1557 -0.0679
 1219ERGO   ROH15461  17.197   4.449   6.140  0.2099  0.3321  0.0913
 1219ERGO    R115462  17.017   4.436   6.358  0.1643  0.2347  0.0503
 1219ERGO    R215463  16.989   4.210   6.515  0.0755  0.1361 -0.0990
 1219ERGO    R315464  17.042   4.383   6.718  0.0848 -0.0074  0.0204
 1219ERGO    R415465  16.939   4.142   6.850 -0.2150  0.0189 -0.1637
 1219ERGO    R515466  16.865   4.345   6.875 -0.0559  0.0693 -0.1196
 1219ERGO    C115467  16.960   4.264   7.236 -0.3754 -0.1840 -0.0892
 1219ERGO    C215468  17.010   4.338   7.594 -0.2251 -0.3074 -0.1326
 1220ERGO   ROH15469   5.713   1.628   6.593  0.2173  0.1083  0.1134
 1220ERGO    R115470   5.833   1.751   6.818  0.0366  0.2170  0.1518
 1220ERGO    R215471   5.685   1.870   7.019 -0.1384  0.0196  0.1408
 1220ERGO    R315472   5.827   1.703   7.179  0.0269  0.1619  0.1454
 1220ERGO    R415473   5.756   1.930   7.351 -0.4953 -0.0481  0.2341
 1220ERGO    R515474   5.956   1.850   7.317 -0.3240  0.3095  0.3331
 1220ERGO    C115475   5.932   1.808   7.696 -0.5478  0.0461  0.2926
 1220ERGO    C215476   5.846   1.613   7.952 -0.0544  0.2152  0.0893
 1221ERGO   ROH15477   4.929   4.476   6.557 -0.3041 -0.0892  0.0101
 1221ERGO    R115478   5.087   4.496   6.791 -0.1656 -0.0731 -0.0823
 1221ERGO    R215479   4.999   4.627   7.018  0.0405  0.1042 -0.0978
 1221ERGO    R315480   5.060   4.391   7.138 -0.0558  0.1236 -0.0128
 1221ERGO    R415481   5.076   4.591   7.353 -0.1614  0.1665 -0.0451
 1221ERGO    R515482   5.231   4.448   7.297 -0.1438  0.1382  0.0763
 1221ERGO    C115483   5.177   4.349   7.661 -0.3693  0.2210  0.0654
 1221ERGO    C215484   5.278   4.397   7.988  0.2831 -0.3075  0.3347
 1222ERGO   ROH15485  16.792   7.993   6.587 -0.0133 -0.3073 -0.0591
 1222ERGO    R115486  16.721   7.845   6.817  0.0197 -0.0792  0.1015
 1222ERGO    R215487  16.699   7.959   7.067 -0.2069  0.2278 -0.0540
 1222ERGO    R315488  16.451   7.849   7.061 -0.1015 -0.0171 -0.0310
 1222ERGO    R415489  16.497   7.914   7.344 -0.2926  0.4056 -0.0861
 1222ERGO    R515490  16.439   7.720   7.263 -0.0706  0.2361  0.1391
 1222ERGO    C115491  16.146   7.784   7.499 -0.2435  0.2793 -0.0832
 1222ERGO    C215492  16.006   8.030   7.728 -0.0564  0.2109 -0.1019
 1223ERGO   ROH15493   9.411   5.494   6.547  0.1370 -0.0457  0.0932
 1223ERGO    R115494   9.547   5.576   6.782  0.0920 -0.0144  0.1081
 1223ERGO    R215495   9.416   5.690   6.997  0.0365 -0.0764  0.1071
 1223ERGO    R315496   9.537   5.491   7.136  0.0985 -0.0433  0.1015
 1223ERGO    R415497   9.439   5.675   7.341  0.0221 -0.0901  0.1076
 1223ERGO    R515498   9.643   5.601   7.319  0.0496 -0.0176  0.1147
 1223ERGO    C115499   9.567   5.478   7.672  0.0722 -0.0670  0.1027
 1223ERGO    C215500   9.581   5.396   8.042  0.3168 -0.3500 -0.1086
 1224ERGO   ROH15501   6.686   7.070   6.241  0.0530  0.1089 -0.0571
 1224ERGO    R115502   6.610   7.154   6.500  0.1186  0.1287 -0.0437
 1224ERGO    R215503   6.522   6.977   6.694 -0.1250  0.1754 -0.1061
 1224ERGO    R315504   6.720   7.092   6.841 -0.0014 -0.1059 -0.0453
 1224ERGO    R415505   6.519   7.010   7.038 -0.1552  0.1267 -0.1019
 1224ERGO    R515506   6.604   7.209   7.015  0.1138  0.0213 -0.0529
 1224ERGO    C115507   6.702   7.137   7.376 -0.0568 -0.1658 -0.0423
 1224ERGO    C215508   6.713   7.148   7.665 -0.0180 -0.3140 -0.1859
 1225ERGO   ROH15509  17.665  16.670   6.517  0.0471  0.1498  0.1246
 1225ERGO    R115510  17.652  16.462   6.708  0.1637  0.0275  0.0024
 1225ERGO    R215511  17.869  16.302   6.769  0.2779  0.1559 -0.0404
 1225ERGO    R315512  17.816  16.381   7.023  0.1559 -0.0247 -0.0088
 1225ERGO    R415513  18.047  16.202   7.048  0.2292  0.0801 -0.0372
 1225ERGO    R515514  17.858  16.186   7.156  0.2059 -0.0782 -0.1098
 1225ERGO    C115515  18.100  16.218   7.449  0.0865 -0.1336 -0.0055
 1225ERGO    C215516  18.145  16.152   7.722  0.1527 -0.0972  0.1713
 1226ERGO   ROH15517  13.034   5.556   6.489 -0.0688  0.1816  0.0824
 1226ERGO    R115518  13.025   5.508   6.768  0.0224  0.2043  0.0893
 1226ERGO    R215519  13.111   5.271   6.881 -0.0459  0.1708  0.0685
 1226ERGO    R315520  13.265   5.436   7.031  0.0962  0.1059 -0.0037
 1226ERGO    R415521  13.270   5.180   7.173 -0.1164  0.1555  0.1025
 1226ERGO    R515522  13.217   5.373   7.257  0.0463  0.2384  0.0242
 1226ERGO    C115523  13.508   5.282   7.485 -0.0241  0.0858  0.0546
 1226ERGO    C215524  13.824   5.391   7.764  0.0741 -0.0861  0.1674
 1227ERGO   ROH15525   8.731  15.140   6.174  0.0503  0.1967 -0.1115
 1227ERGO    R115526   8.595  15.059   6.410 -0.1048  0.1338 -0.2196
 1227ERGO    R215527   8.710  15.073   6.661 -0.1304 -0.2735 -0.1720
 1227ERGO    R315528   8.487  15.216   6.719  0.0442 -0.0318 -0.0826
 1227ERGO    R415529   8.555  15.080   6.969 -0.0853 -0.2136 -0.1515
 1227ERGO    R515530   8.363  15.075   6.867 -0.1045  0.0563 -0.1266
 1227ERGO    C115531   8.254  15.219   7.203  0.1049  0.0481 -0.0556
 1227ERGO    C215532   8.113  15.245   7.538 -0.0172  0.0679  0.0359
 1228ERGO   ROH15533  15.284   9.295   6.442 -0.2482 -0.0541 -0.1716
 1228ERGO    R115534  15.123   9.333   6.672 -0.3324  0.0151 -0.2410
 1228ERGO    R215535  14.855   9.265   6.679 -0.2380 -0.3768 -0.1888
 1228ERGO    R315536  14.931   9.122   6.898 -0.0456  0.0217  0.0161
 1228ERGO    R415537  14.655   9.201   6.953 -0.1478 -0.2506 -0.0924
 1228ERGO    R515538  14.827   9.235   7.081 -0.1827  0.1513 -0.1384
 1228ERGO    C115539  14.608   9.030   7.318  0.0855  0.1970  0.1562
 1228ERGO    C215540  14.564   8.907   7.598 -0.0139  0.0631  0.1350
 1229ERGO   ROH15541   7.598   1.328   6.638  0.1578  0.0593 -0.0596
 1229ERGO    R115542   7.735   1.197   6.848 -0.0546  0.0864  0.0976
 1229ERGO    R215543   7.873   1.334   7.044 -0.1305  0.1050  0.1312
 1229ERGO    R315544   7.716   1.189   7.211 -0.3154  0.2545  0.0924
 1229ERGO    R415545   7.913   1.318   7.387  0.0706 -0.2817  0.0968
 1229ERGO    R515546   7.867   1.105   7.377 -0.3582 -0.2000 -0.0776
 1229ERGO    C115547   7.788   1.172   7.744  0.0141 -0.3664  0.0403
 1229ERGO    C215548   7.762   1.361   7.989  0.1233 -0.1331 -0.0131
 1230ERGO   ROH15549  15.072   6.328   6.093  0.0887  0.1919  0.0598
 1230ERGO    R115550  14.988   6.257   6.354 -0.1480  0.2042 -0.0117
 1230ERGO    R215551  15.158   6.258   6.571 -0.2465 -0.1578  0.0706
 1230ERGO    R315552  14.968   6.419   6.679 -0.0519  0.0918  0.0518
 1230ERGO    R415553  15.117   6.314   6.910 -0.2494 -0.1658  0.0721
 1230ERGO    R515554  14.901   6.305   6.879 -0.2613  0.1420  0.0148
 1230ERGO    C115555  14.914   6.498   7.208 -0.0685  0.0639  0.0552
 1230ERGO    C215556  15.013   6.555   7.546 -0.0502 -0.2242 -0.1044
 1231ERGO   ROH15557  11.626   1.450   6.407 -0.0632 -0.1414 -0.1008
 1231ERGO    R115558  11.565   1.406   6.680 -0.0274 -0.1166 -0.0890
 1231ERGO    R215559  11.420   1.587   6.831  0.0258 -0.0855 -0.0771
 1231ERGO    R315560  11.263   1.370   6.881 -0.0019 -0.0578 -0.0389
 1231ERGO    R415561  11.242   1.536   7.123 -0.0849  0.0532 -0.1187
 1231ERGO    R515562  11.298   1.325   7.114 -0.0890  0.0450 -0.0039
 1231ERGO    C115563  10.991   1.303   7.340 -0.1751  0.1599 -0.1071
 1231ERGO    C215564  10.852   1.491   7.653 -0.1164  0.0052 -0.1223
 1232ERGO   ROH15565   1.628  10.824   7.725 -0.1635 -0.1608 -0.3186
 1232ERGO    R115566   1.492  10.959   7.934 -0.0088 -0.1186 -0.2460
 1232ERGO    R215567   1.375  11.207   7.899 -0.0855 -0.1601 -0.2283
 1232ERGO    R315568   1.155  11.080   7.995  0.0173 -0.1650  0.0126
 1232ERGO    R415569   1.126  11.357   8.085 -0.1201 -0.0357 -0.3720
 1232ERGO    R515570   1.118  11.179   8.210  0.0242  0.1258 -0.1096
 1232ERGO    C115571   0.773  11.326   8.283 -0.0436  0.0322 -0.2296
 1232ERGO    C215572   0.545  11.570   8.315  0.0906 -0.0267 -0.0938
 1233ERGO   ROH15573  12.980   6.034   6.470 -0.2264  0.2411 -0.1793
 1233ERGO    R115574  13.019   6.058   6.750 -0.3637  0.1609 -0.1532
 1233ERGO    R215575  12.862   5.924   6.933 -0.1876 -0.2255 -0.2792
 1233ERGO    R315576  13.102   5.836   7.025 -0.0513  0.1567 -0.2463
 1233ERGO    R415577  12.935   5.858   7.265 -0.2168 -0.3515 -0.2968
 1233ERGO    R515578  13.131   5.948   7.235 -0.3641  0.0530 -0.1396
 1233ERGO    C115579  13.202   5.737   7.544 -0.1059 -0.0660 -0.2762
 1233ERGO    C215580  13.283   5.533   7.819 -0.1730  0.1210  0.3575
 1234ERGO   ROH15581  12.087  15.603   6.518  0.1365 -0.1817  0.0754
 1234ERGO    R115582  12.052  15.791   6.727  0.1558 -0.1117  0.0172
 1234ERGO    R215583  11.919  15.729   6.962  0.0683  0.0025  0.0030
 1234ERGO    R315584  12.149  15.817   7.077  0.0760 -0.0604  0.0344
 1234ERGO    R415585  11.940  15.889   7.267  0.0722  0.0562 -0.0257
 1234ERGO    R515586  12.089  16.023   7.183  0.1367 -0.0192 -0.0188
 1234ERGO    C115587  12.168  16.064   7.553  0.0817  0.0283 -0.0129
 1234ERGO    C215588  12.413  16.073   7.841  0.1490  0.0199 -0.0955
 1235ERGO   ROH15589  10.597  14.400   6.530  0.0091 -0.0019  0.0230
 1235ERGO    R115590  10.584  14.469   6.804  0.0552  0.1640 -0.0153
 1235ERGO    R215591  10.586  14.731   6.892 -0.1652  0.2281 -0.1879
 1235ERGO    R315592  10.358  14.657   7.019 -0.0425  0.0831 -0.0472
 1235ERGO    R415593  10.495  14.830   7.210  0.0381  0.0398 -0.0685
 1235ERGO    R515594  10.422  14.628   7.247  0.1411 -0.0041 -0.1091
 1235ERGO    C115595  10.227  14.818   7.515  0.2717 -0.2059  0.1332
 1235ERGO    C215596   9.922  14.885   7.786  0.0504  0.3379  0.2899
 1236ERGO   ROH15597   5.123   6.244   6.452  0.0643  0.0307  0.0334
 1236ERGO    R115598   5.131   6.451   6.644  0.0927 -0.0712  0.1445
 1236ERGO    R215599   4.932   6.641   6.668  0.2589  0.1268  0.0429
 1236ERGO    R315600   4.928   6.558   6.926 -0.0741 -0.0067 -0.0007
 1236ERGO    R415601   4.873   6.846   6.940  0.2753  0.0502  0.1036
 1236ERGO    R515602   5.028   6.738   7.048  0.0437 -0.2002  0.1864
 1236ERGO    C115603   4.835   6.887   7.341 -0.0278 -0.1196  0.0979
 1236ERGO    C215604   4.673   6.818   7.626  0.1206  0.1335 -0.0508
 1237ERGO   ROH15605   0.673  13.960   6.467  0.1339 -0.0471 -0.0133
 1237ERGO    R115606   0.870  13.891   6.658 -0.0068 -0.1491  0.0983
 1237ERGO    R215607   1.061  14.070   6.745  0.1477 -0.2978  0.0708
 1237ERGO    R315608   0.967  14.003   6.991 -0.0159 -0.0667  0.0740
 1237ERGO    R415609   1.248  14.081   7.036  0.0880 -0.4290  0.1138
 1237ERGO    R515610   1.153  13.893   7.097 -0.1890 -0.2790  0.1690
 1237ERGO    C115611   1.267  14.024   7.436 -0.1002 -0.2883  0.1418
 1237ERGO    C215612   1.392  14.214   7.723 -0.1462 -0.2446  0.0547
 1238ERGO   ROH15613   7.138  11.913   6.312  0.1002  0.1090 -0.0262
 1238ERGO    R115614   7.224  11.859   6.576  0.1897  0.1356 -0.0511
 1238ERGO    R215615   7.342  12.050   6.736 -0.0151  0.2267 -0.0177
 1238ERGO    R315616   7.145  11.980   6.910  0.0847 -0.0463 -0.0062
 1238ERGO    R415617   7.385  12.009   7.077  0.0175  0.5767  0.0251
 1238ERGO    R515618   7.253  11.835   7.067  0.3651  0.2860  0.1284
 1238ERGO    C115619   7.224  11.920   7.438  0.1302  0.5243  0.0608
 1238ERGO    C215620   7.228  11.847   7.739 -0.0190  0.2601  0.0272
 1239ERGO   ROH15621   1.459   3.853   6.590  0.1817  0.1625 -0.0214
 1239ERGO    R115622   1.370   3.866   6.858  0.1700  0.1499 -0.0244
 1239ERGO    R215623   1.433   3.672   7.045  0.0747  0.0876 -0.0568
 1239ERGO    R315624   1.525   3.884   7.187  0.1572  0.0212 -0.0107
 1239ERGO    R415625   1.440   3.692   7.390  0.0987  0.0012 -0.0522
 1239ERGO    R515626   1.378   3.900   7.375  0.1714  0.0278  0.0004
 1239ERGO    C115627   1.531   3.903   7.724  0.1902 -0.1115 -0.0063
 1239ERGO    C215628   1.792   4.141   8.008 -0.0735  0.5886 -0.0889
 1240ERGO   ROH15629   7.304  11.003   6.234  0.3377  0.1480 -0.0980
 1240ERGO    R115630   7.239  10.985   6.509  0.1138  0.0181 -0.1574
 1240ERGO    R215631   7.348  10.793   6.676  0.0932  0.0339 -0.1283
 1240ERGO    R315632   7.417  11.009   6.826 -0.1703  0.0299  0.0059
 1240ERGO    R415633   7.451  10.779   7.005  0.3295 -0.0797 -0.2050
 1240ERGO    R515634   7.333  10.959   7.044  0.0489 -0.3008  0.0228
 1240ERGO    C115635   7.577  10.973   7.338  0.2197 -0.1496 -0.1236
 1240ERGO    C215636   7.660  10.950   7.638  0.2174  0.1504 -0.0464
 1241ERGO   ROH15637   7.825  17.223   7.714  0.0464 -0.0404 -0.3305
 1241ERGO    R115638   7.968  16.979   7.702 -0.0058 -0.0839 -0.1197
 1241ERGO    R215639   8.171  16.917   7.878  0.0355  0.0610 -0.1138
 1241ERGO    R315640   8.023  16.693   7.920  0.0019  0.1310  0.1659
 1241ERGO    R415641   8.295  16.618   8.000  0.1319 -0.0088 -0.3762
 1241ERGO    R515642   8.169  16.513   7.857 -0.2073  0.0611 -0.1366
 1241ERGO    C115643   8.229  16.234   8.110  0.1566  0.0161 -0.2663
 1241ERGO    C215644   8.225  15.847   8.149 -0.0356  0.1356  0.2399
 1242ERGO   ROH15645   8.393  12.713   6.577 -0.0215  0.2411 -0.1806
 1242ERGO    R115646   8.232  12.652   6.801 -0.0249  0.1106 -0.2176
 1242ERGO    R215647   8.334  12.536   7.030 -0.0227  0.0030 -0.2716
 1242ERGO    R315648   8.219  12.750   7.152 -0.0483 -0.0689 -0.1677
 1242ERGO    R415649   8.253  12.553   7.366 -0.0022 -0.1565 -0.2579
 1242ERGO    R515650   8.068  12.654   7.311 -0.0215 -0.1621 -0.1990
 1242ERGO    C115651   8.099  12.764   7.675 -0.0145 -0.3170 -0.1523
 1242ERGO    C215652   7.964  12.725   7.968  0.0206  0.3770  0.0893
 1243ERGO   ROH15653   5.030   0.789   6.217 -0.0045  0.1314 -0.0521
 1243ERGO    R115654   5.208   0.848   6.429  0.0859 -0.0533 -0.0758
 1243ERGO    R215655   5.123   0.943   6.674  0.2225  0.1200 -0.0962
 1243ERGO    R315656   5.263   0.730   6.769 -0.0512 -0.0449 -0.0494
 1243ERGO    R415657   5.202   0.892   7.006  0.3871  0.2429 -0.1150
 1243ERGO    R515658   5.399   0.822   6.944  0.2351 -0.1292 -0.2184
 1243ERGO    C115659   5.380   0.662   7.289  0.2261  0.1596 -0.0820
 1243ERGO    C215660   5.149   0.510   7.547 -0.1719 -0.2799 -0.0163
 1244ERGO   ROH15661  15.396  10.139   6.446  0.1063 -0.0780 -0.0821
 1244ERGO    R115662  15.387  10.255   6.705  0.4056 -0.1195 -0.0499
 1244ERGO    R215663  15.166  10.237   6.869  0.2708  0.5522 -0.1259
 1244ERGO    R315664  15.346  10.136   7.046 -0.0916 -0.1042 -0.0985
 1244ERGO    R415665  15.141  10.266   7.212  0.2273  0.4540 -0.1206
 1244ERGO    R515666  15.356  10.302   7.220  0.3541 -0.2115 -0.0127
 1244ERGO    C115667  15.295  10.189   7.579 -0.1382 -0.2195 -0.0918
 1244ERGO    C215668  15.381  10.123   7.921  0.3688 -0.3369  0.1726
 1245ERGO   ROH15669  16.580   3.412   6.258 -0.0758  0.1299  0.0123
 1245ERGO    R115670  16.525   3.313   6.518 -0.1359  0.0461 -0.0318
 1245ERGO    R215671  16.707   3.332   6.726 -0.1201 -0.1634 -0.0235
 1245ERGO    R315672  16.498   3.451   6.854 -0.0438 -0.0880  0.0316
 1245ERGO    R415673  16.642   3.306   7.064 -0.0879 -0.2081 -0.0207
 1245ERGO    R515674  16.430   3.290   7.017 -0.1023 -0.0911  0.0039
 1245ERGO    C115675  16.409   3.403   7.381  0.0025 -0.1634  0.0326
 1245ERGO    C215676  16.450   3.535   7.678 -0.0098  0.0392  0.0464
 1246ERGO   ROH15677   9.902   5.333   6.666  0.0606  0.0014 -0.0584
 1246ERGO    R115678   9.872   5.166   6.893  0.1357  0.0096 -0.0419
 1246ERGO    R215679  10.059   5.157   7.097  0.1006  0.1726 -0.0024
 1246ERGO    R315680   9.843   5.211   7.253  0.0289  0.0362 -0.0529
 1246ERGO    R415681  10.036   5.084   7.434  0.1287  0.2722  0.0209
 1246ERGO    R515682   9.829   5.024   7.401  0.1821  0.0723  0.0132
 1246ERGO    C115683   9.819   5.093   7.776  0.0777  0.2021 -0.0131
 1246ERGO    C215684   9.785   4.937   8.064  0.1283  0.0512 -0.1784
 1247ERGO   ROH15685  10.639  10.640   6.314  0.0519  0.0150 -0.1141
 1247ERGO    R115686  10.693  10.775   6.558  0.1198 -0.0052 -0.1174
 1247ERGO    R215687  10.512  10.783   6.766  0.0340  0.2732 -0.1982
 1247ERGO    R315688  10.721  10.684   6.909 -0.1555  0.0254 -0.0856
 1247ERGO    R415689  10.559  10.831   7.105  0.0660  0.4848 -0.2317
 1247ERGO    R515690  10.772  10.857   7.066  0.1253  0.0778 -0.2283
 1247ERGO    C115691  10.782  10.766   7.437 -0.0931  0.3754 -0.1456
 1247ERGO    C215692  10.900  10.804   7.788 -0.0454 -0.1215 -0.3246
 1248ERGO   ROH15693  15.418   8.735   6.623 -0.1763  0.1273 -0.0853
 1248ERGO    R115694  15.242   8.812   6.831 -0.1343  0.0109 -0.0054
 1248ERGO    R215695  15.180   8.646   7.043 -0.0618 -0.0951 -0.0645
 1248ERGO    R315696  15.264   8.858   7.191 -0.0490 -0.1524  0.0104
 1248ERGO    R415697  15.063   8.724   7.358 -0.0622 -0.1877 -0.0414
 1248ERGO    R515698  15.065   8.935   7.302 -0.0427 -0.1712  0.0308
 1248ERGO    C115699  15.073   8.969   7.681 -0.0504 -0.2955  0.0424
 1248ERGO    C215700  15.160   9.029   8.006 -0.1914  0.0224  0.0332
 1249ERGO   ROH15701  12.071   4.676   6.113  0.1007  0.1256 -0.0075
 1249ERGO    R115702  11.981   4.892   6.273  0.0997  0.0247  0.1301
 1249ERGO    R215703  11.868   5.120   6.165  0.0647  0.0788  0.2762
 1249ERGO    R315704  11.665   5.060   6.335  0.0913 -0.0414  0.2668
 1249ERGO    R415705  11.683   5.352   6.341  0.0314 -0.0439  0.4052
 1249ERGO    R515706  11.687   5.219   6.513  0.0728 -0.1230  0.3402
 1249ERGO    C115707  11.384   5.432   6.604  0.0369 -0.2282  0.4714
 1249ERGO    C215708  11.154   5.713   6.572  0.0915  0.2853  0.1804
 1250ERGO   ROH15709   4.520   5.993   6.319 -0.1926  0.1238 -0.1584
 1250ERGO    R115710   4.614   6.067   6.576 -0.0672 -0.0086 -0.1650
 1250ERGO    R215711   4.603   6.327   6.669  0.0875 -0.0358 -0.0733
 1250ERGO    R315712   4.472   6.212   6.877  0.1064 -0.0442 -0.0630
 1250ERGO    R415713   4.521   6.488   6.964 -0.0816  0.0234 -0.1503
 1250ERGO    R515714   4.575   6.307   7.072  0.0055  0.0909 -0.0705
 1250ERGO    C115715   4.351   6.474   7.331 -0.1623  0.0499 -0.1856
 1250ERGO    C215716   4.221   6.465   7.645  0.1085 -0.1140 -0.0136
 1251ERGO   ROH15717  15.070  11.196   6.473  0.0819  0.1707  0.0673
 1251ERGO    R115718  14.998  11.275   6.736  0.1680 -0.0208  0.1496
 1251ERGO    R215719  14.738  11.269   6.828  0.1557  0.1929  0.1295
 1251ERGO    R315720  14.846  11.118   7.027 -0.0289 -0.1504 -0.0206
 1251ERGO    R415721  14.622  11.260   7.153  0.1274 -0.0225  0.1156
 1251ERGO    R515722  14.829  11.257   7.221  0.1229 -0.3370  0.1289
 1251ERGO    C115723  14.656  11.113   7.530 -0.0624 -0.4701 -0.0334
 1251ERGO    C215724  14.634  10.909   7.819  0.0558 -0.0245 -0.1150
 1252ERGO   ROH15725  17.684  13.503   6.563  0.1453 -0.0103  0.1876
 1252ERGO    R115726  17.513  13.354   6.732  0.1020  0.0514  0.1985
 1252ERGO    R215727  17.554  13.088   6.788 -0.0146  0.0249  0.1579
 1252ERGO    R315728  17.542  13.173   7.046  0.0691 -0.0008  0.1731
 1252ERGO    R415729  17.411  12.911   7.049 -0.2521  0.1496  0.1144
 1252ERGO    R515730  17.328  13.098   7.124 -0.0340  0.2431  0.1404
 1252ERGO    C115731  17.316  12.888   7.442 -0.3117  0.1982  0.1034
 1252ERGO    C215732  17.092  12.843   7.697 -0.1465 -0.0954  0.0444
 1253ERGO   ROH15733  13.832   4.742   6.484 -0.1609  0.0644  0.2703
 1253ERGO    R115734  13.965   4.691   6.729 -0.0410 -0.0768  0.1781
 1253ERGO    R215735  13.830   4.620   6.959  0.0450  0.0402  0.2655
 1253ERGO    R315736  14.003   4.410   6.957 -0.1564 -0.1278  0.1354
 1253ERGO    R415737  13.964   4.473   7.242  0.4222  0.1757  0.1631
 1253ERGO    R515738  14.155   4.457   7.136  0.2231 -0.1022 -0.1795
 1253ERGO    C115739  14.204   4.189   7.404  0.4528  0.0970 -0.0186
 1253ERGO    C215740  14.205   3.935   7.778 -0.1221 -0.1470 -0.0975
 1254ERGO   ROH15741  13.860   6.503   6.309  0.0284  0.1120  0.0157
 1254ERGO    R115742  13.895   6.448   6.584  0.0556 -0.0881 -0.0249
 1254ERGO    R215743  14.054   6.604   6.748  0.0637 -0.1925  0.0825
 1254ERGO    R315744  13.828   6.618   6.899  0.0696 -0.3179  0.1013
 1254ERGO    R415745  14.043   6.695   7.081  0.0100 -0.0917  0.0523
 1254ERGO    R515746  13.894   6.539   7.115  0.1410 -0.1893  0.1184
 1254ERGO    C115747  13.824   6.762   7.416 -0.0156 -0.1507  0.0522
 1254ERGO    C215748  13.965   6.872   7.733  0.0058  0.0810  0.0204
 1255ERGO   ROH15749   0.176   8.709   6.488  0.0146 -0.0190  0.0224
 1255ERGO    R115750   0.189   8.746   6.768  0.0778  0.0002  0.0175
 1255ERGO    R215751   0.017   8.618   6.943  0.1133  0.0174  0.0654
 1255ERGO    R315752   0.248   8.536   7.060  0.1363  0.0193  0.0194
 1255ERGO    R415753   0.066   8.589   7.284  0.1587 -0.0443  0.0539
 1255ERGO    R515754   0.266   8.672   7.257  0.1462 -0.0175  0.0442
 1255ERGO    C115755   0.311   8.496   7.592  0.2067 -0.0785  0.0039
 1255ERGO    C215756   0.329   8.486   7.883  0.1641  0.2411 -0.2073
 1256ERGO   ROH15757   6.916   1.881   6.433 -0.1843 -0.1173  0.0618
 1256ERGO    R115758   6.985   1.938   6.702 -0.1299 -0.0850  0.0411
 1256ERGO    R215759   6.940   2.184   6.818 -0.0897 -0.0655  0.0149
 1256ERGO    R315760   6.809   2.037   7.004 -0.0660 -0.0297  0.0604
 1256ERGO    R415761   6.903   2.273   7.150  0.0419 -0.0524  0.0268
 1256ERGO    R515762   6.937   2.065   7.204  0.0068 -0.0603  0.0179
 1256ERGO    C115763   6.758   2.186   7.518  0.1407 -0.0112  0.0766
 1256ERGO    C215764   6.934   2.258   7.891 -0.1495  0.0242  0.2849
 1257ERGO   ROH15765  10.858  17.319   6.350 -0.1265  0.1992 -0.2006
 1257ERGO    R115766  10.937  17.497   6.555 -0.0256  0.0669 -0.1236
 1257ERGO    R215767  10.768  17.571   6.761  0.0201  0.0665 -0.0890
 1257ERGO    R315768  10.973  17.484   6.917 -0.0226 -0.1104 -0.1285
 1257ERGO    R415769  10.766  17.571   7.107  0.1531  0.2518 -0.0865
 1257ERGO    R515770  10.974  17.636   7.103  0.2398 -0.0094 -0.2057
 1257ERGO    C115771  10.957  17.490   7.455  0.1905  0.1934 -0.1221
 1257ERGO    C215772  10.776  17.585   7.823 -0.1210  0.1212 -0.0840
 1258ERGO   ROH15773  11.481   8.990   6.628  0.1574  0.1621 -0.0102
 1258ERGO    R115774  11.330   8.881   6.841  0.2094  0.0120 -0.0482
 1258ERGO    R215775  11.447   8.777   7.069  0.2556  0.1516 -0.0049
 1258ERGO    R315776  11.282   8.952   7.195  0.0278 -0.0146 -0.0670
 1258ERGO    R415777  11.453   8.845   7.408 -0.0109  0.0885  0.0141
 1258ERGO    R515778  11.235   8.849   7.406 -0.0135 -0.0975 -0.1176
 1258ERGO    C115779  11.301   9.049   7.723 -0.3799 -0.1046 -0.0332
 1258ERGO    C215780  11.396   9.109   8.072  0.0615 -0.0435 -0.1509
 1259ERGO   ROH15781  13.864   2.065   6.634  0.2084 -0.1868  0.0197
 1259ERGO    R115782  13.997   1.940   6.850  0.1182 -0.1723  0.0835
 1259ERGO    R215783  14.035   2.065   7.094 -0.0082 -0.1681  0.0969
 1259ERGO    R315784  13.914   1.842   7.191 -0.0301 -0.1783  0.0477
 1259ERGO    R415785  14.068   1.945   7.417  0.0999 -0.3119  0.0343
 1259ERGO    R515786  14.076   1.743   7.336  0.0115 -0.2846 -0.0617
 1259ERGO    C115787  13.973   1.666   7.695  0.1423 -0.4052 -0.0483
 1259ERGO    C215788  13.842   1.553   8.023 -0.0143 -0.0358  0.2923
 1260ERGO   ROH15789   6.534   8.047   6.298  0.2242  0.0111  0.0631
 1260ERGO    R115790   6.632   8.086   6.561  0.2037 -0.0952  0.0863
 1260ERGO    R215791   6.522   8.271   6.735  0.2470 -0.1059  0.1211
 1260ERGO    R315792   6.500   8.056   6.899  0.1507 -0.1416  0.0624
 1260ERGO    R415793   6.422   8.284   7.065  0.2422 -0.1476  0.1218
 1260ERGO    R515794   6.574   8.135   7.112  0.1799 -0.2270  0.0869
 1260ERGO    C115795   6.343   8.090   7.412  0.1491 -0.2055  0.0671
 1260ERGO    C215796   6.277   7.964   7.758  0.2703 -0.1134 -0.0269
 1261ERGO   ROH15797  11.969   6.379   6.255 -0.1954  0.0984 -0.0793
 1261ERGO    R115798  11.973   6.228   6.494 -0.1438  0.0339 -0.1199
 1261ERGO    R215799  12.033   6.340   6.740 -0.0021 -0.0483 -0.1113
 1261ERGO    R315800  11.795   6.230   6.812 -0.0103  0.0129 -0.0457
 1261ERGO    R415801  11.952   6.235   7.059  0.0490 -0.0323 -0.0932
 1261ERGO    R515802  11.853   6.062   6.972 -0.0175 -0.0016 -0.0646
 1261ERGO    C115803  11.681   6.071   7.312  0.0709  0.0345 -0.0211
 1261ERGO    C215804  11.708   6.194   7.562 -0.1052  0.2126 -0.0189
 1262ERGO   ROH15805  14.731   5.331   6.494 -0.1232 -0.0040 -0.0579
 1262ERGO    R115806  14.634   5.413   6.747 -0.0301 -0.0370 -0.0112
 1262ERGO    R215807  14.564   5.232   6.944  0.0741 -0.0623  0.0038
 1262ERGO    R315808  14.739   5.377   7.094  0.1172 -0.0516 -0.0566
 1262ERGO    R415809  14.628   5.179   7.280  0.1197  0.0076  0.0065
 1262ERGO    R515810  14.633   5.396   7.308  0.1537  0.0128 -0.0442
 1262ERGO    C115811  14.829   5.285   7.616  0.1867  0.0583 -0.0487
 1262ERGO    C215812  15.037   5.332   7.955  0.2230  0.2100 -0.1617
 1263ERGO   ROH15813   5.427   5.407   6.504 -0.0656 -0.2874 -0.0259
 1263ERGO    R115814   5.423   5.376   6.785 -0.1024 -0.1979 -0.0154
 1263ERGO    R215815   5.627   5.465   6.948 -0.0329 -0.3143 -0.0335
 1263ERGO    R315816   5.426   5.595   7.076  0.0664 -0.1086 -0.0838
 1263ERGO    R415817   5.615   5.520   7.289 -0.0759 -0.3281 -0.0337
 1263ERGO    R515818   5.401   5.476   7.282 -0.1230 -0.0989 -0.1009
 1263ERGO    C115819   5.418   5.674   7.608 -0.0078 -0.1431 -0.0811
 1263ERGO    C215820   5.488   5.765   7.916 -0.0344 -0.1594  0.1988
 1264ERGO   ROH15821   7.765   8.659   6.414 -0.0352 -0.0423 -0.1913
 1264ERGO    R115822   7.590   8.783   6.599 -0.1166 -0.0816 -0.2407
 1264ERGO    R215823   7.508   8.660   6.832 -0.1728 -0.1099 -0.2708
 1264ERGO    R315824   7.603   8.886   6.948 -0.2446 -0.1003 -0.2311
 1264ERGO    R415825   7.468   8.742   7.165  0.0642 -0.3177 -0.1885
 1264ERGO    R515826   7.433   8.949   7.105 -0.1497 -0.3139 -0.0430
 1264ERGO    C115827   7.535   9.003   7.468  0.1349 -0.4298 -0.1034
 1264ERGO    C215828   7.534   8.847   7.857  0.0784 -0.2056  0.0667
 1265ERGO   ROH15829  17.837   0.975   6.115 -0.1466  0.1255  0.1468
 1265ERGO    R115830  17.813   0.951   6.396 -0.0239  0.1601  0.1607
 1265ERGO    R215831  17.906   0.731   6.536 -0.0664  0.1251  0.1335
 1265ERGO    R315832  18.040   0.919   6.679  0.0964  0.0700  0.0554
 1265ERGO    R415833  17.931   0.736   6.880 -0.0858  0.2580  0.1332
 1265ERGO    R515834  17.905   0.952   6.874  0.1114  0.2814  0.0325
 1265ERGO    C115835  18.071   0.916   7.215  0.0556  0.2836  0.0598
 1265ERGO    C215836  18.214   0.743   7.615 -0.0443 -0.0360  0.0957
 1266ERGO   ROH15837   1.928  11.266   6.436 -0.1373  0.0831 -0.0502
 1266ERGO    R115838   1.873  11.475   6.619 -0.2389  0.0396 -0.0309
 1266ERGO    R215839   1.730  11.434   6.852 -0.1280 -0.0743  0.0179
 1266ERGO    R315840   1.949  11.548   6.967 -0.1762  0.0977 -0.0568
 1266ERGO    R415841   1.762  11.507   7.188  0.0704 -0.3922  0.0728
 1266ERGO    R515842   1.859  11.694   7.134 -0.2287 -0.1980  0.1815
 1266ERGO    C115843   1.986  11.657   7.492  0.1407 -0.4157  0.0346
 1266ERGO    C215844   2.298  11.689   7.640  0.2561  0.1163  0.0240
 1267ERGO   ROH15845   6.381  11.271   6.531 -0.2298  0.1315 -0.0118
 1267ERGO    R115846   6.327  11.205   6.801 -0.2570  0.0658 -0.0330
 1267ERGO    R215847   6.503  11.265   7.006 -0.1706 -0.1890 -0.0285
 1267ERGO    R315848   6.285  11.387   7.113 -0.0428 -0.0250  0.0506
 1267ERGO    R415849   6.450  11.314   7.344  0.1259  0.1304 -0.0225
 1267ERGO    R515850   6.240  11.263   7.314  0.0839  0.1678  0.1998
 1267ERGO    C115851   6.215  11.457   7.642  0.4185  0.4701  0.0552
 1267ERGO    C215852   6.261  11.475   7.960  0.2684 -0.3089  0.1501
 1268ERGO   ROH15853   2.866   7.597   6.446  0.0439 -0.2284 -0.0045
 1268ERGO    R115854   2.876   7.725   6.698  0.0089 -0.2532  0.0086
 1268ERGO    R215855   2.869   7.586   6.937  0.2199 -0.2931 -0.0144
 1268ERGO    R315856   3.098   7.724   6.986  0.1102 -0.0828 -0.0631
 1268ERGO    R415857   2.982   7.677   7.250  0.1179 -0.0680 -0.0401
 1268ERGO    R515858   3.042   7.868   7.168 -0.0298 -0.0440 -0.1256
 1268ERGO    C115859   3.262   7.859   7.480 -0.0446  0.2604 -0.1008
 1268ERGO    C215860   3.233   7.867   7.774  0.0117  0.1338 -0.1238
 1269ERGO   ROH15861  16.403   1.411   5.979 -0.0229 -0.0297  0.1208
 1269ERGO    R115862  16.196   1.307   6.142  0.0544 -0.1775  0.1293
 1269ERGO    R215863  16.189   1.044   6.225  0.2107 -0.2056  0.0818
 1269ERGO    R315864  16.169   1.156   6.472  0.1881 -0.2570  0.1017
 1269ERGO    R415865  16.072   0.882   6.507  0.1538 -0.2386  0.0380
 1269ERGO    R515866  15.968   1.065   6.563  0.1716 -0.2457  0.0596
 1269ERGO    C115867  15.985   0.893   6.903  0.0993 -0.3060  0.0313
 1269ERGO    C215868  16.060   0.948   7.212  0.0710 -0.2197  0.0873
 1270ERGO   ROH15869   8.377   7.040   6.541 -0.0235 -0.3421  0.0334
 1270ERGO    R115870   8.451   7.159   6.787  0.0082 -0.2559 -0.0180
 1270ERGO    R215871   8.287   7.154   7.010  0.0544 -0.2111  0.0129
 1270ERGO    R315872   8.507   7.046   7.129  0.0930 -0.1413  0.0076
 1270ERGO    R415873   8.344   7.147   7.351 -0.0051 -0.3105  0.0217
 1270ERGO    R515874   8.553   7.193   7.312 -0.0186 -0.1827  0.0740
 1270ERGO    C115875   8.583   7.041   7.661 -0.0036 -0.3028  0.0219
 1270ERGO    C215876   8.487   6.963   7.898  0.1591 -0.3013 -0.0008
 1271ERGO   ROH15877  16.303   2.503   6.192  0.0377  0.0833 -0.0319
 1271ERGO    R115878  16.415   2.415   6.437  0.1144  0.0574 -0.0752
 1271ERGO    R215879  16.365   2.541   6.677  0.2647  0.0901 -0.0569
 1271ERGO    R315880  16.289   2.292   6.756  0.2091  0.1212 -0.0138
 1271ERGO    R415881  16.337   2.438   7.006  0.2902  0.1335 -0.0415
 1271ERGO    R515882  16.424   2.246   6.948  0.2260  0.1046 -0.0324
 1271ERGO    C115883  16.249   2.144   7.271  0.2526  0.1878  0.0080
 1271ERGO    C215884  16.081   1.944   7.656 -0.1015  0.0561 -0.1718
 1272ERGO   ROH15885  17.533   3.509   6.233  0.0471  0.0458  0.1375
 1272ERGO    R115886  17.616   3.443   6.495  0.0302 -0.0339  0.1230
 1272ERGO    R215887  17.701   3.633   6.677  0.0697 -0.0960  0.1681
 1272ERGO    R315888  17.509   3.522   6.834  0.0455 -0.0906  0.1419
 1272ERGO    R415889  17.701   3.642   7.022  0.0636 -0.1490  0.1692
 1272ERGO    R515890  17.630   3.435   7.022  0.0287 -0.1404  0.1324
 1272ERGO    C115891  17.520   3.544   7.371  0.0372 -0.1748  0.1453
 1272ERGO    C215892  17.356   3.647   7.675  0.2352  0.0225 -0.2867
 1273ERGO   ROH15893  12.119   7.276   6.540 -0.0119 -0.0105  0.1333
 1273ERGO    R115894  12.199   7.183   6.795  0.0055 -0.0335  0.1194
 1273ERGO    R215895  12.162   7.332   7.025  0.1037 -0.0141  0.1246
 1273ERGO    R315896  12.035   7.107   7.111  0.0392  0.0319  0.1518
 1273ERGO    R415897  12.123   7.241   7.356  0.2440 -0.0700  0.1268
 1273ERGO    R515898  12.164   7.034   7.299  0.1068 -0.0754  0.0618
 1273ERGO    C115899  11.982   6.977   7.630  0.2652 -0.0594  0.1535
 1273ERGO    C215900  11.877   6.890   7.904 -0.0782  0.0661 -0.2321
 1274ERGO   ROH15901   8.613  10.206   6.016 -0.1638 -0.0600  0.1590
 1274ERGO    R115902   8.611  10.207   6.299  0.0325 -0.1789  0.1646
 1274ERGO    R215903   8.824  10.116   6.450  0.2319 -0.0494 -0.0138
 1274ERGO    R315904   8.807  10.362   6.564  0.0806 -0.1066  0.0832
 1274ERGO    R415905   8.871  10.182   6.786  0.0925 -0.1476  0.0241
 1274ERGO    R515906   8.705  10.322   6.777  0.0378 -0.2295  0.0311
 1274ERGO    C115907   8.882  10.451   7.089 -0.1308 -0.2585  0.1373
 1274ERGO    C215908   9.064  10.588   7.385  0.0141  0.2451  0.1442
 1275ERGO   ROH15909  11.377   4.039   6.352  0.0588 -0.0002  0.0515
 1275ERGO    R115910  11.221   3.917   6.555  0.0590  0.0460  0.0784
 1275ERGO    R215911  11.311   3.888   6.814  0.0234  0.1867  0.1043
 1275ERGO    R315912  11.080   4.017   6.875 -0.0245  0.1474  0.0119
 1275ERGO    R415913  11.167   3.897   7.128 -0.1832  0.0297  0.0174
 1275ERGO    R515914  10.972   3.874   7.034 -0.1233  0.0636 -0.1250
 1275ERGO    C115915  10.866   4.025   7.368 -0.3486 -0.0987 -0.1199
 1275ERGO    C215916  10.854   4.113   7.720  0.2127  0.1297 -0.0518
 1276ERGO   ROH15917  12.531   1.286   6.150  0.1091  0.1025 -0.0371
 1276ERGO    R115918  12.508   1.168   6.406  0.0969 -0.0341 -0.1008
 1276ERGO    R215919  12.659   1.250   6.622  0.0156 -0.0826 -0.0267
 1276ERGO    R315920  12.416   1.277   6.741 -0.0218 -0.2366 -0.0650
 1276ERGO    R415921  12.609   1.304   6.960 -0.0550  0.1278 -0.0691
 1276ERGO    R515922  12.440   1.166   6.952  0.0811 -0.0530  0.0238
 1276ERGO    C115923  12.352   1.361   7.268 -0.1313  0.1058 -0.1297
 1276ERGO    C215924  12.455   1.495   7.583 -0.0454  0.1170 -0.0975
 1277ERGO   ROH15925   2.976   2.927   6.411 -0.0163 -0.0717 -0.1082
 1277ERGO    R115926   3.066   2.856   6.670  0.0302 -0.0270 -0.1110
 1277ERGO    R215927   2.994   2.997   6.896 -0.0119 -0.0463 -0.1077
 1277ERGO    R315928   2.913   2.753   6.983  0.0906 -0.0766 -0.0987
 1277ERGO    R415929   3.012   2.888   7.223  0.0290 -0.0300 -0.1052
 1277ERGO    R515930   3.074   2.693   7.150  0.1112 -0.0042 -0.0956
 1277ERGO    C115931   2.946   2.595   7.496  0.1490 -0.0489 -0.0952
 1277ERGO    C215932   3.042   2.470   7.803 -0.4733  0.2248  0.1293
 1278ERGO   ROH15933   5.902  15.187   6.199 -0.0357  0.3017  0.1117
 1278ERGO    R115934   6.082  15.272   6.400  0.0879  0.1302  0.0754
 1278ERGO    R215935   6.001  15.414   6.622  0.2761  0.2553  0.0665
 1278ERGO    R315936   6.127  15.214   6.756  0.0711  0.1317  0.0777
 1278ERGO    R415937   6.138  15.444   6.938  0.1411  0.0769  0.1435
 1278ERGO    R515938   6.307  15.323   6.871  0.0913 -0.0227  0.1960
 1278ERGO    C115939   6.336  15.274   7.248 -0.1298 -0.1431  0.1988
 1278ERGO    C215940   6.354  15.110   7.563  0.0810 -0.1546  0.1900
 1279ERGO   ROH15941  13.406  17.354   6.078  0.3755  0.0447  0.0587
 1279ERGO    R115942  13.359  17.544   6.283  0.4215  0.1147  0.0052
 1279ERGO    R215943  13.233  17.479   6.520  0.0630  0.2945 -0.1281
 1279ERGO    R315944  13.457  17.586   6.631  0.1026 -0.0268  0.1146
 1279ERGO    R415945  13.336  17.426   6.845 -0.2770  0.0200 -0.0590
 1279ERGO    R515946  13.393  17.636   6.856 -0.0289 -0.0520  0.0822
 1279ERGO    C115947  13.607  17.495   7.139 -0.4376 -0.4414  0.2090
 1279ERGO    C215948  13.856  17.657   7.328 -0.1212  0.0292 -0.0044
 1280ERGO   ROH15949   1.674   7.963   6.328 -0.0128 -0.0100 -0.0864
 1280ERGO    R115950   1.744   7.840   6.573 -0.1255  0.0674 -0.0136
 1280ERGO    R215951   1.978   7.900   6.709 -0.0573 -0.0805 -0.0581
 1280ERGO    R315952   1.808   7.949   6.915 -0.0062  0.2147 -0.0824
 1280ERGO    R415953   2.048   7.840   7.042 -0.1477 -0.0306 -0.0301
 1280ERGO    R515954   1.844   7.767   7.067 -0.2380  0.2316 -0.0061
 1280ERGO    C115955   1.929   7.851   7.429 -0.1524  0.2755 -0.0367
 1280ERGO    C215956   1.876   7.926   7.765 -0.1401  0.2344  0.1655
 1281ERGO   ROH15957  13.454  11.859   6.302 -0.1329 -0.0489 -0.0517
 1281ERGO    R115958  13.380  11.710   6.531 -0.0512 -0.0370 -0.0162
 1281ERGO    R215959  13.560  11.558   6.674  0.0039 -0.0280 -0.0669
 1281ERGO    R315960  13.470  11.706   6.883  0.0736 -0.0121 -0.0488
 1281ERGO    R415961  13.647  11.508   7.005  0.0966  0.0000 -0.0870
 1281ERGO    R515962  13.440  11.548   7.060  0.1210  0.0094 -0.0280
 1281ERGO    C115963  13.612  11.617   7.394  0.2160  0.0312 -0.0817
 1281ERGO    C215964  13.756  11.553   7.729 -0.0984 -0.7458  0.2920
 1282ERGO   ROH15965   7.494   2.822   6.416 -0.1280  0.1276  0.0042
 1282ERGO    R115966   7.580   2.691   6.652 -0.1566  0.0690 -0.0175
 1282ERGO    R215967   7.844   2.689   6.734 -0.1328 -0.1251 -0.0933
 1282ERGO    R315968   7.740   2.786   6.965  0.0063 -0.0416 -0.0652
 1282ERGO    R415969   8.014   2.707   7.034  0.0056 -0.1488 -0.1699
 1282ERGO    R515970   7.831   2.645   7.135  0.0195 -0.0540 -0.0813
 1282ERGO    C115971   8.015   2.809   7.426  0.2166 -0.0843 -0.1881
 1282ERGO    C215972   8.134   3.106   7.514 -0.0889 -0.0907  0.1323
 1283ERGO   ROH15973   6.816  14.258   6.492 -0.0015  0.0826  0.0463
 1283ERGO    R115974   6.670  14.348   6.716 -0.0249 -0.0546  0.0888
 1283ERGO    R215975   6.701  14.239   6.968  0.0868 -0.0854  0.0691
 1283ERGO    R315976   6.746  14.497   7.039 -0.0648 -0.0687  0.1026
 1283ERGO    R415977   6.666  14.366   7.288 -0.0816 -0.1136  0.0617
 1283ERGO    R515978   6.578  14.545   7.202 -0.1379 -0.1567  0.0465
 1283ERGO    C115979   6.688  14.683   7.540 -0.3219 -0.1144  0.0888
 1283ERGO    C215980   6.633  14.764   7.920 -0.1668 -0.2081  0.2308
 1284ERGO   ROH15981   0.978   6.372   6.595 -0.1621 -0.0235 -0.1914
 1284ERGO    R115982   0.810   6.314   6.815 -0.0522 -0.0657 -0.1180
 1284ERGO    R215983   0.888   6.150   7.023  0.0978 -0.0059 -0.1276
 1284ERGO    R315984   0.819   6.364   7.175  0.0673 -0.0156 -0.1271
 1284ERGO    R415985   0.837   6.140   7.364 -0.1870 -0.0770 -0.1694
 1284ERGO    R515986   0.667   6.274   7.338 -0.1076  0.0062 -0.2743
 1284ERGO    C115987   0.742   6.335   7.707 -0.3815 -0.1275 -0.1933
 1284ERGO    C215988   0.582   6.331   8.071  0.1217 -0.0339  0.0725
 1285ERGO   ROH15989  11.439  11.660   6.070  0.0782 -0.2122  0.0158
 1285ERGO    R115990  11.643  11.598   6.256  0.0217 -0.1188  0.1101
 1285ERGO    R215991  11.846  11.774   6.318  0.0586 -0.1267  0.0031
 1285ERGO    R315992  11.762  11.730   6.573 -0.0028  0.1102  0.0269
 1285ERGO    R415993  11.973  11.932   6.598  0.2032 -0.0776 -0.0888
 1285ERGO    R515994  11.962  11.742   6.704  0.0073 -0.0081  0.0283
 1285ERGO    C115995  11.968  11.983   7.000  0.2297  0.1735 -0.1199
 1285ERGO    C215996  12.113  11.995   7.334  0.0373  0.1822  0.0398
 1286ERGO   ROH15997   2.493  15.550   6.261 -0.0328  0.1450  0.0341
 1286ERGO    R115998   2.544  15.549   6.539 -0.2262 -0.0129  0.0714
 1286ERGO    R215999   2.374  15.429   6.722 -0.2359 -0.3216 -0.1354
 1286ERGO    R316000   2.601  15.299   6.797 -0.1562 -0.1530 -0.0781
 1286ERGO    R416001   2.444  15.324   7.043 -0.2463 -0.2899 -0.1222
 1286ERGO    R516002   2.650  15.387   7.015 -0.2857 -0.1287 -0.0580
 1286ERGO    C116003   2.696  15.141   7.302 -0.1775 -0.1131 -0.0607
 1286ERGO    C216004   2.594  14.910   7.556 -0.3346 -0.3305 -0.0623
 1287ERGO   ROH16005   5.466  17.528   6.161 -0.0342  0.0163  0.0714
 1287ERGO    R116006   5.416  17.493   6.437 -0.2394 -0.0136  0.0321
 1287ERGO    R216007   5.489  17.681   6.626 -0.0803 -0.1795  0.1380
 1287ERGO    R316008   5.226  17.666   6.695 -0.1467  0.1627 -0.0158
 1287ERGO    R416009   5.354  17.812   6.916 -0.0140 -0.2870  0.2181
 1287ERGO    R516010   5.230  17.633   6.933 -0.3155 -0.1141 -0.0471
 1287ERGO    C116011   5.029  17.873   7.150 -0.0377 -0.0282  0.1202
 1287ERGO    C216012   5.025  18.022   7.449  0.0603 -0.1613  0.1046
 1288ERGO   ROH16013  15.627   7.231   6.373  0.2318  0.1111  0.0909
 1288ERGO    R116014  15.766   7.181   6.615  0.3045 -0.0772  0.0126
 1288ERGO    R216015  15.651   7.217   6.863  0.5375  0.2347  0.0853
 1288ERGO    R316016  15.728   6.959   6.901  0.0632  0.0873  0.1102
 1288ERGO    R416017  15.762   7.086   7.163  0.6612  0.1586  0.0068
 1288ERGO    R516018  15.913   6.974   7.052  0.2972 -0.2102 -0.1357
 1288ERGO    C116019  15.899   6.768   7.373  0.2881 -0.0240 -0.0156
 1288ERGO    C216020  15.828   6.857   7.713 -0.1503 -0.3253  0.0588
 1289ERGO   ROH16021  10.298   9.891   6.434 -0.1522 -0.2318  0.0795
 1289ERGO    R116022  10.182   9.887   6.692 -0.1232 -0.0688  0.0967
 1289ERGO    R216023  10.231   9.686   6.874 -0.1546  0.0115  0.1953
 1289ERGO    R316024  10.300   9.893   7.036 -0.0812  0.0770  0.0805
 1289ERGO    R416025  10.232   9.676   7.220 -0.0476  0.1625  0.2000
 1289ERGO    R516026  10.150   9.877   7.221 -0.0261  0.1734  0.1358
 1289ERGO    C116027  10.297   9.864   7.572  0.0835  0.3117  0.0950
 1289ERGO    C216028  10.377   9.992   7.907  0.2129 -0.0067  0.1111
 1290ERGO   ROH16029  13.445   8.246   6.245 -0.1287 -0.2105  0.0713
 1290ERGO    R116030  13.594   8.087   6.427 -0.0278 -0.1631  0.0297
 1290ERGO    R216031  13.853   8.005   6.375  0.0136 -0.0065 -0.0051
 1290ERGO    R316032  13.903   8.122   6.615 -0.0336 -0.0271  0.0167
 1290ERGO    R416033  14.139   7.957   6.563 -0.0040  0.0184  0.0291
 1290ERGO    R516034  14.016   7.953   6.742 -0.0244 -0.0223  0.0124
 1290ERGO    C116035  14.353   8.040   6.898 -0.0586  0.0136  0.0694
 1290ERGO    C216036  14.538   8.014   7.052 -0.0523  0.1949 -0.0209
 1291ERGO   ROH16037   9.908  17.931   6.309 -0.0687  0.1962  0.1089
 1291ERGO    R116038   9.886  17.817   6.567 -0.3022 -0.0819 -0.0271
 1291ERGO    R216039   9.999  17.934   6.791  0.0738 -0.6572  0.1035
 1291ERGO    R316040   9.746  17.917   6.888  0.0366 -0.1075  0.1332
 1291ERGO    R416041   9.908  17.987   7.120  0.2127 -0.3764  0.0988
 1291ERGO    R516042   9.771  17.820   7.105 -0.1418 -0.1043  0.1574
 1291ERGO    C116043   9.618  18.002   7.403  0.2586  0.3027  0.1239
 1291ERGO    C216044   9.398  18.099   7.649  0.2277 -0.1358  0.1224
 1292ERGO   ROH16045  17.656  14.561   6.480 -0.2770  0.0491 -0.0563
 1292ERGO    R116046  17.747  14.617   6.742 -0.1354  0.0145 -0.0981
 1292ERGO    R216047  17.615  14.792   6.911 -0.0582 -0.0317  0.0019
 1292ERGO    R316048  17.618  14.579   7.081  0.0622 -0.0560 -0.0274
 1292ERGO    R416049  17.561  14.811   7.252  0.0292 -0.0890  0.0205
 1292ERGO    R516050  17.720  14.664   7.280  0.0919 -0.0423 -0.0435
 1292ERGO    C116051  17.531  14.623   7.610  0.1933 -0.1452  0.0037
 1292ERGO    C216052  17.426  14.482   7.914 -0.2763 -0.1668 -0.3154
 1293ERGO   ROH16053   9.500  14.202   6.499 -0.1453  0.0952 -0.0631
 1293ERGO    R116054   9.409  14.352   6.721 -0.2930  0.0646 -0.1026
 1293ERGO    R216055   9.186  14.280   6.868 -0.1432 -0.1978 -0.0007
 1293ERGO    R316056   9.359  14.293   7.077 -0.0917  0.1507 -0.0584
 1293ERGO    R416057   9.094  14.298   7.201 -0.0675 -0.2027  0.0214
 1293ERGO    R516058   9.254  14.442   7.233 -0.2709  0.0586 -0.0872
 1293ERGO    C116059   9.203  14.320   7.591  0.0252  0.1217 -0.0199
 1293ERGO    C216060   9.246  14.374   7.882  0.2075 -0.3591  0.1137
 1294ERGO   ROH16061   2.785  17.732   5.943  0.3209  0.1057 -0.0373
 1294ERGO    R116062   2.707  17.837   6.195  0.1817  0.0396 -0.0497
 1294ERGO    R216063   2.810  17.743   6.433  0.0468 -0.0315 -0.0086
 1294ERGO    R316064   2.871  18.005   6.473  0.0353 -0.0445  0.0855
 1294ERGO    R416065   2.847  17.892   6.743 -0.0380 -0.1067  0.0370
 1294ERGO    R516066   2.743  18.067   6.665 -0.0111 -0.0920  0.0614
 1294ERGO    C116067   2.927  18.224   6.961 -0.0981 -0.1626  0.1518
 1294ERGO    C216068   2.995  18.357   7.284 -0.1575 -0.3222 -0.1405
 1295ERGO   ROH16069   9.699  12.920   6.772  0.1226  0.0769  0.0065
 1295ERGO    R116070   9.907  12.941   6.964  0.1648  0.1222 -0.0447
 1295ERGO    R216071  10.102  13.136   6.951 -0.0319  0.3270  0.0510
 1295ERGO    R316072  10.020  13.189   7.204 -0.0014  0.0366  0.1252
 1295ERGO    R416073  10.310  13.233   7.209 -0.0314  0.2725  0.0715
 1295ERGO    R516074  10.196  13.103   7.343  0.1140  0.0578 -0.0040
 1295ERGO    C116075  10.354  13.338   7.598 -0.0024 -0.0316  0.1531
 1295ERGO    C216076  10.401  13.402   7.918  0.2078 -0.0434  0.4175
 1296ERGO   ROH16077  16.658   5.337   6.407  0.1642 -0.4739 -0.0454
 1296ERGO    R116078  16.744   5.422   6.663  0.0055 -0.2974 -0.0489
 1296ERGO    R216079  16.607   5.359   6.895 -0.0352 -0.2959 -0.0751
 1296ERGO    R316080  16.848   5.263   6.973  0.0073 -0.0838  0.0631
 1296ERGO    R416081  16.704   5.310   7.223 -0.2701 -0.4116 -0.0209
 1296ERGO    R516082  16.901   5.386   7.171 -0.3015 -0.1555  0.1985
 1296ERGO    C116083  16.987   5.191   7.488 -0.3666 -0.2797  0.1404
 1296ERGO    C216084  17.018   4.926   7.740 -0.0156  0.2911 -0.2278
 1297ERGO   ROH16085   5.111  13.606   6.172 -0.1026 -0.3261 -0.0885
 1297ERGO    R116086   4.923  13.642   6.380 -0.1850 -0.2446 -0.1753
 1297ERGO    R216087   4.835  13.433   6.538 -0.0965 -0.1518  0.0014
 1297ERGO    R316088   4.916  13.595   6.741 -0.2558  0.0971 -0.1292
 1297ERGO    R416089   4.756  13.387   6.871  0.1168 -0.0780  0.0636
 1297ERGO    R516090   4.728  13.602   6.889 -0.2072 -0.1041 -0.0551
 1297ERGO    C116091   4.786  13.512   7.256  0.0916  0.1988 -0.0227
 1297ERGO    C216092   5.033  13.301   7.623  0.3803  0.0922 -0.1021
 1298ERGO   ROH16093  16.508  13.460   6.353  0.0144 -0.0169  0.0198
 1298ERGO    R116094  16.458  13.456   6.632 -0.0111  0.0957  0.0173
 1298ERGO    R216095  16.636  13.560   6.817 -0.0445  0.2008 -0.0118
 1298ERGO    R316096  16.418  13.701   6.897 -0.0725  0.2041 -0.0903
 1298ERGO    R416097  16.610  13.729   7.117 -0.1900  0.1030  0.0318
 1298ERGO    R516098  16.404  13.660   7.133 -0.2121  0.1251 -0.1098
 1298ERGO    C116099  16.391  13.960   7.368 -0.3011  0.0491 -0.0165
 1298ERGO    C216100  16.371  14.368   7.410  0.0746 -0.0835  0.0660
 1299ERGO   ROH16101  16.973   0.475   6.262 -0.1707  0.0258 -0.0401
 1299ERGO    R116102  16.918   0.444   6.538 -0.1442 -0.0021 -0.0376
 1299ERGO    R216103  17.117   0.442   6.729 -0.1239 -0.0381 -0.0570
 1299ERGO    R316104  16.968   0.640   6.840 -0.0986 -0.0400 -0.0207
 1299ERGO    R416105  17.130   0.537   7.061  0.0017  0.0047 -0.0739
 1299ERGO    R516106  16.913   0.559   7.058 -0.0012 -0.0177  0.0118
 1299ERGO    C116107  16.997   0.778   7.359  0.0984  0.0279 -0.0496
 1299ERGO    C216108  17.053   0.934   7.643  0.1720  0.1760  0.2771
 1300ERGO   ROH16109  13.724  17.001   6.222  0.0304 -0.3651 -0.0343
 1300ERGO    R116110  13.584  16.974   6.467  0.0155 -0.2121 -0.0274
 1300ERGO    R216111  13.697  16.855   6.689 -0.0232 -0.1203  0.0257
 1300ERGO    R316112  13.627  17.089   6.809  0.0180 -0.0516 -0.0768
 1300ERGO    R416113  13.666  16.900   7.031 -0.1184 -0.0187  0.0063
 1300ERGO    R516114  13.489  17.022   6.994 -0.0748  0.0407 -0.0978
 1300ERGO    C116115  13.583  17.146   7.342 -0.1351  0.1048 -0.1012
 1300ERGO    C216116  13.612  17.056   7.645 -0.1227 -0.2482  0.0146
 1301ERGO   ROH16117   7.848   0.476   6.378 -0.2220 -0.0496  0.1638
 1301ERGO    R116118   7.825   0.346   6.628 -0.0300 -0.1440  0.1370
 1301ERGO    R216119   8.035   0.211   6.746  0.1754  0.1179  0.1044
 1301ERGO    R316120   7.978   0.373   6.956 -0.0515  0.0035  0.1317
 1301ERGO    R416121   8.071   0.123   7.078 -0.1105 -0.0121  0.1019
 1301ERGO    R516122   7.884   0.227   7.120 -0.1639 -0.0817 -0.0190
 1301ERGO    C116123   8.038   0.224   7.469 -0.4901 -0.1953  0.1261
 1301ERGO    C216124   8.194   0.064   7.659  0.1896  0.2727 -0.2117
 1302ERGO   ROH16125  16.333  17.903   6.302  0.3095 -0.2731  0.1072
 1302ERGO    R116126  16.168  17.900   6.532  0.0598 -0.0934 -0.0654
 1302ERGO    R216127  16.256  17.807   6.777 -0.3060 -0.2078  0.0230
 1302ERGO    R316128  16.173  18.051   6.863 -0.1165 -0.1150 -0.0500
 1302ERGO    R416129  16.245  17.908   7.107 -0.1635 -0.0856 -0.0079
 1302ERGO    R516130  16.056  18.007   7.066 -0.1084  0.0359 -0.0061
 1302ERGO    C116131  16.161  18.196   7.380  0.0974  0.0729 -0.0944
 1302ERGO    C216132  16.139  18.253   7.819  0.2607 -0.1232 -0.3724
 1303ERGO   ROH16133  10.685   7.757   6.516 -0.0304 -0.0350  0.0353
 1303ERGO    R116134  10.815   7.735   6.767  0.0918  0.0957 -0.0149
 1303ERGO    R216135  10.909   7.956   6.906 -0.2321  0.2121  0.0287
 1303ERGO    R316136  10.756   7.854   7.106  0.0010 -0.1185  0.0460
 1303ERGO    R416137  10.966   8.005   7.243 -0.2771  0.3119  0.0214
 1303ERGO    R516138  10.913   7.797   7.278  0.1525  0.1904  0.0178
 1303ERGO    C116139  10.856   7.939   7.627 -0.0844  0.0597  0.0334
 1303ERGO    C216140  10.729   8.135   7.863 -0.0716  0.0278  0.0546
 1304ERGO   ROH16141  10.815   2.884   6.007 -0.0061  0.0315 -0.0084
 1304ERGO    R116142  10.845   2.871   6.288 -0.0166 -0.0773 -0.0126
 1304ERGO    R216143  10.735   3.059   6.459  0.0717 -0.0817  0.0463
 1304ERGO    R316144  10.626   2.839   6.577 -0.0361 -0.0684 -0.0257
 1304ERGO    R416145  10.547   3.063   6.749 -0.0910 -0.0605 -0.0574
 1304ERGO    R516146  10.648   2.880   6.812 -0.1592 -0.0840 -0.0092
 1304ERGO    C116147  10.335   2.860   7.029 -0.2870 -0.0356 -0.1854
 1304ERGO    C216148   9.938   2.933   7.107  0.0713 -0.0258  0.1969
 1305ERGO   ROH16149   4.202   8.190   6.273  0.1547 -0.1784 -0.0460
 1305ERGO    R116150   4.347   8.036   6.461  0.1023 -0.1889 -0.0139
 1305ERGO    R216151   4.544   8.144   6.620  0.0953 -0.2090  0.0095
 1305ERGO    R316152   4.396   8.037   6.821  0.0471 -0.1728 -0.0065
 1305ERGO    R416153   4.667   8.061   6.933 -0.0290  0.0563  0.1324
 1305ERGO    R516154   4.544   7.880   6.927  0.0821 -0.0206  0.1740
 1305ERGO    C116155   4.599   7.911   7.303 -0.1465  0.2446  0.1890
 1305ERGO    C216156   4.622   7.800   7.629  0.0857 -0.1144  0.1254
 1306ERGO   ROH16157   6.628   4.108   6.468 -0.0761  0.0603  0.1226
 1306ERGO    R116158   6.660   4.301   6.673  0.0112 -0.0058  0.1719
 1306ERGO    R216159   6.525   4.287   6.913  0.0298 -0.0235  0.1811
 1306ERGO    R316160   6.775   4.304   7.018  0.0462 -0.1389  0.1620
 1306ERGO    R416161   6.603   4.244   7.247  0.0408 -0.0920  0.1699
 1306ERGO    R516162   6.744   4.409   7.231  0.1082 -0.1486  0.1762
 1306ERGO    C116163   6.883   4.234   7.540  0.0627 -0.2401  0.1455
 1306ERGO    C216164   7.125   4.079   7.720  0.0871  0.0372 -0.0984
 1307ERGO   ROH16165   5.931  14.276   6.241 -0.2436  0.0462 -0.0608
 1307ERGO    R116166   5.952  14.200   6.513 -0.1367 -0.0797 -0.1026
 1307ERGO    R216167   6.190  14.214   6.653 -0.0964 -0.0637 -0.1644
 1307ERGO    R316168   6.042  14.363   6.826 -0.1018 -0.1982 -0.0524
 1307ERGO    R416169   6.275  14.278   6.982  0.0356 -0.0618 -0.1984
 1307ERGO    R516170   6.066  14.251   7.036  0.0891 -0.2152 -0.0863
 1307ERGO    C116171   6.186  14.454   7.336  0.1074 -0.1866 -0.1132
 1307ERGO    C216172   6.202  14.640   7.704 -0.1284  0.1978 -0.0437
 1308ERGO   ROH16173  14.218  10.531   6.454  0.3632 -0.0656  0.1280
 1308ERGO    R116174  14.248  10.566   6.733  0.2371 -0.1217  0.1501
 1308ERGO    R216175  14.033  10.603   6.902  0.1703  0.0512  0.0334
 1308ERGO    R316176  14.142  10.393   7.035 -0.0904 -0.0621  0.0739
 1308ERGO    R416177  13.986  10.536   7.238  0.1095  0.1934  0.0533
 1308ERGO    R516178  14.197  10.481   7.251  0.0425 -0.0783  0.0477
 1308ERGO    C116179  14.061  10.300   7.558 -0.1705  0.1700  0.1028
 1308ERGO    C216180  13.787  10.226   7.692 -0.2339  0.0086  0.1473
 1309ERGO   ROH16181   6.695  16.943   6.646  0.1690 -0.0775  0.0048
 1309ERGO    R116182   6.495  16.823   6.807  0.0247  0.0381 -0.0889
 1309ERGO    R216183   6.534  16.765   7.075 -0.1324  0.0132 -0.0777
 1309ERGO    R316184   6.308  16.913   7.106 -0.0655  0.1408 -0.1726
 1309ERGO    R416185   6.349  16.784   7.366 -0.3188 -0.0063 -0.1916
 1309ERGO    R516186   6.168  16.778   7.245 -0.2458  0.1578 -0.3256
 1309ERGO    C116187   6.029  16.934   7.565 -0.3645  0.1021 -0.3470
 1309ERGO    C216188   6.055  17.109   7.866  0.4586  0.2196  0.2850
 1310ERGO   ROH16189   6.990  12.903   6.307  0.1221  0.1240  0.0250
 1310ERGO    R116190   7.009  13.038   6.555  0.0177  0.1085  0.0426
 1310ERGO    R216191   6.841  13.245   6.625 -0.0002  0.1198 -0.0228
 1310ERGO    R316192   6.795  13.091   6.845 -0.1140  0.1079 -0.0549
 1310ERGO    R416193   6.736  13.364   6.933  0.0499  0.1248 -0.0081
 1310ERGO    R516194   6.873  13.224   7.028 -0.0467  0.0230 -0.0238
 1310ERGO    C116195   6.633  13.289   7.317 -0.0278  0.1166 -0.0297
 1310ERGO    C216196   6.573  13.514   7.610  0.1888  0.0375 -0.1872
 1311ERGO   ROH16197   3.803   7.669   6.478 -0.0154 -0.0242  0.0941
 1311ERGO    R116198   3.940   7.797   6.690 -0.0645 -0.1534  0.2061
 1311ERGO    R216199   3.945   8.071   6.719  0.2932 -0.1428  0.1209
 1311ERGO    R316200   3.852   8.014   6.968 -0.0710  0.0595  0.0392
 1311ERGO    R416201   3.990   8.271   6.998 -0.0088  0.0155  0.0605
 1311ERGO    R516202   4.025   8.091   7.115 -0.2419  0.0805  0.2286
 1311ERGO    C116203   3.930   8.334   7.393 -0.5265  0.2976 -0.0514
 1311ERGO    C216204   4.000   8.472   7.821 -0.1426  0.0489  0.1998
 1312ERGO   ROH16205   4.661   4.190   6.773  0.0829  0.1229  0.0537
 1312ERGO    R116206   4.576   4.249   7.037 -0.0643 -0.1927  0.0814
 1312ERGO    R216207   4.538   4.053   7.228  0.2104 -0.3937 -0.0580
 1312ERGO    R316208   4.709   4.206   7.373 -0.0562 -0.2144  0.0743
 1312ERGO    R416209   4.636   3.984   7.552  0.3048 -0.4790 -0.1041
 1312ERGO    R516210   4.620   4.198   7.596 -0.0594 -0.5362  0.0624
 1312ERGO    C116211   4.853   4.088   7.878  0.1095 -0.3604 -0.0068
 1312ERGO    C216212   5.037   3.981   8.026  0.3120 -0.0251  0.0316
 1313ERGO   ROH16213   9.124  10.382   6.255  0.3403 -0.0254  0.0087
 1313ERGO    R116214   9.172  10.588   6.443  0.2271  0.0939 -0.0927
 1313ERGO    R216215   8.985  10.782   6.501  0.0893 -0.0306 -0.1294
 1313ERGO    R316216   9.025  10.699   6.756  0.2228  0.1137 -0.1008
 1313ERGO    R416217   8.906  10.966   6.783 -0.0999 -0.0116 -0.1921
 1313ERGO    R516218   9.092  10.897   6.873  0.0002  0.2459 -0.1860
 1313ERGO    C116219   8.898  10.995   7.187 -0.0846  0.1350 -0.2019
 1313ERGO    C216220   8.828  11.243   7.443  0.0102  0.0027  0.1485
 1314ERGO   ROH16221   0.549   5.351   6.692 -0.0021 -0.0104 -0.0690
 1314ERGO    R116222   0.640   5.150   6.869  0.0204  0.0209 -0.0452
 1314ERGO    R216223   0.789   5.206   7.094 -0.0691  0.0737  0.0010
 1314ERGO    R316224   0.594   5.066   7.220 -0.0543 -0.0027 -0.0604
 1314ERGO    R416225   0.790   5.125   7.430 -0.2123  0.1996  0.0329
 1314ERGO    R516226   0.711   4.929   7.378 -0.0581  0.1295  0.0594
 1314ERGO    C116227   0.606   4.946   7.744 -0.2819  0.2013 -0.0062
 1314ERGO    C216228   0.656   4.752   7.971  0.0345 -0.1730  0.0463
 1315ERGO   ROH16229   9.600   1.843   6.408 -0.0887 -0.0236  0.0317
 1315ERGO    R116230   9.427   1.857   6.631 -0.0684 -0.0674  0.0496
 1315ERGO    R216231   9.399   1.650   6.812  0.1538  0.0006  0.1617
 1315ERGO    R316232   9.462   1.842   6.993  0.0012  0.1551  0.0544
 1315ERGO    R416233   9.331   1.631   7.150  0.2345  0.0982  0.1843
 1315ERGO    R516234   9.276   1.842   7.145  0.0257  0.0474  0.0882
 1315ERGO    C116235   9.349   1.801   7.517  0.1383  0.3001  0.0968
 1315ERGO    C216236   9.435   1.903   7.819  0.1137  0.0639  0.2123
 1316ERGO   ROH16237  12.321   9.093   6.704  0.1133  0.2264 -0.0196
 1316ERGO    R116238  12.336   9.264   6.930  0.0554  0.1093  0.0724
 1316ERGO    R216239  12.115   9.323   7.086  0.0291 -0.0091  0.0691
 1316ERGO    R316240  12.275   9.235   7.287  0.0113 -0.0849  0.0526
 1316ERGO    R416241  12.064   9.389   7.421 -0.0236 -0.1445  0.0896
 1316ERGO    R516242  12.279   9.417   7.443 -0.0207 -0.1408  0.1272
 1316ERGO    C116243  12.184   9.345   7.806 -0.0710 -0.2946  0.0861
 1316ERGO    C216244  12.210   9.474   8.140  0.2323  0.1006 -0.0875
 1317ERGO   ROH16245   3.620  13.205   5.999  0.1119  0.0671  0.0682
 1317ERGO    R116246   3.572  13.345   6.240 -0.0766  0.1657 -0.0241
 1317ERGO    R216247   3.337  13.482   6.289 -0.3013 -0.1862 -0.0845
 1317ERGO    R316248   3.332  13.328   6.513 -0.0031 -0.0393  0.0296
 1317ERGO    R416249   3.211  13.582   6.595 -0.2062 -0.1012 -0.0722
 1317ERGO    R516250   3.378  13.481   6.692 -0.0402  0.1326 -0.1052
 1317ERGO    C116251   3.132  13.496   6.983  0.1291  0.0861  0.0420
 1317ERGO    C216252   2.946  13.679   7.217  0.0481  0.1634  0.1097
 1318ERGO   ROH16253   6.810   0.642   6.419  0.1417 -0.3053 -0.0707
 1318ERGO    R116254   6.882   0.536   6.671  0.2917 -0.0767 -0.0143
 1318ERGO    R216255   7.061   0.663   6.840  0.0776  0.2969 -0.0484
 1318ERGO    R316256   6.857   0.643   7.018  0.0847  0.0464 -0.0664
 1318ERGO    R416257   7.078   0.759   7.171 -0.0366  0.1882 -0.0111
 1318ERGO    R516258   6.963   0.582   7.224  0.1225  0.0675 -0.0837
 1318ERGO    C116259   6.896   0.797   7.532 -0.0964 -0.1101 -0.0062
 1318ERGO    C216260   6.941   0.891   7.891  0.0084 -0.0278 -0.3830
 1319ERGO   ROH16261  16.064  15.930   6.325  0.0864  0.3433 -0.1530
 1319ERGO    R116262  16.149  16.031   6.576  0.0315  0.1668 -0.0617
 1319ERGO    R216263  16.412  16.021   6.659  0.0159  0.1163 -0.0131
 1319ERGO    R316264  16.378  16.288   6.694 -0.0007  0.0907  0.1702
 1319ERGO    R416265  16.627  16.226   6.836  0.2221  0.0789 -0.2156
 1319ERGO    R516266  16.453  16.329   6.918  0.3113 -0.0033  0.0866
 1319ERGO    C116267  16.719  16.596   6.973  0.3271  0.0331 -0.1614
 1319ERGO    C216268  16.779  16.810   7.164  0.0940  0.1474  0.1784
 1320ERGO   ROH16269   5.562   7.901   6.136 -0.2777 -0.1855 -0.1782
 1320ERGO    R116270   5.600   7.885   6.416  0.1517 -0.0652 -0.2244
 1320ERGO    R216271   5.432   7.741   6.581  0.1817  0.3086  0.1361
 1320ERGO    R316272   5.664   7.622   6.660  0.1278 -0.0143 -0.1596
 1320ERGO    R416273   5.455   7.486   6.813  0.1193  0.3941  0.2389
 1320ERGO    R516274   5.634   7.581   6.894  0.4095  0.1659 -0.0795
 1320ERGO    C116275   5.685   7.226   7.022  0.0324  0.1408  0.0211
 1320ERGO    C216276   5.628   6.935   7.045 -0.0632  0.1764  0.1633
 1321ERGO   ROH16277  11.618  10.472   6.553  0.1419  0.0633 -0.0815
 1321ERGO    R116278  11.571  10.451   6.832  0.0474  0.0952 -0.0934
 1321ERGO    R216279  11.640  10.226   6.978 -0.1643  0.0342 -0.0723
 1321ERGO    R316280  11.773  10.407   7.131 -0.0659 -0.0652 -0.0411
 1321ERGO    R416281  11.664  10.215   7.323 -0.2405  0.0211 -0.0681
 1321ERGO    R516282  11.638  10.431   7.327 -0.0835  0.0341 -0.0711
 1321ERGO    C116283  11.803  10.379   7.667 -0.1924 -0.0798 -0.0365
 1321ERGO    C216284  11.933  10.580   7.954  0.0377 -0.0307  0.1959
 1322ERGO   ROH16285   7.509  16.769   6.380  0.0707  0.1520 -0.1386
 1322ERGO    R116286   7.546  16.763   6.661  0.0545  0.1053 -0.1378
 1322ERGO    R216287   7.659  16.973   6.801  0.0785  0.0661 -0.1023
 1322ERGO    R316288   7.430  16.957   6.946  0.0690  0.0809 -0.1144
 1322ERGO    R416289   7.638  17.023   7.142  0.0944 -0.0901 -0.0770
 1322ERGO    R516290   7.498  16.857   7.153  0.0307 -0.0457 -0.1603
 1322ERGO    C116291   7.411  17.038   7.477  0.0950 -0.1674 -0.0739
 1322ERGO    C216292   7.452  16.920   7.767 -0.0794  0.0065  0.1528
 1323ERGO   ROH16293   0.912   6.775   7.011  0.0489  0.0286 -0.0359
 1323ERGO    R116294   0.998   6.857   7.268  0.0407  0.0175 -0.0312
 1323ERGO    R216295   0.952   6.708   7.495  0.0931 -0.0208 -0.0552
 1323ERGO    R316296   1.221   6.729   7.525  0.0896  0.0467 -0.0554
 1323ERGO    R416297   1.131   6.590   7.767  0.1005  0.0816 -0.0136
 1323ERGO    R516298   1.252   6.771   7.759  0.0660  0.1146 -0.0571
 1323ERGO    C116299   1.488   6.541   7.953  0.1015  0.2047  0.0104
 1323ERGO    C216300   1.783   6.400   8.194 -0.1172  0.0947 -0.1843
 1324ERGO   ROH16301   9.264  15.832   6.063 -0.1921 -0.1392 -0.0258
 1324ERGO    R116302   9.176  15.673   6.281 -0.0800 -0.0147  0.1127
 1324ERGO    R216303   9.141  15.399   6.260 -0.2638 -0.0018  0.2356
 1324ERGO    R316304   9.308  15.395   6.475 -0.0590 -0.0287  0.0782
 1324ERGO    R416305   9.196  15.125   6.462 -0.0299 -0.0425  0.1201
 1324ERGO    R516306   9.196  15.257   6.635  0.1130 -0.0843  0.1535
 1324ERGO    C116307   9.385  14.960   6.781  0.2987 -0.0916 -0.0949
 1324ERGO    C216308   9.478  14.777   6.989  0.5115  0.0759 -0.0260
 1325ERGO   ROH16309  11.372  10.026   6.566 -0.2015 -0.0837  0.0406
 1325ERGO    R116310  11.271   9.934   6.814 -0.1156 -0.0756  0.0787
 1325ERGO    R216311  11.432   9.823   7.009 -0.0465 -0.0561  0.0310
 1325ERGO    R316312  11.320  10.015   7.165 -0.0056 -0.0545  0.0591
 1325ERGO    R416313  11.447   9.829   7.354 -0.1539 -0.1803  0.0392
 1325ERGO    R516314  11.240   9.895   7.357 -0.1248 -0.0819 -0.0062
 1325ERGO    C116315  11.352  10.013   7.702 -0.1780 -0.2513  0.0705
 1325ERGO    C216316  11.533   9.977   7.955 -0.3989  0.1994  0.0908
 1326ERGO   ROH16317   9.206   8.506   6.240  0.1128 -0.1779 -0.0843
 1326ERGO    R116318   9.180   8.416   6.507  0.0154 -0.0525 -0.0518
 1326ERGO    R216319   9.338   8.214   6.613 -0.0925 -0.0669  0.0679
 1326ERGO    R316320   9.392   8.401   6.803 -0.0607 -0.0119  0.0074
 1326ERGO    R416321   9.431   8.145   6.938  0.1412  0.0135  0.0215
 1326ERGO    R516322   9.304   8.308   7.005  0.1020 -0.0306  0.0772
 1326ERGO    C116323   9.535   8.280   7.306  0.3072  0.1120 -0.0622
 1326ERGO    C216324   9.793   8.275   7.466 -0.0820  0.0762  0.3658
 1327ERGO   ROH16325  14.854  17.403   5.994 -0.0049 -0.0016 -0.0717
 1327ERGO    R116326  14.831  17.543   6.239  0.0666 -0.0414 -0.0416
 1327ERGO    R216327  14.916  17.804   6.269  0.0360 -0.0301 -0.0350
 1327ERGO    R316328  14.662  17.842   6.358  0.0631 -0.0866  0.0669
 1327ERGO    R416329  14.821  18.044   6.499  0.0741 -0.0612  0.0129
 1327ERGO    R516330  14.687  17.898   6.589  0.1410 -0.0917  0.0584
 1327ERGO    C116331  14.527  18.219   6.716  0.1219 -0.1325  0.1365
 1327ERGO    C216332  14.162  18.385   6.792  0.2654 -0.1319  0.1138
 1328ERGO   ROH16333   3.997   9.222   6.900  0.2208 -0.0367  0.0567
 1328ERGO    R116334   3.991   9.330   7.161  0.0586 -0.0464  0.0581
 1328ERGO    R216335   3.762   9.436   7.273 -0.0269 -0.1034 -0.0569
 1328ERGO    R316336   3.816   9.259   7.472 -0.0885 -0.0987 -0.0363
 1328ERGO    R416337   3.694   9.489   7.608  0.2265  0.0651 -0.0298
 1328ERGO    R516338   3.885   9.396   7.656  0.1611 -0.1146 -0.1173
 1328ERGO    C116339   3.705   9.354   7.990  0.3162  0.1676  0.0053
 1328ERGO    C216340   3.757   9.194   8.310 -0.3082  0.2231  0.1087
 1329ERGO   ROH16341  13.238  11.365   6.388 -0.0842  0.1447  0.0426
 1329ERGO    R116342  13.052  11.443   6.587 -0.0050  0.1889  0.1001
 1329ERGO    R216343  12.929  11.261   6.754 -0.1803  0.1893 -0.0249
 1329ERGO    R316344  13.028  11.421   6.950 -0.0159 -0.0425  0.0872
 1329ERGO    R416345  12.820  11.262   7.082 -0.2139  0.1133 -0.0354
 1329ERGO    R516346  12.836  11.480   7.081  0.0359  0.0976  0.1009
 1329ERGO    C116347  12.849  11.414   7.456 -0.0791 -0.1486  0.0636
 1329ERGO    C216348  12.809  11.194   7.631 -0.1929  0.0487  0.3120
 1330ERGO   ROH16349  16.933   1.354   5.884  0.0082  0.2408 -0.0815
 1330ERGO    R116350  16.882   1.302   6.157 -0.0031  0.0377 -0.1241
 1330ERGO    R216351  16.782   1.495   6.329 -0.0764 -0.1205 -0.0140
 1330ERGO    R316352  16.592   1.307   6.377 -0.0250 -0.2115 -0.1379
 1330ERGO    R416353  16.589   1.477   6.615 -0.3524 -0.0959 -0.1901
 1330ERGO    R516354  16.611   1.260   6.611 -0.2235 -0.1021 -0.0849
 1330ERGO    C116355  16.298   1.290   6.827 -0.4647 -0.1668 -0.4089
 1330ERGO    C216356  15.972   1.417   6.930 -0.1929  0.2459 -0.0854
 1331ERGO   ROH16357   2.382   9.915   6.678  0.2050 -0.1641 -0.0079
 1331ERGO    R116358   2.404   9.891   6.959  0.2105 -0.0533  0.0023
 1331ERGO    R216359   2.293  10.074   7.133  0.1552 -0.0188 -0.0642
 1331ERGO    R316360   2.176   9.853   7.240  0.2186 -0.0147  0.0133
 1331ERGO    R416361   2.186  10.046   7.461  0.1419  0.0706 -0.0612
 1331ERGO    R516362   2.262   9.842   7.463  0.2058  0.0973  0.0227
 1331ERGO    C116363   2.013   9.822   7.751  0.1938  0.1265  0.0133
 1331ERGO    C216364   1.830   9.722   8.064  0.0208  0.3037  0.0704
 1332ERGO   ROH16365   4.759  16.243   6.032 -0.0194 -0.0891 -0.1026
 1332ERGO    R116366   4.909  16.287   6.268 -0.0935 -0.0013 -0.0716
 1332ERGO    R216367   4.831  16.466   6.463 -0.3045 -0.1378 -0.0299
 1332ERGO    R316368   4.855  16.250   6.626 -0.1004 -0.1604 -0.0880
 1332ERGO    R416369   4.835  16.479   6.809 -0.1593 -0.2103 -0.0280
 1332ERGO    R516370   4.992  16.328   6.807 -0.0657 -0.1163 -0.1312
 1332ERGO    C116371   4.861  16.283   7.163  0.1169 -0.2736 -0.0814
 1332ERGO    C216372   4.889  16.190   7.396 -0.0632 -0.4436  0.2206
 1333ERGO   ROH16373   3.258   2.560   6.251 -0.0973 -0.3348 -0.0294
 1333ERGO    R116374   3.279   2.411   6.491 -0.0726 -0.1953  0.0569
 1333ERGO    R216375   3.490   2.441   6.667  0.0119 -0.1804 -0.0410
 1333ERGO    R316376   3.292   2.484   6.848  0.0987  0.0248  0.0071
 1333ERGO    R416377   3.527   2.413   7.009  0.0134 -0.4156 -0.0590
 1333ERGO    R516378   3.330   2.319   7.017 -0.1290 -0.1232 -0.0845
 1333ERGO    C116379   3.362   2.438   7.379  0.0958 -0.3600 -0.0242
 1333ERGO    C216380   3.548   2.383   7.657  0.2022  0.0574  0.0002
 1334ERGO   ROH16381  15.069   2.969   6.299 -0.1131 -0.0493  0.0181
 1334ERGO    R116382  15.069   2.808   6.531 -0.1495 -0.0254  0.0351
 1334ERGO    R216383  15.301   2.727   6.656 -0.1669 -0.1027  0.0176
 1334ERGO    R316384  15.185   2.839   6.875 -0.0987 -0.0353  0.0193
 1334ERGO    R416385  15.366   2.633   6.982 -0.2467 -0.1759  0.0122
 1334ERGO    R516386  15.153   2.655   7.025 -0.2365 -0.0266  0.0031
 1334ERGO    C116387  15.295   2.684   7.378 -0.2290 -0.1553  0.0107
 1334ERGO    C216388  15.493   2.571   7.714  0.0279  0.1374 -0.1237
 1335ERGO   ROH16389   0.983   9.869   6.293  0.0740  0.0595  0.0081
 1335ERGO    R116390   0.999   9.947   6.564 -0.0194 -0.0534  0.0465
 1335ERGO    R216391   0.951   9.772   6.773  0.1916 -0.2164 -0.0411
 1335ERGO    R316392   1.197   9.852   6.855  0.0978  0.0415 -0.0007
 1335ERGO    R416393   1.079   9.725   7.091  0.2983 -0.3610 -0.1038
 1335ERGO    R516394   1.164   9.925   7.081  0.0252 -0.2260  0.0804
 1335ERGO    C116395   1.384   9.773   7.352  0.2723 -0.2031 -0.1024
 1335ERGO    C216396   1.613   9.890   7.527 -0.2182  0.1787  0.0241
 1336ERGO   ROH16397   6.035  16.260   6.249  0.1123  0.0461  0.0159
 1336ERGO    R116398   5.777  16.291   6.363  0.1311  0.0135  0.0678
 1336ERGO    R216399   5.554  16.165   6.259  0.0866  0.1737 -0.0302
 1336ERGO    R316400   5.528  16.073   6.513  0.0817 -0.0581 -0.1129
 1336ERGO    R416401   5.272  16.009   6.385 -0.0054  0.2731 -0.1116
 1336ERGO    R516402   5.300  16.119   6.571  0.1333  0.0685 -0.0079
 1336ERGO    C116403   5.084  15.832   6.697 -0.0636  0.1132 -0.2368
 1336ERGO    C216404   4.965  15.844   6.915  0.1693 -0.3459 -0.0671
 1337ERGO   ROH16405  14.923  12.855   6.521 -0.1059  0.0157 -0.1221
 1337ERGO    R116406  14.908  12.725   6.772  0.0533 -0.0530 -0.1466
 1337ERGO    R216407  15.074  12.791   6.983 -0.0063  0.0926 -0.1420
 1337ERGO    R316408  14.839  12.823   7.116 -0.0381 -0.1975 -0.1233
 1337ERGO    R416409  15.000  12.649   7.289  0.1988  0.0127 -0.1285
 1337ERGO    R516410  14.799  12.609   7.216  0.2404 -0.2466 -0.1085
 1337ERGO    C116411  14.737  12.596   7.593  0.2884 -0.3062 -0.1031
 1337ERGO    C216412  14.595  12.556   7.887  0.2321 -0.0242  0.2398
 1338ERGO   ROH16413   9.138   5.149   6.306  0.0335  0.0064  0.0890
 1338ERGO    R116414   9.176   5.066   6.574 -0.0334  0.0255  0.1044
 1338ERGO    R216415   9.425   5.064   6.695 -0.0630  0.0240  0.1627
 1338ERGO    R316416   9.299   5.216   6.881 -0.0998  0.0434  0.1227
 1338ERGO    R416417   9.469   5.035   7.036 -0.0756  0.1035  0.1714
 1338ERGO    R516418   9.255   5.065   7.062 -0.0838  0.0729  0.1527
 1338ERGO    C116419   9.377   5.161   7.410 -0.1175  0.1680  0.1389
 1338ERGO    C216420   9.333   5.050   7.722  0.0300  0.2529  0.0022
 1339ERGO   ROH16421   0.022  10.480   6.618 -0.1502 -0.2089 -0.1379
 1339ERGO    R116422   0.035  10.296   6.833 -0.0299 -0.0935 -0.0448
 1339ERGO    R216423   0.230  10.309   7.029 -0.0150  0.1088 -0.0717
 1339ERGO    R316424   0.016  10.312   7.196  0.0016  0.0812 -0.0499
 1339ERGO    R416425   0.245  10.261   7.371  0.0296  0.1384 -0.0695
 1339ERGO    R516426   0.064  10.141   7.357  0.0508  0.1026 -0.0416
 1339ERGO    C116427   0.053  10.235   7.727  0.0711  0.1295 -0.0478
 1339ERGO    C216428   0.183  10.095   8.043  0.5140 -0.0063  0.2227
 1340ERGO   ROH16429  13.265   3.289   6.562  0.0717  0.3886 -0.1227
 1340ERGO    R116430  13.440   3.278   6.784  0.0739  0.2247 -0.1301
 1340ERGO    R216431  13.442   3.473   6.981  0.1842  0.1641 -0.0656
 1340ERGO    R316432  13.406   3.260   7.146  0.0727  0.1286 -0.1359
 1340ERGO    R416433  13.498   3.475   7.322  0.1220  0.0319 -0.0542
 1340ERGO    R516434  13.584   3.276   7.304  0.0465  0.0076 -0.0980
 1340ERGO    C116435  13.496   3.277   7.676 -0.0188 -0.0783 -0.1137
 1340ERGO    C216436  13.519   3.269   8.041  0.0450 -0.1735  0.2607
 1341ERGO   ROH16437   1.510   9.151   6.568 -0.1064  0.0902  0.1685
 1341ERGO    R116438   1.519   9.194   6.848 -0.0028 -0.2815  0.2280
 1341ERGO    R216439   1.332   9.348   6.980  0.3822  0.0504  0.4072
 1341ERGO    R316440   1.303   9.125   7.132 -0.2062 -0.0850  0.1248
 1341ERGO    R416441   1.196   9.342   7.298  0.4144  0.0201  0.4201
 1341ERGO    R516442   1.350   9.198   7.356  0.0421 -0.4911  0.2180
 1341ERGO    C116443   1.090   9.129   7.626 -0.1193 -0.1245  0.1624
 1341ERGO    C216444   1.063   8.990   7.875  0.0999  0.1106  0.1022
 1342ERGO   ROH16445   6.387  17.986   6.332 -0.0961  0.1011 -0.0289
 1342ERGO    R116446   6.356  17.826   6.563 -0.1695  0.0759 -0.0567
 1342ERGO    R216447   6.501  17.869   6.795 -0.0574 -0.1082 -0.0930
 1342ERGO    R316448   6.254  17.878   6.909 -0.0157  0.0892 -0.0123
 1342ERGO    R416449   6.441  17.891   7.134  0.0717 -0.0498 -0.0728
 1342ERGO    R516450   6.277  17.750   7.110 -0.0496  0.0762 -0.0154
 1342ERGO    C116451   6.174  17.912   7.439  0.1862  0.1697  0.0147
 1342ERGO    C216452   5.945  18.083   7.674 -0.0548  0.3730  0.0395
 1343ERGO   ROH16453  17.005   6.721   6.435  0.0188  0.0255  0.1096
 1343ERGO    R116454  16.986   6.627   6.702  0.0506 -0.0460  0.0873
 1343ERGO    R216455  17.048   6.367   6.772  0.0980 -0.0561  0.0178
 1343ERGO    R316456  17.213   6.488   6.950  0.0894 -0.0726  0.0364
 1343ERGO    R416457  17.153   6.228   7.071 -0.0495 -0.0132  0.0903
 1343ERGO    R516458  17.129   6.423   7.164 -0.0025  0.0209  0.0276
 1343ERGO    C116459  17.370   6.262   7.412 -0.1434 -0.0038  0.1499
 1343ERGO    C216460  17.455   6.016   7.786 -0.2377  0.1061  0.0359
 1344ERGO   ROH16461   5.934   9.711   6.347 -0.2001 -0.1829 -0.2052
 1344ERGO    R116462   6.034   9.616   6.594 -0.0059 -0.1148 -0.2573
 1344ERGO    R216463   6.258   9.724   6.715 -0.1737  0.2170 -0.2474
 1344ERGO    R316464   6.091   9.753   6.927 -0.1937 -0.1550 -0.2055
 1344ERGO    R416465   6.362   9.766   7.042 -0.1729  0.2103 -0.2465
 1344ERGO    R516466   6.200   9.632   7.104  0.0343 -0.0855 -0.2870
 1344ERGO    C116467   6.266   9.817   7.431 -0.1912 -0.1427 -0.2065
 1344ERGO    C216468   6.467   9.986   7.698 -0.3559 -0.0154  0.1217
 1345ERGO   ROH16469   4.784  10.441   6.114  0.2232  0.2478  0.0430
 1345ERGO    R116470   4.634  10.607   6.288 -0.0767  0.0608 -0.0306
 1345ERGO    R216471   4.432  10.509   6.449  0.1101 -0.2377  0.0298
 1345ERGO    R316472   4.575  10.630   6.647 -0.0944  0.1302 -0.0380
 1345ERGO    R416473   4.322  10.551   6.774  0.0499 -0.2677  0.0137
 1345ERGO    R516474   4.411  10.751   6.773 -0.3125 -0.1001 -0.0938
 1345ERGO    C116475   4.392  10.689   7.149 -0.1773  0.0601 -0.0594
 1345ERGO    C216476   4.253  10.615   7.488 -0.1354 -0.0867  0.0215
 1346W        W16477  16.928  14.490  11.438 -0.1918 -0.2202  0.0149
 1347W        W16478   0.240   5.873  15.507 -0.0681 -0.1384  0.0717
 1348W        W16479  17.976   5.291  15.701  0.2001 -0.2787 -0.1622
 1349W        W16480   1.892  10.804  13.308 -0.1170  0.2322  0.0889
 1350W        W16481  10.399   2.501   3.280 -0.1541 -0.2088 -0.2732
 1351W        W16482   0.027  11.436  14.113 -0.2111 -0.1781  0.0327
 1352W        W16483  12.532   1.329  14.788 -0.1202 -0.2793  0.1865
 1353W        W16484   1.682   5.525  13.888  0.3634  0.0175  0.2147
 1354W        W16485  15.186   1.702  11.584  0.1192  0.0869 -0.1996
 1355W        W16486   6.218   0.934  15.933 -0.2400 -0.0714  0.2125
 1356W        W16487   1.599   4.623   2.826 -0.0293 -0.3735  0.0472
 1357W        W16488   7.132   6.636   3.859 -0.0459 -0.1646 -0.0123
 1358W        W16489   8.243   2.155   3.183  0.1454 -0.0012 -0.3042
 1359W        W16490   9.947   2.228  15.054 -0.0010 -0.4709 -0.0178
 1360W        W16491   6.436  17.281   9.896  0.0555  0.0481 -0.0463
 1361W        W16492   9.670  15.923  12.630 -0.0844  0.1520 -0.0779
 1362W        W16493  11.718  12.756  12.083  0.0918 -0.2742 -0.0566
 1363W        W16494  13.144   6.592   1.274  0.0759 -0.0191  0.0309
 1364W        W16495   0.269  15.176  15.208  0.0553 -0.1465 -0.2011
 1365W        W16496   7.457  12.907   3.057  0.3395 -0.0140 -0.1830
 1366W        W16497   9.132  11.712  15.200  0.0099  0.1588  0.1088
 1367W        W16498   7.843   4.934   4.262 -0.0344  0.1426 -0.1766
 1368W        W16499  15.092  14.275   3.284 -0.0858 -0.1997 -0.1926
 1369W        W16500   0.063  16.767   3.541  0.0263  0.2668 -0.1849
 1370W        W16501  14.802  12.004  10.049  0.2080 -0.1191  0.0945
 1371W        W16502  15.192  12.917   5.247 -0.2067  0.0281  0.0398
 1372W        W16503  15.426   8.171  11.345 -0.0381  0.1988  0.0368
 1373W        W16504   2.084   6.432   2.151  0.0152 -0.0640  0.0261
 1374W        W16505   4.778   9.954  13.167  0.1002 -0.2411 -0.1586
 1375W        W16506  12.612  16.283  11.903 -0.3637  0.0446  0.1285
 1376W        W16507   2.845   4.597   2.519 -0.0814  0.0162  0.2628
 1377W        W16508   2.858  13.914  11.019 -0.1428 -0.1989  0.1282
 1378W        W16509   0.707   1.240   0.615  0.0503  0.1354 -0.3628
 1379W        W16510   5.522   7.126   3.087 -0.3739  0.3167 -0.0835
 1380W        W16511   9.304  15.560   3.989 -0.1514 -0.3015  0.0264
 1381W        W16512   5.247   8.697  14.824  0.1141  0.2804  0.1863
 1382W        W16513  14.018   9.827  11.133  0.0813  0.1635  0.1299
 1383W        W16514   0.796   8.732   5.646 -0.0546 -0.0263  0.0617
 1384W        W16515  15.841  17.428   1.639  0.3347  0.3001 -0.0646
 1385W        W16516   2.375  13.584   4.661  0.2128  0.1643 -0.0323
 1386W        W16517  10.605  12.823  13.807  0.0995 -0.3263  0.2004
 1387W        W16518   4.612   2.906  11.199 -0.1041 -0.0093 -0.0778
 1388W        W16519  17.837   2.164   5.156  0.4727 -0.0874  0.1393
 1389W        W16520   5.193   8.785   4.605  0.1838  0.0340  0.0397
 1390W        W16521   6.085   3.212  15.849  0.0328 -0.0641 -0.2744
 1391W        W16522  13.640  14.739   5.381 -0.0149 -0.0811 -0.1651
 1392W        W16523  11.613   5.253  14.976 -0.1514 -0.2097 -0.0915
 1393W        W16524   7.163  17.394   0.289 -0.0182  0.0597 -0.2826
 1394W        W16525  10.057   7.948   4.893  0.1332 -0.0084  0.0020
 1395W        W16526   4.770  10.407   0.826  0.1404  0.0113  0.1253
 1396W        W16527   0.315  17.892   4.157 -0.0690 -0.0310 -0.1794
 1397W        W16528  17.939   5.441   0.019 -0.2665  0.2755  0.0520
 1398W        W16529  17.985  15.757   1.282  0.1739 -0.0179 -0.3496
 1399W        W16530  10.120   4.187   2.791 -0.2056 -0.2320 -0.1137
 1400W        W16531   6.052   7.206  12.712  0.4798 -0.1964  0.0504
 1401W        W16532  13.520   8.632  13.461 -0.0865 -0.2204 -0.2424
 1402W        W16533   3.068  12.376  15.942  0.1716 -0.1427  0.1071
 1403W        W16534  13.788   0.120   0.411 -0.0647 -0.2652 -0.2455
 1404W        W16535   9.991   1.285   4.017  0.3167 -0.0643  0.5095
 1405W        W16536   0.390  14.402   2.050 -0.1964 -0.2561 -0.1607
 1406W        W16537  14.631  15.835   4.989  0.1674  0.1802  0.1754
 1407W        W16538   8.963   3.904   4.894  0.2052  0.1044  0.3416
 1408W        W16539   8.380  13.374  12.225  0.0989 -0.0468  0.1760
 1409W        W16540   8.323   2.042   3.677  0.1158  0.0193  0.2398
 1410W        W16541   6.101   9.281  14.649  0.0598 -0.3300 -0.0205
 1411W        W16542  16.792  13.275   3.086 -0.0792 -0.1229 -0.0592
 1412W        W16543  10.155   9.416   3.830  0.4564  0.2518  0.0041
 1413W        W16544  13.333   8.272   2.576  0.2553  0.1447 -0.0186
 1414W        W16545  12.035  10.442   5.554  0.1351 -0.0296 -0.1093
 1415W        W16546   0.491   6.450   3.695 -0.0536  0.0693 -0.2987
 1416W        W16547  12.692   5.671  11.849  0.2718 -0.0753 -0.1809
 1417W        W16548  16.817  10.116  11.588 -0.1207 -0.2465 -0.2871
 1418W        W16549   8.733  14.656   3.946  0.0047  0.1240 -0.0838
 1419W        W16550  11.578  11.668   4.976  0.0601 -0.2471 -0.0140
 1420W        W16551   0.097   5.258  12.188 -0.0838 -0.0934  0.1222
 1421W        W16552  15.226  13.152  13.982  0.0225 -0.0304  0.0122
 1422W        W16553   9.778   3.303   0.543  0.1868  0.4243 -0.0196
 1423W        W16554   9.035  14.219   3.964 -0.0768 -0.4018  0.0199
 1424W        W16555   7.044   0.860  15.010  0.2298  0.3307  0.0608
 1425W        W16556   9.094  11.272  10.898 -0.1003  0.0274 -0.1549
 1426W        W16557   9.491   2.048   0.562  0.0377  0.1563 -0.0577
 1427W        W16558  12.951  17.875  15.619 -0.0534 -0.2030  0.0066
 1428W        W16559  11.541   4.143  14.738 -0.1127  0.0938  0.0529
 1429W        W16560   4.151   6.571  14.419 -0.0632 -0.0056 -0.1097
 1430W        W16561  12.363   7.968   5.390 -0.0729  0.0209 -0.3446
 1431W        W16562  16.275   8.100   1.713 -0.0742 -0.1312  0.0141
 1432W        W16563  11.318   7.001   1.216 -0.0344  0.0184 -0.2191
 1433W        W16564   0.789  15.866   5.769  0.0108  0.2172  0.1534
 1434W        W16565  13.572  12.644   1.096  0.2362  0.0605 -0.0780
 1435W        W16566   6.752  14.701  14.108  0.0580  0.0214  0.1129
 1436W        W16567  14.304   6.204  10.144 -0.2028 -0.3041  0.1528
 1437W        W16568  10.747  15.452   2.652  0.0072 -0.1333 -0.1252
 1438W        W16569   8.591  17.442  15.614 -0.1581 -0.0204 -0.4656
 1439W        W16570  14.953   6.428  12.879  0.0753 -0.0134  0.0133
 1440W        W16571   9.912   4.171   2.355  0.2122  0.0209 -0.1499
 1441W        W16572  10.585  15.090  11.010 -0.0273 -0.4492  0.0268
 1442W        W16573   9.380   3.819  15.918 -0.1236 -0.1515 -0.0595
 1443W        W16574   8.489   6.389   4.831 -0.1786  0.3815  0.1413
 1444W        W16575  14.966  11.134   1.654  0.0111 -0.1308 -0.0461
 1445W        W16576   3.189   5.125  12.745  0.1306  0.0707 -0.0876
 1446W        W16577   4.058  17.590  12.022  0.1445 -0.1243  0.1089
 1447W        W16578   4.920  13.022   9.619 -0.1266 -0.1516  0.1453
 1448W        W16579  13.060   7.870   0.672 -0.1183 -0.1487  0.1752
 1449W        W16580  16.372   7.394  14.027  0.0262 -0.2188  0.1779
 1450W        W16581  14.867   4.932  10.968  0.2947  0.0232 -0.2769
 1451W        W16582   6.485  14.373  11.257  0.1772  0.1540 -0.1168
 1452W        W16583  14.875   9.980   0.851  0.1511 -0.2094 -0.0921
 1453W        W16584   7.994   4.228   1.211 -0.1058  0.0255  0.2723
 1454W        W16585  12.042   3.741  14.066 -0.1442  0.0420  0.0485
 1455W        W16586  13.206   9.988   4.441 -0.0571 -0.2563 -0.1567
 1456W        W16587   8.771  14.785   2.662  0.0209 -0.0035 -0.0644
 1457W        W16588  11.608   7.433   4.476  0.1732 -0.0318 -0.1768
 1458W        W16589  15.834  14.106  15.019 -0.0630 -0.1916 -0.1211
 1459W        W16590  11.692   9.749  12.933 -0.0659  0.0298  0.0050
 1460W        W16591  10.813   6.926  15.165 -0.0679 -0.0033  0.2368
 1461W        W16592   9.762  15.211  13.024 -0.0800 -0.2004 -0.0509
 1462W        W16593   0.848  17.346   4.990 -0.0671  0.3080  0.1722
 1463W        W16594   5.110  17.243  11.220  0.1524  0.2470 -0.0962
 1464W        W16595   6.720   3.086   4.351  0.3073  0.0837  0.0047
 1465W        W16596  12.949   6.842   3.213 -0.1061  0.3095 -0.1006
 1466W        W16597   1.877  15.106   1.813  0.0131  0.1343 -0.0876
 1467W        W16598  13.647   8.090   2.165  0.3503  0.0033  0.3668
 1468W        W16599   9.583  18.058   3.795  0.0640 -0.0537  0.1293
 1469W        W16600  12.963   3.458  16.182  0.4041  0.0143 -0.3386
 1470W        W16601   6.180  13.271  11.094  0.0345 -0.4386 -0.0593
 1471W        W16602   4.915   3.402   4.751 -0.0451 -0.1522 -0.1132
 1472W        W16603  14.500  16.876  12.119 -0.4092  0.2396  0.3920
 1473W        W16604   9.777  14.937   0.458  0.3459  0.2041  0.0228
 1474W        W16605  11.739  14.221  16.219 -0.2801  0.0988  0.3215
 1475W        W16606  15.296  14.665   4.331 -0.0614 -0.4330  0.0986
 1476W        W16607  10.865  16.786   1.175 -0.1688  0.0178 -0.1724
 1477W        W16608   8.486   8.508   4.707 -0.2875 -0.1463 -0.3018
 1478W        W16609  16.571   4.589   2.087  0.1016  0.0490 -0.4319
 1479W        W16610  17.629   1.212   2.694  0.4503  0.3315  0.0168
 1480W        W16611   4.691   8.582   0.577  0.0993  0.1794 -0.1051
 1481W        W16612   8.390   2.981   5.423  0.2557 -0.1442 -0.2340
 1482W        W16613   1.653   8.164   1.521  0.0951  0.1049 -0.1355
 1483W        W16614  16.893  12.846  12.251  0.1028 -0.1193  0.0611
 1484W        W16615   1.911   7.788  14.268 -0.2512 -0.2414 -0.0302
 1485W        W16616  17.879   0.583   5.040 -0.1538  0.1381  0.1941
 1486W        W16617  17.031  12.160   1.581  0.0467 -0.3994  0.2956
 1487W        W16618  10.798   5.897  14.685  0.3275  0.3638  0.1182
 1488W        W16619   4.798   5.865  12.568 -0.0102  0.1844  0.2965
 1489W        W16620   0.970  11.674  11.142 -0.3804 -0.0592  0.3545
 1490W        W16621   9.564   8.728  13.461 -0.4505 -0.4710 -0.0679
 1491W        W16622   6.610   0.225   2.928  0.2356  0.2170  0.0387
 1492W        W16623  16.706  16.130   5.188 -0.3153  0.0925 -0.0811
 1493W        W16624   0.217  17.687   3.721  0.0989  0.1516 -0.0658
 1494W        W16625   8.197   6.221  11.116  0.1875 -0.0675 -0.2327
 1495W        W16626   2.200  13.308  16.098 -0.2364 -0.1617  0.0762
 1496W        W16627   8.669   2.597  12.852 -0.1815  0.2666  0.4131
 1497W        W16628   2.681  16.103  11.385 -0.1186 -0.0580  0.1264
 1498W        W16629  16.214  14.536  15.226 -0.0811  0.2533  0.2512
 1499W        W16630   2.882   9.927  12.475 -0.1720 -0.1352  0.0665
 1500W        W16631   7.093  14.154  12.625  0.0956  0.0758  0.1113
 1501W        W16632  12.782   0.487   1.522  0.0692 -0.1095  0.0406
 1502W        W16633  10.828   3.597   1.661  0.0684 -0.0829 -0.1221
 1503W        W16634  17.683  12.784  14.409  0.0511 -0.2139 -0.4926
 1504W        W16635  10.626   6.469  15.874  0.1924 -0.1797 -0.1888
 1505W        W16636  11.179  13.532  11.978  0.2171 -0.1678  0.1579
 1506W        W16637   3.238   5.311   3.133 -0.1772 -0.0160  0.1168
 1507W        W16638   6.177   0.934  13.091  0.3736 -0.0250 -0.0846
 1508W        W16639   2.266   7.743  14.880  0.2103  0.1179 -0.0064
 1509W        W16640  17.579   0.084   4.134 -0.0091 -0.1158 -0.1551
 1510W        W16641  14.478   4.961   1.143 -0.0895  0.1294 -0.0645
 1511W        W16642   0.539  11.250   2.907  0.0815 -0.1398 -0.0887
 1512W        W16643   0.206   6.948   3.629 -0.0037  0.1301  0.0044
 1513W        W16644  14.954  13.512   3.410  0.1033  0.0639 -0.0915
 1514W        W16645  17.189  11.499  13.165  0.2103  0.0917 -0.3804
 1515W        W16646   6.569  14.621   3.832 -0.0430  0.2028 -0.0087
 1516W        W16647  16.579   7.537  13.533  0.1108  0.2850 -0.0582
 1517W        W16648   2.508   2.675   1.561 -0.1071  0.1650  0.0218
 1518W        W16649   9.208   8.110   1.260 -0.1463  0.0625 -0.0658
 1519W        W16650   3.032   4.123   4.450  0.0485  0.0916 -0.2156
 1520W        W16651  10.011   9.783   4.890  0.0369 -0.0110 -0.0005
 1521W        W16652   1.977   7.173  14.906 -0.1888 -0.1098 -0.0281
 1522W        W16653   4.739   2.847   2.229  0.3376  0.0257  0.0896
 1523W        W16654  13.152   5.744   6.013  0.1123  0.2276  0.1000
 1524W        W16655   6.643   1.908  10.878  0.1654 -0.0400 -0.1493
 1525W        W16656   8.690   0.703   5.298  0.0882  0.2665  0.2270
 1526W        W16657   5.628  15.055  14.274 -0.0540 -0.2019 -0.0883
 1527W        W16658  15.593   2.120  13.719 -0.1357 -0.1150 -0.1120
 1528W        W16659  13.968  14.365   2.306  0.3696 -0.0397 -0.1804
 1529W        W16660   7.609  17.029  12.367  0.0691  0.2077  0.1402
 1530W        W16661   2.035   8.068   1.806  0.2043  0.1063 -0.2016
 1531W        W16662   6.188  17.059  14.903  0.1521  0.0381 -0.1695
 1532W        W16663   0.455   3.744  14.384  0.1233  0.0168  0.0577
 1533W        W16664  11.890   9.782  12.397  0.3022 -0.0309  0.0649
 1534W        W16665  11.518   3.103  12.260 -0.1852 -0.2194  0.0561
 1535W        W16666   9.584   1.176  16.138 -0.2103 -0.0119 -0.2271
 1536W        W16667   1.154   6.475   0.776 -0.0464 -0.3080  0.1812
 1537W        W16668   5.547   3.935  15.799 -0.1363  0.0721  0.0352
 1538W        W16669  15.359   5.424  11.870 -0.0568 -0.0669 -0.1845
 1539W        W16670   3.761  12.576   1.115  0.0719  0.1534 -0.0930
 1540W        W16671   4.830   9.460  14.359  0.1310  0.3133 -0.1001
 1541W        W16672  14.932   1.371   5.521  0.0086 -0.0099  0.2868
 1542W        W16673  13.083   4.274   3.860  0.0942 -0.0384  0.1260
 1543W        W16674  11.796   9.601  14.786 -0.0901  0.1333  0.2956
 1544W        W16675   2.004   2.358   1.270  0.0230 -0.1420  0.0334
 1545W        W16676   2.501   0.684   4.516  0.0288  0.0621  0.0205
 1546W        W16677  12.409  10.931   5.943 -0.0612  0.0889 -0.0446
 1547W        W16678   5.886  12.890  16.111  0.1811  0.0334 -0.1022
 1548W        W16679   7.819   5.771  13.656  0.1997 -0.2039 -0.1252
 1549W        W16680  14.561   7.875   5.245  0.1014 -0.4395 -0.1772
 1550W        W16681   3.357   3.786   4.404  0.2769 -0.0612  0.0612
 1551W        W16682  17.975  12.951   6.455  0.0363 -0.1436 -0.2230
 1552W        W16683  15.596   1.807   2.439  0.0197  0.1857  0.2328
 1553W        W16684   6.623  14.868  11.732  0.3181 -0.0461 -0.0864
 1554W        W16685  10.458   2.223  14.584  0.0132 -0.0753 -0.1611
 1555W        W16686   8.782  17.681  13.680 -0.2644  0.0447 -0.0188
 1556W        W16687   5.540   7.789  13.836 -0.1285  0.3847  0.0801
 1557W        W16688   1.885   9.406  11.293  0.2974 -0.0541  0.0335
 1558W        W16689   1.352   4.132  14.324  0.0325  0.0713  0.0210
 1559W        W16690  12.421  10.987   4.973 -0.0967 -0.0138 -0.0696
 1560W        W16691  15.376   1.247   0.843  0.0425 -0.0211  0.3521
 1561W        W16692   0.084  13.564  15.480  0.0449  0.1518 -0.1497
 1562W        W16693   7.400   5.938   0.017 -0.0798 -0.0630 -0.0813
 1563W        W16694   4.070  12.186   0.130 -0.0966 -0.2312 -0.1116
 1564W        W16695   9.330  13.683   0.826  0.3168 -0.0550  0.1524
 1565W        W16696   0.640   4.975  14.586 -0.0541  0.2835 -0.0961
 1566W        W16697   0.553  16.879   0.358  0.2782  0.0210  0.1843
 1567W        W16698   3.144   8.184  15.289 -0.1136 -0.0492  0.1537
 1568W        W16699   0.450   7.097   0.075  0.0389  0.0231 -0.2635
 1569W        W16700  14.581   6.329   5.003 -0.4516  0.0246  0.4234
 1570W        W16701   9.324  16.702   5.526 -0.0327  0.1137 -0.1058
 1571W        W16702   5.967   5.186   1.030 -0.0104  0.2197  0.1936
 1572W        W16703  17.669   7.772   1.740  0.0110 -0.0671  0.0429
 1573W        W16704   4.522   0.650  14.255  0.0767  0.3769  0.1332
 1574W        W16705   3.085  14.827   4.811 -0.3324 -0.1280 -0.1233
 1575W        W16706   1.048   9.683   1.010 -0.0681 -0.0829 -0.0621
 1576W        W16707   1.936   7.043   1.408 -0.1037 -0.1233 -0.0984
 1577W        W16708   0.814  10.634  15.970 -0.2652 -0.1464  0.0206
 1578W        W16709   0.537   9.908  11.385  0.0191 -0.0168  0.1332
 1579W        W16710   8.296   6.699  12.267  0.1985 -0.0314  0.1138
 1580W        W16711  10.052   8.938  11.236  0.1003 -0.2679  0.2215
 1581W        W16712   3.182   1.757   1.332 -0.3972 -0.0161  0.0372
 1582W        W16713  10.815  16.160  12.559  0.0368 -0.0260 -0.0573
 1583W        W16714  18.002   8.553  11.354  0.0566  0.0984 -0.0978
 1584W        W16715   3.167  15.280   4.983  0.2000  0.0458  0.0330
 1585W        W16716  12.586  12.401  10.998  0.1169 -0.3434 -0.0696
 1586W        W16717   9.416  12.088   1.724  0.0315 -0.1477 -0.0458
 1587W        W16718   3.082  12.785   4.956  0.2741 -0.1295  0.0467
 1588W        W16719   1.754   0.868   1.978 -0.1072  0.0031  0.0206
 1589W        W16720  10.759  16.339   1.902  0.1699  0.2916 -0.0036
 1590W        W16721  15.064   4.735  10.548 -0.2523  0.0359  0.4122
 1591W        W16722  15.012   7.405  13.782 -0.0590  0.0737 -0.1517
 1592W        W16723  12.741   6.090  12.903  0.0800 -0.1245  0.0797
 1593W        W16724   8.088  13.626   4.722 -0.0361  0.1879  0.0960
 1594W        W16725  13.274  15.423  11.466 -0.0464 -0.2243 -0.1261
 1595W        W16726   2.900   5.406   2.781 -0.0725  0.1034 -0.4399
 1596W        W16727   4.481  17.888  12.252  0.0673 -0.2789 -0.1380
 1597W        W16728   3.184   5.990  10.903 -0.1660  0.5080  0.1472
 1598W        W16729   4.480  11.128   1.946 -0.3780 -0.1508  0.1499
 1599W        W16730  14.407   4.879  11.898 -0.2252 -0.2246  0.0670
 1600W        W16731   8.215  17.218  11.193 -0.0292  0.2779 -0.1317
 1601W        W16732  15.660   8.597   1.503 -0.1900  0.1555  0.0512
 1602W        W16733  11.903   5.493   4.204 -0.0361  0.0597 -0.4116
 1603W        W16734   1.322  13.957   0.940 -0.1788 -0.1189  0.1744
 1604W        W16735  14.019   7.035  13.066 -0.2569  0.0520  0.3716
 1605W        W16736   3.707   8.208  11.178 -0.0345 -0.5809 -0.0145
 1606W        W16737   1.305  13.359   9.934 -0.2506 -0.0478  0.2095
 1607W        W16738   2.278  16.090   3.104  0.0910 -0.2478  0.2790
 1608W        W16739   5.879   8.377  12.134  0.0123  0.1950 -0.0034
 1609W        W16740   3.689   1.341   1.072 -0.0040 -0.1927  0.1077
 1610W        W16741   1.680  13.768  12.040  0.0776 -0.1697  0.0317
 1611W        W16742  16.234   1.020  16.039  0.1221 -0.1441 -0.1019
 1612W        W16743  13.303  10.917  12.219 -0.0657 -0.1051  0.2612
 1613W        W16744  15.877   2.215   2.295 -0.0876 -0.1860  0.0853
 1614W        W16745   0.012  15.281   2.070  0.3876  0.1588 -0.3317
 1615W        W16746   6.338   8.041   3.705 -0.4580  0.2785 -0.0447
 1616W        W16747   9.822  11.422  14.089 -0.1485 -0.1774 -0.1143
 1617W        W16748  10.176   1.466   0.752 -0.2620  0.0061  0.3676
 1618W        W16749   2.256  16.943  12.977  0.1614  0.1308  0.2516
 1619W        W16750  12.416   2.122   2.942  0.0378  0.2993 -0.2417
 1620W        W16751   0.784   5.068   3.086 -0.1920  0.0792  0.0299
 1621W        W16752  10.762  14.337  15.935  0.2260  0.1703  0.0743
 1622W        W16753   6.993   3.050   5.410  0.0393 -0.0070 -0.3219
 1623W        W16754   4.802   8.947   4.143 -0.0344 -0.0721 -0.1369
 1624W        W16755  17.140   2.648   2.668  0.0609  0.3472  0.0736
 1625W        W16756   6.099   7.302   0.564 -0.0199 -0.2063 -0.2139
 1626W        W16757  10.739   6.221   4.464  0.0471 -0.3861 -0.2911
 1627W        W16758   0.257   6.011  11.960  0.0665  0.0226  0.1965
 1628W        W16759  17.784   6.129   3.962 -0.0332  0.3559 -0.3573
 1629W        W16760   2.990   7.870  11.938  0.0721  0.0797  0.2662
 1630W        W16761   7.548   3.193  12.038  0.3075 -0.1720  0.2572
 1631W        W16762   1.296  12.910  14.622 -0.1054 -0.0842  0.1749
 1632W        W16763  11.861   9.502   5.679 -0.1523 -0.0631 -0.0927
 1633W        W16764  18.083   6.487   2.828  0.1441 -0.0085 -0.1628
 1634W        W16765   3.985  14.190   3.763 -0.0037 -0.0799 -0.0347
 1635W        W16766   3.674   8.584  12.959  0.1023  0.1076  0.1980
 1636W        W16767  16.380  15.571   4.922 -0.4187  0.3800  0.0851
 1637W        W16768   1.888   0.022  10.906  0.2649 -0.1854  0.2014
 1638W        W16769  16.167  17.144  12.878  0.0225  0.0688 -0.0262
 1639W        W16770  16.363  13.664   3.421 -0.5162 -0.3749  0.0970
 1640W        W16771   6.806   2.838  14.284  0.0767 -0.1237 -0.1280
 1641W        W16772   2.421   3.671  12.593  0.0723  0.1682 -0.0192
 1642W        W16773  12.361  11.280   3.284  0.1806 -0.0389 -0.1094
 1643W        W16774  16.537   2.339   0.150 -0.1016  0.1078  0.0139
 1644W        W16775   2.945   9.992   0.157 -0.0807 -0.1628 -0.0021
 1645W        W16776   3.997   7.430  12.223  0.0548 -0.2640 -0.1851
 1646W        W16777  14.236   6.580   1.311  0.0443  0.1764 -0.0090
 1647W        W16778  16.935  10.475  14.295  0.0507  0.0671 -0.2037
 1648W        W16779   5.741   8.719   1.720  0.2983 -0.0298 -0.2356
 1649W        W16780   9.801   7.805   2.664  0.0626  0.2674 -0.2970
 1650W        W16781   7.610  11.595  14.425  0.1002 -0.2196 -0.1955
 1651W        W16782   2.046   9.073   5.495  0.1086 -0.1030  0.0673
 1652W        W16783   5.703   9.759   1.743 -0.0418 -0.0664  0.2296
 1653W        W16784   6.313  13.501  14.425 -0.1817 -0.4297 -0.2027
 1654W        W16785  12.533   0.323  15.151 -0.1298 -0.0171 -0.3967
 1655W        W16786  10.253  14.803   5.434 -0.0321 -0.0198  0.2386
 1656W        W16787   3.992   9.493  11.144 -0.2743 -0.2913  0.0979
 1657W        W16788  12.940  15.763   0.546 -0.1017 -0.4005  0.2446
 1658W        W16789  13.423  10.515  15.456  0.3161  0.1329 -0.1569
 1659W        W16790   8.013   8.314  15.290 -0.1667  0.2735 -0.1734
 1660W        W16791   9.848  12.215  11.863  0.0426 -0.1860 -0.1245
 1661W        W16792  15.394   9.770  12.675 -0.0661 -0.2938 -0.2974
 1662W        W16793  14.983   0.730  12.314 -0.2410 -0.0501  0.2822
 1663W        W16794  11.601   6.424  13.802  0.0125  0.0073  0.2057
 1664W        W16795  14.016  17.194   4.287 -0.1890 -0.2744 -0.0042
 1665W        W16796  17.261   7.833   4.910  0.4976 -0.0488 -0.2174
 1666W        W16797   1.130   6.273  11.926  0.1773  0.2071  0.0338
 1667W        W16798   6.766   7.425  15.228 -0.1732  0.1078  0.0064
 1668W        W16799   6.134   2.838   1.122 -0.1566 -0.3141  0.0245
 1669W        W16800   8.141  15.544  12.601  0.3047  0.2940  0.0765
 1670W        W16801  13.074  13.697  10.766 -0.0444  0.0719 -0.0031
 1671W        W16802  10.326   4.547  13.570  0.2214 -0.1532 -0.1039
 1672W        W16803   4.584  13.097  11.228  0.1049 -0.0910 -0.2924
 1673W        W16804   1.363   3.578   5.446 -0.0177 -0.2544  0.0239
 1674W        W16805  14.233  13.989   2.471 -0.2406 -0.1118 -0.1965
 1675W        W16806   8.086  17.478   5.717 -0.0765  0.3179  0.1431
 1676W        W16807   3.062   7.356  14.898 -0.1925  0.2388 -0.1510
 1677W        W16808   0.655   5.426   5.026 -0.0830 -0.0047  0.0970
 1678W        W16809  11.133  10.709  10.495  0.0459  0.0839  0.2905
 1679W        W16810  11.781   5.500  15.828 -0.0359 -0.0583  0.0138
 1680W        W16811  16.665  16.984   5.009  0.0329  0.0940  0.0819
 1681W        W16812   2.893   7.081  13.294  0.1484  0.0344  0.2702
 1682W        W16813   8.134   4.477  12.592  0.1654 -0.2632  0.0311
 1683W        W16814  10.209   6.239  12.213  0.1580  0.0681 -0.0497
 1684W        W16815   8.849  17.307  12.627  0.2090 -0.1209 -0.0687
 1685W        W16816   2.057   9.067   2.343 -0.1566  0.1057  0.2183
 1686W        W16817   7.044   5.385  12.797 -0.1280 -0.0222  0.0924
 1687W        W16818  13.402  10.771   3.897 -0.1886  0.2539  0.0452
 1688W        W16819   7.601  10.854  13.029 -0.0640 -0.0401 -0.0825
 1689W        W16820   9.899   3.550   5.772  0.1414  0.1901 -0.0405
 1690W        W16821   1.767   7.071   0.355  0.1977 -0.0260  0.4735
 1691W        W16822   4.532  11.150   2.809  0.1303  0.0989  0.0212
 1692W        W16823   4.875   9.355  11.916 -0.0491 -0.1430 -0.0471
 1693W        W16824   7.539  17.366  13.678  0.1894  0.2884 -0.1421
 1694W        W16825  12.415   6.150   0.060 -0.2358  0.0156 -0.2390
 1695W        W16826  10.869   7.266  13.355 -0.0029 -0.1882 -0.2082
 1696W        W16827  15.392   7.750  13.841 -0.0363  0.1522 -0.2313
 1697W        W16828   8.761  11.344  13.141  0.1182 -0.0300 -0.0683
 1698W        W16829   8.073   0.707   4.851 -0.0379 -0.1218  0.0972
 1699W        W16830   4.050  13.635  10.444  0.2565  0.0689  0.2733
 1700W        W16831   3.400  10.508  14.521 -0.2068  0.1469  0.1298
 1701W        W16832  16.922  16.106  13.227 -0.0777 -0.0002 -0.1947
 1702W        W16833   7.738  10.889   3.848 -0.1055 -0.1633 -0.0087
 1703W        W16834   2.804  14.301  13.000  0.0099 -0.0166  0.2586
 1704W        W16835  11.257  10.222  15.019 -0.1863 -0.0320  0.2295
 1705W        W16836   5.703  14.838   2.417  0.2638  0.3188 -0.2370
 1706W        W16837  12.890   6.287   2.325 -0.2700  0.2463 -0.1368
 1707W        W16838  12.596   6.311  11.962  0.0553 -0.0499  0.1628
 1708W        W16839   5.854   6.353  14.314 -0.1484 -0.1133  0.1110
 1709W        W16840   9.063   6.592  11.250 -0.0321 -0.0232 -0.0786
 1710W        W16841  17.985  10.690   5.657  0.0300 -0.0629 -0.0819
 1711W        W16842  10.739   8.542   4.210  0.0851  0.1084  0.1241
 1712W        W16843  12.260  10.883   5.444  0.3456 -0.0858  0.2853
 1713W        W16844   5.494   5.319   1.679  0.0087 -0.0130 -0.1864
 1714W        W16845   9.819   8.326   2.822  0.1874  0.3211 -0.1265
 1715W        W16846   9.622   3.942  13.006  0.0749 -0.4993  0.2006
 1716W        W16847   1.952   0.569  11.026  0.3347  0.0777  0.1472
 1717W        W16848  10.025  12.441   3.482  0.0263  0.0070 -0.4271
 1718W        W16849   5.056   0.277   1.348  0.2973  0.0070 -0.0347
 1719W        W16850   0.910   9.365  12.845  0.2926 -0.1826 -0.2506
 1720W        W16851  16.682   9.886   2.095  0.2490 -0.4113  0.0231
 1721W        W16852   2.835  15.904   2.900  0.1129 -0.0905 -0.2028
 1722W        W16853   3.782   0.612  11.413 -0.0074  0.0416 -0.5290
 1723W        W16854   5.780   3.827   0.882  0.3231  0.1381  0.0667
 1724W        W16855   8.143  17.484   3.974 -0.2726 -0.2605 -0.1612
 1725W        W16856   2.228   0.494   4.126  0.0134  0.3138 -0.0593
 1726W        W16857   8.820   5.937   0.581  0.0759 -0.1280  0.2859
 1727W        W16858   5.969  17.553   4.161  0.0204 -0.2859 -0.2244
 1728W        W16859   3.546   3.739  14.677  0.0816 -0.0878  0.0552
 1729W        W16860   1.285   4.483   4.373  0.0342  0.2351 -0.0266
 1730W        W16861  12.553   4.401  15.776 -0.2391  0.3925  0.1229
 1731W        W16862  17.233   1.717   5.679  0.2154  0.0061  0.1608
 1732W        W16863   8.243  10.862  15.767 -0.0840 -0.2186 -0.0991
 1733W        W16864  11.732  16.097   3.118 -0.1206 -0.2963 -0.1848
 1734W        W16865  11.911   2.873   3.523  0.1685 -0.0824 -0.1475
 1735W        W16866  13.985   8.798   1.239 -0.4161 -0.1237 -0.1202
 1736W        W16867  12.884   9.536   5.314  0.1161  0.2035 -0.2715
 1737W        W16868   8.497   5.024   0.216  0.1092  0.0985 -0.0267
 1738W        W16869   5.138   5.187   2.467 -0.2681  0.0149  0.4343
 1739W        W16870  12.984   1.420  15.914  0.2324 -0.0541  0.1200
 1740W        W16871  16.015  17.042   4.116 -0.1187  0.1569 -0.0496
 1741W        W16872  15.364  10.806   5.081 -0.0005 -0.0412 -0.3865
 1742W        W16873  17.048  12.457  11.365 -0.0933  0.1512 -0.3699
 1743W        W16874  14.575  10.864   3.958  0.1464 -0.0634  0.0771
 1744W        W16875   9.848   3.304   2.332  0.2062  0.2871  0.1291
 1745W        W16876  10.126  14.250   2.051 -0.0530 -0.0014  0.0323
 1746W        W16877   1.509   8.649  16.244 -0.1315  0.0132 -0.0536
 1747W        W16878   9.214   9.648  13.469 -0.3147  0.0488 -0.0862
 1748W        W16879   0.812  15.257   3.488  0.1307 -0.1620  0.0518
 1749W        W16880  16.054   4.975  11.723 -0.0503 -0.0044  0.0760
 1750W        W16881   1.479   0.320  15.300  0.3474  0.1640  0.2057
 1751W        W16882  15.034  17.749  14.240 -0.2806  0.2400 -0.1092
 1752W        W16883  17.604   8.861  14.159 -0.0005  0.0675 -0.0765
 1753W        W16884   6.650   9.557   5.385  0.0012 -0.2681 -0.1572
 1754W        W16885  15.189   1.466  15.122 -0.0896  0.0067  0.0601
 1755W        W16886   1.667  16.027  15.301  0.0118  0.0018 -0.1228
 1756W        W16887   6.339   7.082   5.286 -0.2348 -0.1518 -0.1657
 1757W        W16888  14.117  11.325   1.413  0.0447 -0.1087 -0.0981
 1758W        W16889  12.273   1.038  15.339  0.0099 -0.1303  0.0934
 1759W        W16890   1.463  16.652   2.823 -0.0573  0.1795 -0.1148
 1760W        W16891  17.492  11.275  14.786 -0.0547  0.0004  0.0098
 1761W        W16892  16.668  14.262  15.697  0.2189 -0.0904  0.0584
 1762W        W16893   3.590   6.171  10.693  0.2112  0.0328  0.3219
 1763W        W16894   7.747   4.356  12.365  0.1152  0.1323 -0.0280
 1764W        W16895  10.465  10.006   4.617  0.1123 -0.0143  0.1036
 1765W        W16896   5.760   1.647  15.926 -0.1838 -0.0068  0.0602
 1766W        W16897  17.910   2.825   1.352  0.0380  0.0047  0.0062
 1767W        W16898  13.339   8.074   5.177 -0.0579 -0.2432  0.0805
 1768W        W16899   7.138   8.927  13.410  0.0108 -0.0950 -0.1448
 1769W        W16900   5.137  16.706   0.525  0.1387 -0.0811  0.3671
 1770W        W16901   8.290  11.566   0.502 -0.2155 -0.3830 -0.1726
 1771W        W16902   3.217  13.617  10.232 -0.3143 -0.0346 -0.3257
 1772W        W16903   1.851   8.973   4.579  0.2639  0.1257 -0.0761
 1773W        W16904  10.875  13.313   3.289  0.1504  0.0382  0.0098
 1774W        W16905   5.615   5.647  12.129  0.1204  0.1629 -0.0776
 1775W        W16906  14.439  12.524  14.036  0.1154 -0.0918 -0.1793
 1776W        W16907   7.544  11.206  13.377  0.0435 -0.1238 -0.0337
 1777W        W16908  11.403   5.811   4.076 -0.0091 -0.1268 -0.0069
 1778W        W16909   1.381  11.993  11.185 -0.2873  0.0103 -0.0516
 1779W        W16910   5.234   0.025  12.057  0.2634 -0.1871 -0.2099
 1780W        W16911  11.697   5.117   2.501 -0.2179 -0.0049 -0.4275
 1781W        W16912  15.769   3.131  15.320 -0.1608  0.0601  0.1004
 1782W        W16913   4.258   6.197   4.603  0.2604  0.0882  0.0031
 1783W        W16914  12.615  10.885  15.348 -0.2929  0.0779  0.0715
 1784W        W16915   4.435  11.435   1.454 -0.0644  0.0136 -0.0136
 1785W        W16916   8.819   6.651   0.915 -0.0873  0.0814 -0.0885
 1786W        W16917   3.481  14.473   1.573 -0.0931  0.0907  0.0443
 1787W        W16918   9.700  11.098   1.242 -0.1393  0.0813 -0.0069
 1788W        W16919   5.467   2.545  11.292 -0.1168  0.0390 -0.0541
 1789W        W16920  12.897   6.051  11.640  0.0413  0.0057  0.3064
 1790W        W16921  13.261  15.085   2.205  0.0931  0.1726 -0.3102
 1791W        W16922   4.142  12.830  11.441 -0.0226  0.0037  0.0840
 1792W        W16923   7.021   5.916   1.178 -0.0583 -0.0965 -0.1242
 1793W        W16924  12.805  14.906  14.808 -0.2304  0.1662 -0.0545
 1794W        W16925  11.543   8.542   3.806 -0.0687 -0.0042  0.2743
 1795W        W16926  10.684  17.691  12.067  0.0069  0.3193  0.2392
 1796W        W16927  11.211   0.413   0.838 -0.1471 -0.1074 -0.1643
 1797W        W16928  17.520  16.814  11.019  0.0699 -0.0842 -0.0961
 1798W        W16929   2.705   1.926  13.566 -0.1605  0.0134 -0.1201
 1799W        W16930   7.723   9.098   2.837  0.2260  0.3806  0.0808
 1800W        W16931   0.875   0.050   0.740  0.0936  0.1708  0.4304
 1801W        W16932   1.705  17.410  11.485 -0.3765  0.0450 -0.1344
 1802W        W16933   3.561   4.609   0.043  0.0562  0.2214  0.0266
 1803W        W16934   1.332  17.981   0.383 -0.0822 -0.2926  0.3478
 1804W        W16935   0.309   3.860  10.863  0.2667 -0.0882 -0.2188
 1805W        W16936   3.487  15.408   4.335 -0.1678 -0.2816 -0.2362
 1806W        W16937  14.465  14.420   4.923  0.1127 -0.0779 -0.0731
 1807W        W16938  12.142  16.238  15.163 -0.0793  0.3158 -0.0477
 1808W        W16939   4.718  10.659  16.095 -0.0722 -0.1762 -0.2454
 1809W        W16940   0.755   8.709  15.427 -0.0721  0.1106  0.1295
 1810W        W16941  17.387   0.998  15.369  0.0153 -0.2118  0.1938
 1811W        W16942   8.248   7.257  11.524 -0.1457  0.1875 -0.1715
 1812W        W16943  14.288  12.720   4.130  0.3252 -0.1019  0.1490
 1813W        W16944   6.692   0.312  14.287 -0.1262 -0.1347  0.0164
 1814W        W16945   3.445  10.946  15.391 -0.0565 -0.2111  0.0341
 1815W        W16946   2.506   1.990  11.074  0.1735  0.3037  0.0489
 1816W        W16947  15.920  14.464   2.233  0.0394 -0.1950  0.0678
 1817W        W16948   6.232   3.008  12.347 -0.2877 -0.1225 -0.1101
 1818W        W16949   4.927   3.635   3.945 -0.0732 -0.1551 -0.2016
 1819W        W16950  14.358   9.125  13.305 -0.0314  0.0263  0.0523
 1820W        W16951   6.965   2.613  10.998 -0.2225 -0.0483  0.0518
 1821W        W16952  17.579  14.448  13.992 -0.0849 -0.2702  0.1929
 1822W        W16953   2.798   9.271  14.436 -0.0060  0.3839 -0.2067
 1823W        W16954   7.059   5.496  15.319  0.3771  0.2374 -0.2029
 1824W        W16955   2.783  16.654  13.916  0.2053 -0.1218 -0.0597
 1825W        W16956  16.261  13.706  13.345 -0.2021  0.1694  0.3443
 1826W        W16957  12.243   1.576   3.664 -0.4396 -0.3993 -0.0867
 1827W        W16958  10.328  13.947  14.861  0.1144  0.0815  0.0175
 1828W        W16959   2.550  17.585  13.499  0.2674 -0.1689 -0.0754
 1829W        W16960   1.297   6.769   4.355  0.1488  0.1697  0.2345
 1830W        W16961   6.643   0.144  16.232 -0.1242 -0.2539  0.1200
 1831W        W16962   1.907  10.252  13.347  0.0912 -0.1078  0.1596
 1832W        W16963   1.611   8.637  13.008  0.0735 -0.2883 -0.2829
 1833W        W16964   4.464  15.016  16.050 -0.1634  0.0794 -0.1142
 1834W        W16965   2.057   1.631   1.851 -0.0562 -0.1428 -0.1443
 1835W        W16966  11.488   9.555  14.245  0.2693  0.2068  0.1184
 1836W        W16967  10.551   5.302   2.070  0.0079  0.1668  0.2438
 1837W        W16968  17.231   2.085  12.835 -0.2705 -0.0712 -0.3463
 1838W        W16969  10.361   4.494   0.175 -0.0677 -0.2814 -0.1146
 1839W        W16970   7.166   2.808   3.569  0.2721  0.0562 -0.0727
 1840W        W16971   6.289   5.235  14.119  0.0146  0.0275 -0.0115
 1841W        W16972  17.177   5.025   3.497 -0.0031 -0.2127 -0.3288
 1842W        W16973  17.941   1.780  15.021  0.0478  0.3419  0.0493
 1843W        W16974  13.111   8.002  13.576  0.0905  0.1202 -0.0054
 1844W        W16975  10.452   0.917   9.869  0.1064  0.1214 -0.0146
 1845W        W16976   5.864   6.474  11.968  0.1916 -0.2043 -0.0572
 1846W        W16977  10.294  14.259  12.686  0.2550 -0.2045  0.1365
 1847W        W16978  15.809  17.421   0.450 -0.0568 -0.1828  0.1237
 1848W        W16979   9.212  15.780  12.473 -0.1401 -0.0045 -0.0236
 1849W        W16980  14.502  14.409   3.447  0.1336 -0.2577  0.3477
 1850W        W16981   1.365   9.059   3.649  0.1236  0.1552 -0.2015
 1851W        W16982  14.134  15.284  13.716  0.1045 -0.0514 -0.1328
 1852W        W16983  12.537   0.437  14.651  0.0034 -0.1945  0.1759
 1853W        W16984  11.709  15.502   0.411 -0.0966  0.1321 -0.1688
 1854W        W16985   3.091  15.674  12.321 -0.1125  0.0577  0.0529
 1855W        W16986  11.238  12.981  15.751 -0.0641 -0.0653  0.0764
 1856W        W16987   2.262   2.481   4.674  0.4151 -0.0974  0.1768
 1857W        W16988  16.761  17.652  13.867  0.1864  0.2100  0.1030
 1858W        W16989   6.498   9.906   4.895 -0.1471 -0.0262 -0.0004
 1859W        W16990  17.613   5.012  15.433 -0.0912 -0.1545  0.2397
 1860W        W16991  11.483  11.838  14.892  0.0463  0.1197  0.0419
 1861W        W16992   9.149  11.644   2.361  0.0456  0.1505  0.0596
 1862W        W16993  12.847  10.880  12.408  0.0154 -0.0639 -0.3419
 1863W        W16994  10.842   3.268   0.918 -0.0741 -0.0619  0.3460
 1864W        W16995   0.213  13.861   5.089 -0.0938 -0.0212 -0.0396
 1865W        W16996  12.711  12.548  16.241  0.1915  0.1473  0.0592
 1866W        W16997   7.986   1.334  14.070 -0.1884 -0.1164  0.1694
 1867W        W16998  12.766   5.576   1.175 -0.1608  0.0507  0.1036
 1868W        W16999  13.556  10.233   0.157  0.0982 -0.2015  0.0285
 1869W        W17000  15.525  13.114   3.359  0.3121  0.0760 -0.0237
 1870W        W17001  12.144   6.210   3.301 -0.2110 -0.0058 -0.0373
 1871W        W17002   2.094  10.298  10.839  0.1091 -0.2160  0.1343
 1872W        W17003   2.236   8.159  15.176 -0.0336  0.1966 -0.1619
 1873W        W17004   8.453   4.559  14.041  0.1551  0.3336 -0.2695
 1874W        W17005   8.904   6.885   0.224 -0.3109 -0.0192  0.1915
 1875W        W17006  11.814  14.481  11.838 -0.0369 -0.0666  0.0302
 1876W        W17007  16.619  11.301  12.495 -0.2956  0.0462 -0.1477
 1877W        W17008   0.950   6.593  11.555  0.4724 -0.1798  0.0259
 1878W        W17009   5.688   7.212  11.078  0.2748 -0.0294 -0.2745
 1879W        W17010   6.566   3.159   4.997 -0.0751  0.0644 -0.0041
 1880W        W17011   5.045  12.927  11.811 -0.1519  0.0690 -0.0900
 1881W        W17012   8.178   1.678   1.770 -0.1004 -0.0951 -0.0423
 1882W        W17013   0.405   3.381   5.109 -0.1133 -0.0071  0.0146
 1883W        W17014   6.783  11.185  11.999 -0.1254  0.1860 -0.0548
 1884W        W17015   2.710   4.635  14.011  0.0280 -0.1315  0.0076
 1885W        W17016   9.841  10.000  14.774  0.0852 -0.0055 -0.0192
 1886W        W17017   3.357   0.984  12.791 -0.2210 -0.2624  0.1104
 1887W        W17018  11.765   4.743   2.834 -0.1554  0.1709  0.2635
 1888W        W17019   7.232  11.277   2.897  0.0477  0.0018  0.2191
 1889W        W17020  12.223   2.041  15.356  0.2817 -0.0279 -0.1665
 1890W        W17021  15.126  11.712   5.739  0.1767  0.2086 -0.2786
 1891W        W17022   0.362  10.273   0.505  0.0118  0.1986 -0.2194
 1892W        W17023   8.632  14.032   0.230  0.1697 -0.1072 -0.0025
 1893W        W17024  17.189   0.017  15.127  0.1519  0.1983  0.0824
 1894W        W17025   9.450   5.432  13.065 -0.1524 -0.2068 -0.2691
 1895W        W17026  13.304  10.149  10.804 -0.0320 -0.1455 -0.1538
 1896W        W17027   1.598  16.694   0.611  0.1049 -0.2010 -0.1976
 1897W        W17028   8.331   8.565   0.364  0.0298 -0.0882  0.0158
 1898W        W17029  16.114  10.903  13.903 -0.0461 -0.0484 -0.2438
 1899W        W17030   2.231  15.963   3.601 -0.2388 -0.0161 -0.0209
 1900W        W17031   1.700   4.207  12.813 -0.3794 -0.1621 -0.0326
 1901W        W17032  10.009   1.959   0.714  0.0852  0.1125 -0.1311
 1902W        W17033  17.652   5.753   2.572  0.0413  0.0400  0.1115
 1903W        W17034  16.621  18.019  15.114  0.2627 -0.0105  0.2799
 1904W        W17035   6.544   6.909   5.728  0.3165 -0.2864 -0.0658
 1905W        W17036  15.156   2.179   0.689 -0.0426  0.1706  0.4302
 1906W        W17037   6.070  10.740  13.362 -0.0148 -0.1553 -0.3065
 1907W        W17038  14.937  13.603  13.141  0.1890  0.0180 -0.1524
 1908W        W17039   7.082  15.548   3.692 -0.1537 -0.0206  0.0931
 1909W        W17040   6.168  13.558   0.512  0.0434  0.0735 -0.2041
 1910W        W17041   4.324   3.401   0.348  0.0530  0.0427 -0.1537
 1911W        W17042   1.550  10.345   1.260 -0.2661  0.3053 -0.0133
 1912W        W17043  10.343  15.723  15.169  0.1241 -0.0909 -0.0668
 1913W        W17044  14.805   9.234  14.883  0.2197 -0.0487 -0.0281
 1914W        W17045   9.174   8.445   2.231 -0.1019 -0.0013 -0.1852
 1915W        W17046   4.146  15.534   2.827 -0.0659 -0.2238 -0.1782
 1916W        W17047   4.644   2.371   3.557  0.1169 -0.1743 -0.2341
 1917W        W17048  11.821  10.330   4.644  0.4044  0.2168  0.4786
 1918W        W17049  17.627   5.038   1.289 -0.1983  0.0868 -0.2438
 1919W        W17050  12.737   2.648  11.030 -0.2732 -0.1325 -0.1157
 1920W        W17051  16.239  13.088   4.273  0.2159  0.1884 -0.0210
 1921W        W17052  12.030  16.818   0.344  0.1281  0.3061  0.1281
 1922W        W17053   4.868  12.588   3.269 -0.1525 -0.0637 -0.2182
 1923W        W17054  15.084   6.706   1.970 -0.2312  0.2855  0.0694
 1924W        W17055   1.181   5.778  11.805  0.1051  0.1274  0.0498
 1925W        W17056  11.357   4.414   0.952  0.0831 -0.2263 -0.1442
 1926W        W17057   1.778  13.018   2.568  0.1403  0.0944  0.1808
 1927W        W17058   0.937   9.936  13.721  0.1039 -0.1365  0.1601
 1928W        W17059   6.785   0.779  13.492  0.0421  0.0146 -0.0971
 1929W        W17060  12.573  10.411  13.886  0.3898  0.0173 -0.2203
 1930W        W17061   8.101   8.189   4.284  0.0518 -0.0319  0.2061
 1931W        W17062   9.906   3.427  13.663 -0.2105 -0.0274  0.0540
 1932W        W17063  16.135  16.512  15.450  0.2146 -0.0185  0.2254
 1933W        W17064   4.250   9.167  11.482  0.1392  0.1772 -0.0446
 1934W        W17065   3.521  11.605   6.281 -0.2890 -0.0427  0.1752
 1935W        W17066   8.771   2.638  11.155  0.0642  0.1631  0.2525
 1936W        W17067  14.393  10.670   0.078  0.1341 -0.3045  0.1532
 1937W        W17068   3.540   4.912  11.651  0.1415 -0.0392  0.1287
 1938W        W17069  14.908  11.664   5.100 -0.0247 -0.1991  0.2394
 1939W        W17070  12.227   1.953   4.024  0.0564  0.0515 -0.0598
 1940W        W17071   7.801   9.798   0.124  0.1052 -0.1021  0.2841
 1941W        W17072   9.922   6.130   4.078 -0.0875 -0.0278 -0.0096
 1942W        W17073   1.346   6.994   0.695  0.3553 -0.1018  0.0770
 1943W        W17074   8.830  15.657  15.184 -0.2478  0.2042 -0.0754
 1944W        W17075   9.290   2.105  12.954  0.0035 -0.0016 -0.2408
 1945W        W17076  10.706   0.187   0.594  0.0573 -0.2317 -0.0448
 1946W        W17077  16.684  12.551   1.623 -0.3005 -0.1266 -0.3214
 1947W        W17078   3.049  17.279   5.667  0.0193  0.0224 -0.3118
 1948W        W17079   1.775  10.461  13.772  0.2050 -0.1340  0.0323
 1949W        W17080  14.258   9.988   4.393  0.0376 -0.2482  0.1422
 1950W        W17081  12.364  12.362  13.216  0.0667 -0.1943  0.1078
 1951W        W17082  13.940  13.415   5.839  0.0011 -0.2191  0.1113
 1952W        W17083  13.887  11.631   6.229 -0.1956  0.0226  0.1776
 1953W        W17084   0.832   5.689   0.028 -0.1692 -0.2690 -0.3047
 1954W        W17085   7.833  14.509  11.851  0.1481 -0.0447  0.0527
 1955W        W17086  16.997  15.816  15.133  0.1599 -0.1435  0.2235
 1956W        W17087  16.664   6.481   1.304  0.0599 -0.0175 -0.1630
 1957W        W17088   1.579   5.650  12.168 -0.0247 -0.1813  0.2236
 1958W        W17089   0.943   6.680   2.354 -0.3505  0.1039 -0.1125
 1959W        W17090  11.374   6.415  10.276  0.2848 -0.0273  0.0199
 1960W        W17091  17.047  18.073  15.998 -0.0407  0.0645 -0.2699
 1961W        W17092   9.794   6.475   2.057 -0.2385 -0.2259 -0.1182
 1962W        W17093   5.316  13.748  15.998  0.1343  0.0055 -0.0708
 1963W        W17094  15.602   7.853  12.982  0.0323 -0.3511 -0.0983
 1964W        W17095   7.903   3.780  12.954 -0.1096 -0.0922 -0.2147
 1965W        W17096  11.042  17.069  12.173 -0.1691  0.1995  0.0792
 1966W        W17097   9.068  12.469   1.358  0.1044 -0.1101  0.0422
 1967W        W17098   8.137   3.078  12.226 -0.0703  0.1472 -0.1508
 1968W        W17099  10.694   4.163  11.631 -0.1268 -0.1039 -0.4239
 1969W        W17100  16.744  10.452   0.906  0.2057 -0.2296 -0.1282
 1970W        W17101   0.825   7.214  12.373  0.1455  0.0549  0.2044
 1971W        W17102  13.586   5.696   2.224  0.0075 -0.0367  0.1412
 1972W        W17103   7.714  12.893   1.203  0.2806  0.0842  0.0578
 1973W        W17104  16.792  11.847   0.342  0.2044 -0.4281  0.0116
 1974W        W17105   4.960  14.473  14.274 -0.0010 -0.1373  0.4061
 1975W        W17106  13.776  14.067  13.654  0.1142 -0.0048 -0.1026
 1976W        W17107   2.839  16.713  14.569 -0.2139 -0.1982 -0.2885
 1977W        W17108  15.802   6.436   2.982 -0.0240 -0.1175  0.1242
 1978W        W17109   0.501   8.850  14.049  0.0294 -0.0811  0.1828
 1979W        W17110  14.883   8.780   4.749 -0.2079 -0.0098 -0.0347
 1980W        W17111   6.705  15.730   0.839 -0.2811  0.3054  0.0504
 1981W        W17112   5.330  17.176   4.030  0.5153 -0.2653 -0.1298
 1982W        W17113   8.216  13.753   0.422 -0.2529 -0.0262  0.0099
 1983W        W17114   4.233  17.827  10.949  0.0405 -0.0896  0.1785
 1984W        W17115  13.968   7.837   3.819 -0.1729 -0.1948  0.1084
 1985W        W17116  17.553   3.069   4.170  0.0889 -0.1573  0.0383
 1986W        W17117   2.428   0.963  15.173 -0.0120 -0.0734  0.5195
 1987W        W17118  11.620   7.495   0.459 -0.0657  0.0589  0.2475
 1988W        W17119   4.475  13.412   3.595 -0.0036 -0.0336  0.1213
 1989W        W17120   8.774  17.630  10.935 -0.0958  0.1546 -0.1539
 1990W        W17121   7.765  17.914  13.342  0.2810  0.3141  0.3356
 1991W        W17122   4.261  17.692  13.041 -0.2218  0.1399 -0.2064
 1992W        W17123  16.099   6.706   1.862 -0.2608  0.1328 -0.1362
 1993W        W17124  15.752   0.086  11.966  0.1764  0.1048  0.5867
 1994W        W17125  12.973   0.663   0.723 -0.1180 -0.2671 -0.1821
 1995W        W17126  15.487  16.715  14.433 -0.0444 -0.3657  0.4366
 1996W        W17127  15.591   3.358   1.191 -0.1898  0.2698 -0.2137
 1997W        W17128  11.827  15.400  14.002  0.0124  0.2221 -0.2172
 1998W        W17129   0.683   4.232  15.632  0.1088  0.1021 -0.0436
 1999W        W17130   3.711  12.873  11.792 -0.4176 -0.0990  0.1032
 2000W        W17131  16.264  13.209  13.303 -0.1793 -0.3232  0.1924
 2001W        W17132  18.035   0.446  16.194 -0.0571  0.1333 -0.0843
 2002W        W17133   5.873  10.453   3.582  0.0401  0.4543 -0.1696
 2003W        W17134   4.769  15.502   4.849 -0.0310  0.0688  0.1431
 2004W        W17135  16.811  15.162  14.059 -0.2493 -0.0262  0.0477
 2005W        W17136  16.743   3.487   4.186  0.1134  0.3379 -0.1098
 2006W        W17137   9.891   8.098  11.627  0.0588  0.3045 -0.0560
 2007W        W17138  12.378   7.913  11.743 -0.3612  0.1523 -0.0884
 2008W        W17139  11.635   0.638   0.776 -0.1784  0.0660  0.2381
 2009W        W17140   8.947   9.939   1.079 -0.1041 -0.0971 -0.1721
 2010W        W17141  11.761  14.134  14.859 -0.3659 -0.0861 -0.0070
 2011W        W17142   9.166   2.367  11.341 -0.0653  0.1051  0.0255
 2012W        W17143   1.691   0.642   0.946  0.0428  0.0073 -0.2608
 2013W        W17144  11.307  13.219   0.965 -0.2675 -0.0998  0.0602
 2014W        W17145   4.621  17.758  13.374  0.0440 -0.0245  0.0887
 2015W        W17146  10.946   9.942  13.303  0.1613  0.0599 -0.0661
 2016W        W17147   1.551   5.202   2.690 -0.0509 -0.1613 -0.4503
 2017W        W17148   2.485  17.503   4.002 -0.2918  0.1586 -0.0378
 2018W        W17149  13.386   1.708  15.660  0.0355  0.1064 -0.1284
 2019W        W17150   3.329  11.991   2.563 -0.0051  0.0772 -0.2874
 2020W        W17151  13.188  10.538   5.123  0.2800 -0.3997 -0.1294
 2021W        W17152   4.087   2.778  11.244 -0.2887 -0.1348 -0.3529
 2022W        W17153  11.567  13.745   2.166  0.2143 -0.3041 -0.3226
 2023W        W17154  11.842  10.456   3.315  0.1823 -0.2854  0.2264
 2024W        W17155   9.405  13.186  14.273  0.0748  0.3103 -0.1449
 2025W        W17156   4.185   4.238  13.503  0.1214  0.0536 -0.0557
 2026W        W17157   6.045   2.592  10.606  0.2549 -0.1578  0.0835
 2027W        W17158   5.023  12.727   0.721 -0.2917 -0.1332 -0.1519
 2028W        W17159   7.196  11.374  14.645  0.1099 -0.0059 -0.1024
 2029W        W17160   6.872  15.406   1.616 -0.2278  0.0868  0.2082
 2030W        W17161  13.542   0.693  14.146  0.1087  0.0273 -0.0183
 2031W        W17162   7.704   4.889  12.981 -0.2403 -0.1190 -0.0229
 2032W        W17163  15.667  16.615  12.188 -0.1532  0.0166  0.2243
 2033W        W17164   0.538  11.909  11.296  0.1085 -0.1098 -0.2170
 2034W        W17165  13.707   1.797  12.053 -0.1395 -0.2204 -0.4236
 2035W        W17166   8.333   1.660  12.962  0.0296 -0.0142 -0.0557
 2036W        W17167   4.532   5.903   4.245  0.2317 -0.1704 -0.0832
 2037W        W17168   5.394  17.100  14.480 -0.1487 -0.1428  0.2063
 2038W        W17169  14.539  13.248  13.794 -0.3547  0.1072 -0.2613
 2039W        W17170   6.937   2.746   1.550 -0.0169  0.2054  0.0301
 2040W        W17171  12.758   4.859  15.768  0.2173  0.2633  0.0099
 2041W        W17172  15.837   5.937   3.030  0.2382  0.1264 -0.0361
 2042W        W17173  13.658   4.009   6.040  0.0925 -0.4391 -0.4071
 2043W        W17174   0.396  17.007   1.169 -0.2002  0.3637  0.0353
 2044W        W17175   9.207   5.783   2.257 -0.1662 -0.3311  0.2003
 2045W        W17176  10.712   3.906  13.541  0.0510 -0.0854 -0.1339
 2046W        W17177  15.766   3.958   1.099 -0.4604 -0.0385  0.0901
 2047W        W17178  11.031   9.116  11.492  0.3144 -0.0377  0.1138
 2048W        W17179   5.492  16.638   3.300  0.3715  0.1509 -0.0415
 2049W        W17180  14.149  10.495   1.649 -0.0607 -0.1392  0.0623
 2050W        W17181  14.796   2.248  15.053 -0.2336 -0.4048 -0.0620
 2051W        W17182  17.017  10.332  13.458  0.1563 -0.0184  0.0929
 2052W        W17183   2.759   6.664  11.266 -0.0473 -0.1241  0.2209
 2053W        W17184   6.035   4.517   2.066 -0.3072  0.0185 -0.0697
 2054W        W17185   3.740   2.637   2.401  0.0181  0.1254  0.2384
 2055W        W17186   5.182   5.545  10.298 -0.2383 -0.0814 -0.0156
 2056W        W17187   5.770   2.028   3.982  0.2732 -0.1921  0.2013
 2057W        W17188   3.606  13.844  12.936 -0.0113 -0.2191  0.2310
 2058W        W17189   3.872   4.457  14.476  0.0403  0.1737  0.1843
 2059W        W17190  10.453   9.283  12.355 -0.1640 -0.1921  0.0121
 2060W        W17191   0.060   2.450   2.382 -0.2102  0.1611 -0.2934
 2061W        W17192   6.910  12.396   1.426 -0.3127  0.1067  0.2409
 2062W        W17193  12.048  12.024  13.542  0.2839  0.0990  0.1725
 2063W        W17194   4.535  13.461   5.236  0.2025 -0.0219  0.1003
 2064W        W17195  14.398  10.048   2.763 -0.0233 -0.2622  0.2207
 2065W        W17196  15.851  14.740  12.037  0.1919  0.0166  0.4734
 2066W        W17197   6.380  14.548  12.921  0.0602 -0.1929  0.0450
 2067W        W17198   7.082  14.686   3.589 -0.1668  0.0669 -0.0926
 2068W        W17199   2.049   3.202   1.839  0.0360  0.1136  0.0686
 2069W        W17200  14.487   0.883   4.146 -0.0265 -0.2115 -0.1150
 2070W        W17201  12.491  14.323   3.646 -0.1221  0.1202 -0.2067
 2071W        W17202   7.157  14.290  15.140 -0.0575  0.0026  0.1705
 2072W        W17203   2.010  14.515  13.182  0.0230 -0.0346 -0.0065
 2073W        W17204  16.653   9.058   0.333  0.0314  0.0602 -0.1601
 2074W        W17205   7.810   9.777  15.041 -0.0786 -0.1160 -0.2060
 2075W        W17206   6.406   0.249  14.713 -0.0528  0.2239 -0.0194
 2076W        W17207  10.446   5.730   1.113 -0.1360  0.0553 -0.0015
 2077W        W17208  15.383  16.913  14.932  0.0667 -0.1467 -0.1495
 2078W        W17209   2.350  15.652   2.748 -0.2338  0.0181  0.0827
 2079W        W17210  17.946   0.212   0.988 -0.0307  0.2250 -0.2664
 2080W        W17211  11.814   5.239  12.551  0.0806 -0.1301 -0.2572
 2081W        W17212  10.328   5.179  13.272  0.1588 -0.2480  0.0068
 2082W        W17213   7.763   0.409  15.007 -0.1345 -0.0473 -0.0767
 2083W        W17214   5.493  18.087  15.499 -0.0722 -0.2027 -0.1229
 2084W        W17215  17.185   8.399   5.866  0.0317  0.1048 -0.1855
 2085W        W17216  15.694   3.214   0.393 -0.0910 -0.2189 -0.0466
 2086W        W17217   8.191  13.270   2.885 -0.1911 -0.0019 -0.0210
 2087W        W17218  16.678   6.181  10.975 -0.0531  0.0023  0.1110
 2088W        W17219   1.846  14.007  13.054  0.0850  0.2239  0.1994
 2089W        W17220  17.499   0.628  10.739  0.2875 -0.0332 -0.2843
 2090W        W17221   9.258   1.057   2.360 -0.1182  0.1039 -0.0155
 2091W        W17222  16.050   8.928  14.084  0.1809  0.3616 -0.1231
 2092W        W17223   3.409   9.169  11.840  0.1234 -0.2086  0.0873
 2093W        W17224  16.084  13.570  15.674  0.2512  0.1434  0.0551
 2094W        W17225  15.621   0.294  15.898 -0.1199  0.1494 -0.0706
 2095W        W17226   8.708   3.191  15.922  0.0625 -0.1264 -0.3186
 2096W        W17227  13.589  14.965   0.551 -0.0455 -0.0525  0.3081
 2097W        W17228   4.790  16.643  10.585  0.2029  0.3867 -0.1631
 2098W        W17229   0.999   4.792   3.458  0.2493  0.1316  0.0786
 2099W        W17230  17.726   2.027  12.658 -0.2713  0.0633 -0.3050
 2100W        W17231   2.195   0.995  13.896 -0.1339 -0.4931  0.1551
 2101W        W17232   9.609  12.766  14.025  0.0231  0.2670 -0.1406
 2102W        W17233  12.259  14.306  14.859  0.3014  0.1798  0.0049
 2103W        W17234   0.926   5.639  11.233 -0.1690 -0.1035  0.0109
 2104W        W17235   5.909  15.095  12.409 -0.0437 -0.0842 -0.0521
 2105W        W17236  14.618   6.808   1.010 -0.1644 -0.0276 -0.3482
 2106W        W17237  17.207   2.956   5.366 -0.1088 -0.0011  0.1095
 2107W        W17238   6.167  16.425   0.436  0.0241 -0.2682 -0.0500
 2108W        W17239   6.621   4.081  13.868 -0.0237 -0.0606  0.2553
 2109W        W17240   9.744  15.193  14.812 -0.0035 -0.1813 -0.0507
 2110W        W17241  14.492  15.655  13.694  0.2107 -0.0911  0.0806
 2111W        W17242  10.231   5.646  15.838  0.0144  0.0038 -0.1218
 2112W        W17243   8.663   9.698   5.254 -0.0880  0.1597 -0.0678
 2113W        W17244   2.558   1.485   0.570 -0.1309  0.0823  0.0014
 2114W        W17245   7.088   8.362   2.351  0.1172  0.1704  0.2626
 2115W        W17246   5.840   4.747  12.474 -0.1183 -0.1585  0.0208
 2116W        W17247   3.098   9.458  15.008 -0.3903  0.1927  0.2031
 2117W        W17248  11.651   6.357   5.147 -0.3652  0.2917  0.2203
 2118W        W17249   0.822  12.390   4.683 -0.0596  0.0055 -0.2097
 2119W        W17250   7.926   9.436  15.488  0.0247 -0.1479  0.2294
 2120W        W17251  12.594  11.492   2.283 -0.0238  0.0160  0.3946
 2121W        W17252  17.822   4.571  12.338 -0.0212  0.1906  0.4250
 2122W        W17253   0.996   0.036   4.404 -0.1972  0.1458  0.5050
 2123W        W17254   8.421  10.067   2.186  0.0908  0.2084  0.0604
 2124W        W17255  13.704   9.792   2.088 -0.0074 -0.1932 -0.1286
 2125W        W17256   0.534   3.619  15.424  0.0680 -0.1101 -0.2604
 2126W        W17257   5.232  12.230  12.734  0.3043 -0.2635 -0.0322
 2127W        W17258  10.536  14.116  11.328  0.0174 -0.1910  0.0533
 2128W        W17259  15.360   3.122   3.301  0.0877 -0.0788  0.2052
 2129W        W17260  13.138   8.485  13.833 -0.1376 -0.1893  0.1985
 2130W        W17261   7.063  12.245  14.359 -0.2354  0.3971  0.1441
 2131W        W17262  11.554   8.467   5.742 -0.1016  0.1571 -0.1695
 2132W        W17263  11.377   0.034  15.192 -0.1176  0.4388 -0.3139
 2133W        W17264  12.492   0.293   2.832  0.1382 -0.1199 -0.1480
 2134W        W17265   8.892   9.669  11.260  0.1916  0.0446  0.0632
 2135W        W17266  12.794   7.899  15.895 -0.2493 -0.0943  0.2212
 2136W        W17267   4.353   8.874  13.279 -0.0809 -0.0114 -0.0708
 2137W        W17268   2.599   7.318   5.265  0.0162 -0.0389 -0.1734
 2138W        W17269   6.689  11.702  12.629 -0.0342  0.2970  0.0104
 2139W        W17270  15.464  15.595  14.773  0.1050 -0.2358 -0.1665
 2140W        W17271   4.291   0.602  15.826 -0.0718 -0.1558 -0.0562
 2141W        W17272  12.947   0.495  14.896  0.1070  0.1376 -0.1533
 2142W        W17273  16.046  11.310   0.492  0.3165  0.0467 -0.0774
 2143W        W17274   6.336  14.367   2.784  0.0701 -0.3875  0.1768
 2144W        W17275   3.449  16.011   2.155 -0.0506  0.0789  0.0216
 2145W        W17276   0.187   4.790  12.232 -0.1144  0.0648 -0.2032
 2146W        W17277  15.454  15.240  12.652  0.1292 -0.1862  0.3331
 2147W        W17278   2.912   7.487  12.231  0.1487  0.0706  0.0011
 2148W        W17279  10.644   4.797   2.696  0.1001 -0.0529  0.2474
 2149W        W17280   0.639   4.975   2.274 -0.1065  0.0782 -0.0952
 2150W        W17281   4.550   7.634  15.156 -0.2921  0.1655 -0.2530
 2151W        W17282  15.616  12.912   1.290  0.0859  0.4354 -0.0771
 2152W        W17283  14.091   6.506  13.052 -0.0701 -0.0474 -0.3913
 2153W        W17284  17.508  12.697  12.972 -0.2711  0.1054  0.5638
 2154W        W17285   8.264  12.713  10.439  0.2620  0.3564 -0.1416
 2155W        W17286   8.314   0.821   3.122  0.0294 -0.2011  0.0666
 2156W        W17287  11.651   3.601  14.327  0.2100  0.0126  0.0156
 2157W        W17288   8.771  14.120   4.873  0.0063  0.0667  0.2367
 2158W        W17289   8.994  13.087  11.249  0.0699 -0.0541 -0.1315
 2159W        W17290   8.249   8.135  13.485  0.0949  0.2134 -0.1210
 2160W        W17291   9.423  10.930   2.245  0.0382 -0.0040 -0.0728
 2161W        W17292   8.459  17.377  13.341 -0.1441 -0.2874 -0.0527
 2162W        W17293   6.713  11.158   3.492  0.1029  0.0189  0.1957
 2163W        W17294   1.400  13.807   3.775  0.1560  0.3225 -0.1060
 2164W        W17295  12.295  16.215   0.993  0.4315  0.1447 -0.2218
 2165W        W17296   8.579   8.002  13.099 -0.0346 -0.0562  0.1433
 2166W        W17297   1.050   1.924   4.261  0.0055  0.2951  0.0586
 2167W        W17298   5.667  15.430  14.642  0.0662 -0.2164  0.0143
 2168W        W17299   5.931  14.206  11.967 -0.1400 -0.2826  0.2877
 2169W        W17300  10.023   4.296  14.370 -0.0569  0.0162  0.0800
 2170W        W17301  12.511  11.138  12.719 -0.0494 -0.0611 -0.2958
 2171W        W17302   8.035   6.899  11.833 -0.0937  0.1000  0.1721
 2172W        W17303  10.151   3.238   4.894  0.4338 -0.1446  0.0791
 2173W        W17304   6.608  17.320  14.581  0.1044 -0.1196 -0.0105
 2174W        W17305  11.239   3.763  13.410 -0.1533 -0.1606  0.3364
 2175W        W17306  11.535  10.611   5.696 -0.0481  0.2098 -0.0631
 2176W        W17307  16.867  15.985  12.523  0.0290  0.0129  0.2500
 2177W        W17308   8.747   7.623  15.111  0.2418  0.0001 -0.1904
 2178W        W17309   2.894   8.818  12.983  0.0841  0.0794 -0.0372
 2179W        W17310   4.671  15.635   0.404 -0.0551 -0.0495  0.0578
 2180W        W17311   8.108  17.727  11.299 -0.0702  0.1005 -0.0312
 2181W        W17312   1.757  14.337  10.818  0.0551  0.2186  0.0337
 2182W        W17313  15.053   3.566  15.024 -0.1241 -0.1288 -0.1749
 2183W        W17314  16.671   6.080  13.953  0.1837 -0.0907 -0.0116
 2184W        W17315   4.232   7.930  14.255  0.0030  0.1016  0.0028
 2185W        W17316   2.716   1.023   0.504  0.0384  0.1776  0.0034
 2186W        W17317   0.383   0.090   3.783 -0.0920 -0.3613 -0.1420
 2187W        W17318  11.916   0.524   4.755 -0.0444 -0.0501  0.0690
 2188W        W17319   1.600  16.523   6.275  0.1386 -0.1408  0.2448
 2189W        W17320   8.842  12.888   4.072  0.3801  0.0617  0.1564
 2190W        W17321  13.582  16.878   4.173 -0.1647  0.1409  0.2009
 2191W        W17322   5.321   2.041   1.478  0.4361  0.0150  0.1185
 2192W        W17323   0.759   3.015  13.803  0.2740  0.2808 -0.1669
 2193W        W17324   3.143   2.991   0.484  0.4136 -0.2388  0.2567
 2194W        W17325   0.405   4.584   1.551 -0.0837 -0.1280 -0.2483
 2195W        W17326   7.206   4.408  15.114  0.0722  0.1132 -0.0406
 2196W        W17327  15.769   3.109  14.756  0.0522 -0.1099 -0.0848
 2197W        W17328   8.036   0.731  12.580 -0.1232 -0.3857  0.1340
 2198W        W17329   8.777  12.541   0.069  0.0055  0.1366  0.0071
 2199W        W17330  12.104   1.242  12.901  0.0762 -0.2410 -0.0060
 2200W        W17331  10.534   8.600  11.234 -0.0355 -0.1743  0.1374
 2201W        W17332  15.998  13.049   5.882 -0.0434  0.0134 -0.1612
 2202W        W17333   2.244  13.114   4.530 -0.1120  0.3809 -0.0505
 2203W        W17334  11.295   1.191   1.553 -0.2123 -0.0110 -0.0532
 2204W        W17335  10.653  10.576  15.844 -0.3110 -0.1101  0.3838
 2205W        W17336   5.610   7.675   3.160 -0.0010  0.2008 -0.0328
 2206W        W17337   6.628  13.380   4.366 -0.2158  0.2177 -0.2324
 2207W        W17338   5.087   0.896  11.948 -0.4446 -0.3301  0.2294
 2208W        W17339   1.434  13.429   1.481  0.2557 -0.1426  0.0083
 2209W        W17340   0.548   9.399   3.493 -0.1110  0.1209 -0.2254
 2210W        W17341   1.324   4.208   2.973  0.2574 -0.1821  0.0966
 2211W        W17342   8.770  16.662  10.274  0.2807  0.0354  0.1755
 2212W        W17343   8.478   9.840   3.865  0.0379  0.1924  0.0131
 2213W        W17344  13.189  17.045   0.993  0.0924  0.2652  0.1767
 2214W        W17345  12.529  14.721  11.887 -0.1036  0.2371  0.0377
 2215W        W17346   0.127   4.995  14.696  0.2037 -0.0893 -0.2597
 2216W        W17347  12.334  13.972   6.271  0.1585  0.0350 -0.1582
 2217W        W17348  15.650   3.261  12.494 -0.0728 -0.1586  0.4486
 2218W        W17349  14.055  17.851  14.210  0.2254 -0.2583  0.2192
 2219W        W17350  13.451  15.301  14.260  0.0323 -0.1967 -0.1952
 2220W        W17351   4.646   3.415  11.662  0.0360  0.0968 -0.1275
 2221W        W17352   5.107   2.394   3.703 -0.1195 -0.1547 -0.3693
 2222W        W17353   1.198   2.431  12.390  0.1109 -0.1971  0.0373
 2223W        W17354   7.589  13.455   1.032 -0.2535  0.0416  0.0638
 2224W        W17355  12.508  17.775   1.934  0.0100  0.3496  0.2127
 2225W        W17356   8.772   9.467   1.109 -0.2661  0.1329 -0.2077
 2226W        W17357  10.984  10.184  15.911  0.2172  0.0636  0.0041
 2227W        W17358  16.267   0.615  12.256  0.0918  0.0639 -0.3333
 2228W        W17359  15.643   7.373   4.734 -0.0861  0.1541  0.1593
 2229W        W17360  17.738   9.134   3.158 -0.2061 -0.1622 -0.0003
 2230W        W17361  12.584  13.726   3.043  0.0552 -0.5534  0.1372
 2231W        W17362  17.514   6.970   0.434  0.2575 -0.0995 -0.0082
 2232W        W17363  17.606   6.721   3.098  0.0402 -0.1509  0.2278
 2233W        W17364   6.055  17.149  16.190 -0.4474  0.2729  0.1160
 2234W        W17365   3.115  14.046  13.298 -0.0000  0.0704  0.0792
 2235W        W17366  11.725   4.115   4.555  0.3429 -0.0953  0.2194
 2236W        W17367   0.657   0.173  14.994 -0.1913 -0.0820 -0.3901
 2237W        W17368  17.984  14.424   3.847 -0.5941  0.0130  0.1518
 2238W        W17369   1.648  10.764   1.038 -0.2634  0.0569 -0.1087
 2239W        W17370   6.296  15.973   0.651 -0.2150 -0.0492 -0.3545
 2240W        W17371   3.773   2.558   6.265  0.0218 -0.2674  0.1485
 2241W        W17372   2.960   0.608   0.355  0.2109 -0.0384 -0.0870
 2242W        W17373   1.020   9.819  10.386  0.2726 -0.0045 -0.1337
 2243W        W17374   8.563   4.369  15.592  0.1763  0.1689  0.1091
 2244W        W17375  14.393  13.888   1.671  0.3696 -0.1398  0.3819
 2245W        W17376  15.115   7.804  14.256 -0.2111 -0.1627  0.2052
 2246W        W17377  13.241   6.087   3.987  0.0424  0.0049 -0.0544
 2247W        W17378   6.597   8.565   0.418 -0.0555  0.0487  0.0364
 2248W        W17379   7.558   9.957   2.811  0.1125 -0.0565  0.1633
 2249W        W17380  18.053   8.385   5.343  0.0865  0.0980 -0.0130
 2250W        W17381  14.009  16.895   3.875  0.0527  0.0531  0.1974
 2251W        W17382  12.276   4.847  15.606  0.3536  0.0913 -0.1273
 2252W        W17383   5.592   0.857  10.765 -0.1426 -0.3532 -0.0058
 2253W        W17384  17.005   9.090  16.166 -0.2141  0.1311 -0.0220
 2254W        W17385   1.386   7.683  14.154  0.1102 -0.0442  0.1147
 2255W        W17386  17.284   7.936  14.709  0.1791  0.3040 -0.1213
 2256W        W17387  15.796  14.420  13.061 -0.1261  0.2620  0.1679
 2257W        W17388   3.084   3.837  12.406 -0.2086  0.0318 -0.1844
 2258W        W17389  13.578  11.663   2.849 -0.0505 -0.1474  0.1555
 2259W        W17390  17.767   0.082   0.521  0.1903 -0.0994  0.4591
 2260W        W17391   8.102   8.549   0.868  0.0847  0.1335 -0.0246
 2261W        W17392   4.845  17.760   3.613 -0.0091  0.2375 -0.1479
 2262W        W17393  12.089   2.328  13.905  0.2932  0.1309  0.1464
 2263W        W17394  12.592   3.064  10.645  0.3054  0.0358 -0.2083
 2264W        W17395  17.833  16.820   2.418  0.1918 -0.2492  0.2453
 2265W        W17396  12.616   3.013   0.794 -0.0571  0.1782  0.2682
 2266W        W17397   5.832  14.732   4.497 -0.1816  0.0691 -0.1406
 2267W        W17398  14.606  13.422   0.560 -0.0978 -0.5698 -0.1504
 2268W        W17399   3.346  13.780   4.381  0.0228  0.0784  0.2638
 2269W        W17400   7.862   3.093   2.606  0.1767  0.0894  0.3332
 2270W        W17401   8.456   6.410  13.977  0.1583  0.0247  0.0202
 2271W        W17402   0.657   7.044   2.659 -0.1957  0.2166 -0.0365
 2272W        W17403   6.682  11.483   1.455  0.1753 -0.1039 -0.0074
 2273W        W17404  15.722  15.515   2.821 -0.0865  0.0705 -0.0192
 2274W        W17405   5.703   0.285  14.210 -0.1215  0.0645 -0.3447
 2275W        W17406  13.111   3.452   2.019 -0.0615  0.0872 -0.1770
 2276W        W17407   3.012  12.968   1.673 -0.1581  0.0430 -0.0865
 2277W        W17408   3.165   1.171   4.025  0.0282  0.1296 -0.0736
 2278W        W17409   8.790   9.922   0.172 -0.0798  0.2338  0.0760
 2279W        W17410   0.917  16.605   3.932  0.2304  0.1480 -0.1388
 2280W        W17411  15.107   4.526  14.734  0.1456 -0.1591 -0.2449
 2281W        W17412  13.308  11.236  14.017  0.1999  0.0974  0.2916
 2282W        W17413  17.229   7.170  13.923  0.2906  0.1460 -0.2758
 2283W        W17414  17.408  11.157  10.889 -0.0850  0.0658 -0.1656
 2284W        W17415   1.976  16.463   3.043 -0.0861 -0.0158  0.0580
 2285W        W17416   1.738   0.971   0.608  0.0864  0.1762 -0.2668
 2286W        W17417  14.584   0.929  14.625  0.1387  0.0083  0.1731
 2287W        W17418   3.221   5.375  16.210 -0.1849 -0.1616  0.0783
 2288W        W17419  14.170   2.399   1.997 -0.2070 -0.0478 -0.2792
 2289W        W17420   1.094   6.077  11.362  0.1645  0.0553  0.1395
 2290W        W17421   1.522  17.424  12.026 -0.0626  0.0617 -0.1559
 2291W        W17422   2.900  17.752   2.249 -0.1286  0.0995  0.0531
 2292W        W17423  13.292   2.910  15.434 -0.4568  0.1171 -0.1487
 2293W        W17424   0.554  12.087  12.802  0.2051  0.0013 -0.2625
 2294W        W17425  14.906  11.591  14.785  0.0468 -0.1645 -0.0590
 2295W        W17426   2.620   5.354  15.561  0.0545  0.1062 -0.0894
 2296W        W17427   4.943   0.506   5.809 -0.2620  0.1636  0.0564
 2297W        W17428  13.856   2.660   4.968  0.0218 -0.0212  0.1997
 2298W        W17429   9.268  14.410   3.580 -0.0305  0.1168 -0.1158
 2299W        W17430  13.360   7.966  14.509  0.1649  0.1318  0.1822
 2300W        W17431  17.801   5.470  13.733 -0.0998 -0.1087  0.2226
 2301W        W17432   3.710   1.226  10.872  0.0372 -0.2524 -0.0490
 2302W        W17433   4.460  15.955   0.782  0.0365  0.1369 -0.0621
 2303W        W17434   8.019   6.592  12.676  0.1975 -0.0378 -0.1756
 2304W        W17435  13.083   3.178  14.501 -0.1209  0.1237 -0.4108
 2305W        W17436  17.650  14.633   0.742 -0.0604 -0.1255 -0.0655
 2306W        W17437   6.713  13.761  14.266 -0.0385 -0.0053  0.0428
 2307W        W17438  11.163  17.461  10.235 -0.2584 -0.0657  0.2280
 2308W        W17439  12.433  14.164  15.766  0.0817 -0.4722 -0.0360
 2309W        W17440  13.281  17.418  12.238  0.1897  0.1839  0.0596
 2310W        W17441  15.384   4.390   1.270  0.3014  0.3003 -0.1234
 2311W        W17442   0.667  16.773  13.984 -0.1578 -0.0810 -0.3231
 2312W        W17443  18.086  15.673  15.381  0.0610  0.1690 -0.2583
 2313W        W17444  11.456   2.695   3.143  0.0469 -0.1538  0.2338
 2314W        W17445  12.469   4.907   1.876  0.0990  0.0206  0.1126
 2315W        W17446   5.708   5.221  11.856 -0.3130  0.0039 -0.0316
 2316W        W17447  16.667   4.379   2.984 -0.0486 -0.0792 -0.4286
 2317W        W17448   0.241   9.794  14.445 -0.4356 -0.4731  0.5015
 2318W        W17449  15.119  17.388  11.905 -0.2000 -0.0558  0.0304
 2319W        W17450   5.223   5.433   4.811 -0.0333 -0.0445 -0.1887
 2320W        W17451   2.458   8.110   3.823 -0.2421 -0.1694 -0.0194
 2321W        W17452   8.758   6.832   2.439 -0.1047 -0.3275  0.1528
 2322W        W17453   9.031   2.429  15.395 -0.0815 -0.3033  0.2285
 2323W        W17454   2.751  15.388  13.034  0.0151  0.0459 -0.0844
 2324W        W17455   2.547   3.922  11.762  0.1814  0.2286 -0.3939
 2325W        W17456   5.380  12.597   1.560 -0.0475 -0.1103 -0.0336
 2326W        W17457  11.591   3.552  11.715  0.0800  0.2707 -0.1254
 2327W        W17458  14.186   5.607   3.769 -0.3587  0.3073 -0.3001
 2328W        W17459  15.816  12.889  11.171 -0.0391 -0.0572 -0.0992
 2329W        W17460   6.856   1.333   1.409 -0.1008  0.1166  0.0561
 2330W        W17461  15.191  13.820   2.810 -0.3655 -0.0719 -0.1227
 2331W        W17462   4.762   1.086  14.044 -0.2538 -0.3891 -0.0204
 2332W        W17463  11.125  11.308  13.616  0.0861  0.0964  0.1198
 2333W        W17464  15.846   8.205   4.899 -0.3847  0.0698  0.1236
 2334W        W17465  16.571  17.140   2.785 -0.4332 -0.0971  0.1456
 2335W        W17466   2.743  12.247  11.317  0.0445 -0.3023  0.1183
 2336W        W17467  14.949   3.912   5.535  0.2199 -0.2560  0.4249
 2337W        W17468  14.462   4.738   3.383 -0.0646 -0.2469  0.0744
 2338W        W17469   0.889  16.936  12.331  0.2160 -0.1313  0.2428
 2339W        W17470  12.108   2.114   2.576 -0.0161 -0.0888 -0.0916
 2340W        W17471   2.265   5.251  10.981 -0.0201 -0.1770 -0.0530
 2341W        W17472   8.364  17.571   1.479 -0.1505  0.0255  0.0098
 2342W        W17473   6.647   0.590   0.370  0.0175 -0.2618  0.1183
 2343W        W17474   9.195   4.837   4.602 -0.3005  0.1396  0.3496
 2344W        W17475  11.455   3.040  14.266  0.2285  0.0939  0.1918
 2345W        W17476  13.177  12.560   4.527  0.0428 -0.0324  0.0267
 2346W        W17477   7.420  12.889  15.282 -0.3210  0.0641  0.1296
 2347W        W17478   9.904  13.317  13.464  0.4379  0.0339  0.0486
 2348W        W17479  12.823   1.146   0.788 -0.0163  0.1774  0.0317
 2349W        W17480  12.551   9.068   4.360  0.1000 -0.1981  0.0435
 2350W        W17481   3.555  13.363   3.810 -0.2891  0.0761  0.3003
 2351W        W17482  12.513  10.769   4.330  0.0491  0.1259 -0.0087
 2352W        W17483   1.426   8.694  15.038  0.2112  0.0849 -0.3279
 2353W        W17484   0.508   4.231  14.560 -0.0249 -0.0601 -0.0151
 2354W        W17485  12.209   7.872  13.545 -0.1919 -0.0584  0.0002
 2355W        W17486  17.747  12.379  11.021 -0.0114  0.6755 -0.2619
 2356W        W17487   4.562   3.261   3.581 -0.0753  0.0968  0.2478
 2357W        W17488   4.637  17.965  14.372  0.1963 -0.2631 -0.1896
 2358W        W17489  17.088   6.432   5.379  0.3282 -0.0437 -0.1011
 2359W        W17490  11.453  11.241   1.159  0.1383 -0.2377 -0.2610
 2360W        W17491  12.318   9.861   3.480 -0.1648 -0.0169  0.0241
 2361W        W17492   4.970  15.584   2.435  0.3598  0.0723  0.1567
 2362W        W17493  14.319   8.176  15.569 -0.0472  0.1118 -0.1799
 2363W        W17494   3.455  11.464   3.755  0.0378 -0.4466 -0.0056
 2364W        W17495   9.116   7.721  14.507  0.2509  0.1914 -0.0503
 2365W        W17496  16.208  11.629   4.264 -0.0364 -0.0261  0.2429
 2366W        W17497   3.733  12.387   0.522 -0.1022 -0.3293  0.2101
 2367W        W17498  13.709   9.813   6.189 -0.4007 -0.1837 -0.2081
 2368W        W17499   6.441  15.913  10.781  0.1693 -0.0956  0.2253
 2369W        W17500  12.870   9.678   3.515  0.1230  0.3745  0.0299
 2370W        W17501  18.000   5.718  12.139 -0.0037 -0.0628  0.0414
 2371W        W17502   3.118   7.448   5.169  0.2927  0.1311  0.1760
 2372W        W17503   3.425  13.619  13.350 -0.1836  0.1382 -0.1059
 2373W        W17504   2.858   4.518   5.697  0.0010 -0.1029 -0.0958
 2374W        W17505   4.952   9.846   0.091 -0.1140 -0.0476 -0.0756
 2375W        W17506  10.796   6.338   3.474  0.1586 -0.1464 -0.4427
 2376W        W17507   6.723  17.774   0.592  0.1671  0.2187  0.1865
 2377W        W17508   2.884   4.928   2.903  0.0944  0.2981 -0.2682
 2378W        W17509   3.317   1.750  14.354 -0.0884 -0.2090 -0.1122
 2379W        W17510  17.827   0.237   4.570  0.2307 -0.1441  0.1736
 2380W        W17511  13.229   8.068  15.108 -0.3962  0.1438  0.0889
 2381W        W17512   7.644   3.429   3.493 -0.3728  0.3116  0.1443
 2382W        W17513  12.330   9.332   5.762 -0.1889 -0.0773 -0.1651
 2383W        W17514   6.340   2.304  13.592  0.2265  0.1574 -0.2928
 2384W        W17515  17.375   7.564  15.204 -0.1637  0.0276 -0.0577
 2385W        W17516  12.602   4.065   4.544 -0.1470  0.1312 -0.1020
 2386W        W17517   1.828   4.649  14.187  0.0967  0.1546 -0.0076
 2387W        W17518  12.227   0.078  15.844  0.1256  0.0924 -0.1591
 2388W        W17519  10.220  15.733   5.897  0.0014  0.0551 -0.1788
 2389W        W17520   7.747   2.322   4.266  0.0308 -0.0772  0.2656
 2390W        W17521   5.092   6.052   3.482 -0.1731 -0.1174 -0.1830
 2391W        W17522   8.507   0.584  15.140 -0.1564  0.0383 -0.0176
 2392W        W17523   6.199  13.673   4.842 -0.4320 -0.0171  0.0403
 2393W        W17524  17.517  15.615   3.564 -0.3316  0.4216 -0.1947
 2394W        W17525  16.914  16.711   1.083  0.0995 -0.0447 -0.0421
 2395W        W17526  16.815  12.588   3.832 -0.0424  0.0813  0.1758
 2396W        W17527  10.588   9.713  13.016 -0.4094  0.3024 -0.1147
 2397W        W17528   8.805   7.234   4.724  0.2822  0.0940 -0.1557
 2398W        W17529   3.018  15.952  11.013  0.3027  0.0912 -0.2256
 2399W        W17530   5.475   1.201  11.122  0.2297 -0.0681  0.1567
 2400W        W17531   1.176   5.687  13.515 -0.2258  0.3317 -0.0704
 2401W        W17532   0.190  12.159  10.979 -0.1291  0.0325 -0.2695
 2402W        W17533  17.251  12.322  13.190 -0.0383  0.3243  0.1100
 2403W        W17534  13.357   4.808   6.227 -0.1112  0.2273  0.0350
 2404W        W17535  18.096   8.476  10.854  0.0557  0.2854  0.2551
 2405W        W17536  17.028   8.704  15.845 -0.0141 -0.3172 -0.0029
 2406W        W17537   4.126  16.443  13.490 -0.0724 -0.2468 -0.2812
 2407W        W17538  12.359   0.552   3.307  0.0082 -0.0806  0.1000
 2408W        W17539   0.804   6.498   4.346  0.0377  0.3307  0.0554
 2409W        W17540  17.372  13.739  10.402  0.0279 -0.2850  0.2289
 2410W        W17541   2.056   2.065   2.608 -0.1472  0.0554 -0.1208
 2411W        W17542   8.634  16.376   0.903 -0.1504  0.4112 -0.4293
 2412W        W17543   0.739   2.525  12.547  0.0437  0.2379 -0.4094
 2413W        W17544  11.390  12.516  15.616 -0.1721 -0.3667 -0.0353
 2414W        W17545   6.080   4.795  14.813  0.1220  0.1035 -0.1504
 2415W        W17546   0.334   5.417  14.464  0.1520 -0.1384  0.2216
 2416W        W17547  11.386   9.516   1.252  0.1322  0.1636  0.2173
 2417W        W17548  16.784  14.900   4.332 -0.2356 -0.2085 -0.0165
 2418W        W17549  12.186   2.386  15.800 -0.1220  0.0961  0.1065
 2419W        W17550   7.524   5.846   2.129  0.0536 -0.0388  0.2569
 2420W        W17551  12.403   8.154   0.098 -0.0203  0.1867 -0.0016
 2421W        W17552   8.071   5.369   5.326 -0.0629  0.1558  0.3926
 2422W        W17553  10.255   6.136  16.131  0.0277 -0.0710  0.2049
 2423W        W17554   0.783   5.554   0.973  0.2398 -0.1887  0.2905
 2424W        W17555  16.030  10.517   3.514 -0.3723  0.1079 -0.0561
 2425W        W17556   4.781  12.865  12.606 -0.1022  0.1855 -0.2407
 2426W        W17557   1.542   5.438  15.688  0.1006 -0.0422  0.0459
 2427W        W17558   8.665  12.893   4.527  0.0596 -0.0972  0.1554
 2428W        W17559   9.299   5.760  11.050 -0.0473 -0.1031 -0.1421
 2429W        W17560  15.980   8.761   0.645  0.1389  0.1566  0.1792
 2430W        W17561  12.061  13.420   3.873  0.0147  0.0800  0.0282
 2431W        W17562  17.705   5.240   6.379  0.2382 -0.1078 -0.0524
 2432W        W17563   6.860  14.326  13.028 -0.0635 -0.0384 -0.0722
 2433W        W17564   9.760  13.512  12.977  0.1621  0.1893 -0.1720
 2434W        W17565   6.813  10.470   3.001 -0.2432  0.1223 -0.0897
 2435W        W17566  10.995  10.973  15.484 -0.0332 -0.1848 -0.4036
 2436W        W17567  17.517  11.578  11.180 -0.0992  0.2111 -0.1496
 2437W        W17568   3.332   5.638   1.777 -0.1711  0.2258  0.0608
 2438W        W17569   7.051  16.509   0.793 -0.2304 -0.0437 -0.2619
 2439W        W17570  12.240   9.734   5.407  0.1370 -0.3188 -0.0145
 2440W        W17571   2.239   8.542  15.488  0.0870  0.1787  0.2232
 2441W        W17572   0.102  14.498  12.820  0.0816  0.1343  0.0680
 2442W        W17573  17.894  12.644  12.501  0.4298 -0.0317 -0.0147
 2443W        W17574  10.031   3.017  14.075 -0.1055 -0.0688 -0.0922
 2444W        W17575   8.969   1.807   5.505  0.0240 -0.1758  0.0485
 2445W        W17576   9.139  16.191  13.357  0.1833 -0.0410  0.3065
 2446W        W17577   1.436  11.386  13.202  0.3410  0.1720  0.1369
 2447W        W17578  11.468   6.584  11.148  0.0797 -0.2276  0.3441
 2448W        W17579  16.657  12.218  10.674  0.1306  0.0019 -0.0356
 2449W        W17580   1.117  14.914  15.725 -0.2650 -0.2196  0.2399
 2450W        W17581   6.709   0.893   1.165 -0.0696  0.2535  0.1405
 2451W        W17582  12.745  10.119   3.292  0.0488 -0.0094 -0.0379
 2452W        W17583  12.223  10.312   4.203 -0.0337 -0.1107 -0.2296
 2453W        W17584   2.184   0.201   3.713 -0.1747  0.0225 -0.0948
 2454W        W17585   4.524   5.012   3.633 -0.1033  0.0574 -0.2873
 2455W        W17586   9.832  14.744   2.018  0.4834  0.3016 -0.0508
 2456W        W17587   9.191  14.660  14.894  0.1715 -0.0317 -0.2341
 2457W        W17588   6.339   2.795  14.979 -0.0336  0.2317 -0.0390
 2458W        W17589  14.609   9.174  15.459 -0.1083  0.1388 -0.1063
 2459W        W17590  11.072   7.917   6.134  0.1964 -0.0016  0.1225
 2460W        W17591   6.937   0.829  15.469  0.0426  0.3337 -0.1279
 2461W        W17592   9.503  14.431   5.184 -0.2670 -0.0410 -0.2278
 2462W        W17593  12.961   0.995   3.983  0.1501  0.2010 -0.0023
 2463W        W17594  17.552  12.403   5.192  0.0195  0.0701 -0.0256
 2464W        W17595  13.511   6.036   3.024  0.0032 -0.1891  0.0947
 2465W        W17596  14.136   6.004  12.670  0.0243 -0.0086  0.1650
 2466W        W17597  11.255   1.440   3.731 -0.0582 -0.0412  0.0045
 2467W        W17598  12.608   1.750  15.123 -0.2164 -0.0991  0.1470
 2468W        W17599   7.793   3.116   3.172 -0.3308  0.0124 -0.0681
 2469W        W17600  14.757  10.796   3.009 -0.2396 -0.0212 -0.0126
 2470W        W17601   7.853  13.834   2.194  0.1730  0.0036 -0.3291
 2471W        W17602   5.293   4.738  15.788 -0.0034 -0.3568  0.1472
 2472W        W17603   7.080  17.129  14.468  0.1918 -0.1453 -0.1336
 2473W        W17604   2.923  13.101  12.493  0.1505 -0.1856  0.0545
 2474W        W17605  17.548  16.417  14.437 -0.0977 -0.0363  0.0610
 2475W        W17606   9.526   0.888   2.903 -0.4180 -0.0315 -0.1775
 2476W        W17607  13.393   3.878  13.315  0.6909 -0.0648 -0.1474
 2477W        W17608  16.317   9.932  13.817 -0.2555 -0.1674  0.2678
 2478W        W17609  16.015  12.285  14.521 -0.0110  0.0655  0.1480
 2479W        W17610   2.954   0.765  11.272 -0.1925 -0.1352  0.2782
 2480W        W17611  16.209   0.325  12.693  0.0866  0.2989 -0.1197
 2481W        W17612  10.242   1.931  13.169 -0.2297 -0.0954 -0.1725
 2482W        W17613   2.750  17.184   5.287 -0.0515 -0.1579  0.1755
 2483W        W17614   1.125   1.517  14.666 -0.0884 -0.0460  0.0877
 2484W        W17615   9.101  16.390   5.204 -0.0523  0.1115  0.1274
 2485W        W17616  17.468   2.511  12.584  0.1282  0.1228  0.1134
 2486W        W17617  16.678  15.289   4.545  0.0285 -0.0897  0.0438
 2487W        W17618  11.596  13.890   0.718  0.1446  0.0519 -0.1139
 2488W        W17619  15.828  11.909  14.167  0.0260  0.1969 -0.2136
 2489W        W17620   7.428  12.617  12.730  0.1084 -0.1383  0.2283
 2490W        W17621   7.751   3.002   6.009 -0.1896  0.2591  0.0734
 2491W        W17622  14.396  13.269  15.186  0.4752  0.1275 -0.0694
 2492W        W17623  13.494   3.350  14.327  0.3849 -0.0097  0.0999
 2493W        W17624  10.318  12.686  15.356 -0.0496 -0.2685  0.1927
 2494W        W17625  14.116   0.740  11.413  0.2664 -0.0196 -0.0035
 2495W        W17626  11.600   4.081   3.961 -0.2090  0.0888  0.2147
 2496W        W17627   0.212   3.772  13.372 -0.3039  0.1378 -0.2826
 2497W        W17628  14.233   8.497  13.952 -0.2097 -0.0983 -0.1680
 2498W        W17629  10.359  16.896   2.001  0.1262  0.1179 -0.1893
 2499W        W17630   3.609  13.905   2.819  0.1861  0.1927  0.0619
 2500W        W17631   7.689   4.244  15.269 -0.0950 -0.0367 -0.2364
 2501W        W17632  12.750   7.999   2.472 -0.0647  0.0556 -0.1126
 2502W        W17633   4.314  14.603   3.635 -0.0501 -0.1096  0.0513
 2503W        W17634  10.140   6.412   3.734  0.0840 -0.0513 -0.0464
 2504W        W17635   0.784  12.583   6.466  0.0390 -0.1319 -0.1318
 2505W        W17636   5.244  17.694   3.972  0.0598 -0.0175 -0.0964
 2506W        W17637  13.511  15.832  13.280 -0.3836  0.2568  0.2574
 2507W        W17638  11.082  11.509   0.297 -0.0178 -0.0620  0.3430
 2508W        W17639  17.335  11.794   1.194  0.3956  0.0795 -0.2023
 2509W        W17640   2.923   9.582   1.001  0.2835 -0.0969 -0.2894
 2510W        W17641   2.839  16.047  15.103 -0.3934 -0.0057 -0.4024
 2511W        W17642  14.671   5.846  14.821  0.0845  0.0809 -0.0126
 2512W        W17643   1.735   2.107  15.509 -0.2683  0.1785 -0.0567
 2513W        W17644   9.893  17.275  14.561  0.0770 -0.0369  0.0806
 2514W        W17645   8.803  10.557   2.943  0.0954 -0.0852 -0.0000
 2515W        W17646  13.779   0.374  11.548  0.0081  0.0246  0.3090
 2516W        W17647   5.024  16.463  14.725 -0.0117  0.2642 -0.0534
 2517W        W17648   7.392  14.611  15.472 -0.0525  0.0069  0.1329
 2518W        W17649  13.951  15.906   4.160  0.2721  0.1754  0.0508
 2519W        W17650   5.304  10.695   4.676  0.1125 -0.1337 -0.1845
 2520W        W17651   2.353   6.722  11.812 -0.1416  0.0416  0.3165
 2521W        W17652   8.350  14.197  11.853 -0.2522  0.1839  0.0627
 2522W        W17653  14.126   5.120   1.408 -0.1642 -0.0863  0.0089
 2523W        W17654   7.047   6.699   3.354 -0.2520 -0.0140  0.1743
 2524W        W17655   1.793  13.799   9.831 -0.1575 -0.1603  0.0406
 2525W        W17656  16.604   4.851   2.814 -0.0899 -0.0170 -0.0738
 2526W        W17657   5.235   6.380   3.788  0.3234 -0.0439  0.0055
 2527W        W17658   2.654   3.374   5.079 -0.1337  0.1453 -0.0811
 2528W        W17659  11.998   8.983  16.153  0.0466 -0.0345  0.3169
 2529W        W17660  11.143   2.498  12.840  0.1223 -0.2278  0.1778
 2530W        W17661   6.904   4.247   2.966 -0.0111 -0.0671  0.2136
 2531W        W17662   0.527  13.778  15.704  0.1110 -0.0007  0.0761
 2532W        W17663  16.571  12.761   9.955 -0.1141 -0.3683  0.0319
 2533W        W17664   6.442  15.140  16.031 -0.2152  0.0616  0.1739
 2534W        W17665  16.265  15.805  16.040 -0.0226  0.0185 -0.1011
 2535W        W17666   1.610  14.678   3.373 -0.2318 -0.0083  0.0663
 2536W        W17667  12.542   0.800   2.908 -0.2877 -0.0151 -0.3572
 2537W        W17668   2.085  14.096  11.955  0.1300  0.0413  0.0161
 2538W        W17669  13.987   1.657  14.397  0.1389  0.1542 -0.1459
 2539W        W17670   1.121   0.768   4.195 -0.1592 -0.1349 -0.0661
 2540W        W17671   0.769  17.706   0.602  0.0680 -0.2196 -0.3324
 2541W        W17672   7.271   2.390   4.181 -0.0434  0.2536 -0.0672
 2542W        W17673   2.208   2.604   2.630 -0.0602 -0.4873 -0.0801
 2543W        W17674  18.085  12.223  15.759  0.0409  0.0176  0.0892
 2544W        W17675  14.649   6.018  11.637  0.0132  0.0942 -0.1221
 2545W        W17676  14.171  11.213   5.453  0.1291  0.1109 -0.0148
 2546W        W17677  12.802  13.066   3.600  0.0450 -0.2479 -0.0658
 2547W        W17678  13.467  10.473  13.289  0.0720  0.2198 -0.3125
 2548W        W17679  17.559   3.928   2.552 -0.1300 -0.1536 -0.0458
 2549W        W17680  11.146   3.207  10.897 -0.1800  0.1801  0.1185
 2550W        W17681   7.768   1.092   2.539  0.0519  0.1092  0.0599
 2551W        W17682   0.967   8.091   5.183 -0.0295 -0.1027  0.0898
 2552W        W17683  11.327  17.551   2.678  0.0117 -0.0200 -0.1246
 2553W        W17684  18.008  11.915  16.146 -0.1873 -0.3216  0.4875
 2554W        W17685   2.711   4.330   1.433 -0.1054 -0.0633  0.0864
 2555W        W17686   4.031  14.930  13.106  0.0792  0.0891 -0.0718
 2556W        W17687   0.465  15.717   2.840 -0.1641  0.0120  0.1295
 2557W        W17688  15.333   6.941  15.284  0.0903 -0.1291 -0.4026
 2558W        W17689  17.872   9.209   1.824  0.1117  0.3237  0.0513
 2559W        W17690  14.853  16.854  15.866 -0.0925 -0.2107  0.0692
 2560W        W17691  11.103  16.404   9.775  0.0948 -0.1388  0.1249
 2561W        W17692  16.033  15.395   6.215  0.1125 -0.0325  0.2190
 2562W        W17693   4.606   9.465  15.191 -0.0280  0.0288  0.0315
 2563W        W17694  14.924   5.079  13.567 -0.1070  0.0020  0.0535
 2564W        W17695   9.892   6.820  12.148 -0.0287 -0.1859  0.0499
 2565W        W17696  12.790  14.122  11.089  0.0040 -0.2234  0.0240
 2566W        W17697  15.622  17.004  11.069  0.0028  0.1028  0.3022
 2567W        W17698   6.080   1.665   3.859  0.2208  0.0943 -0.0266
 2568W        W17699   6.706  15.067  13.666  0.2731  0.1651  0.0730
 2569W        W17700   5.614   7.445  12.729 -0.0540  0.0515  0.3319
 2570W        W17701   4.226  10.302   0.885 -0.1376  0.3014  0.2261
 2571W        W17702  11.376  13.174  12.930  0.1697 -0.1044  0.2157
 2572W        W17703   1.225   9.685  14.413 -0.0695 -0.2036  0.1360
 2573W        W17704   0.302   0.464  15.698  0.0664  0.0036 -0.1050
 2574W        W17705   0.926   8.243   5.661 -0.1011 -0.1528 -0.1449
 2575W        W17706   7.094  17.590  14.790  0.0846 -0.0458  0.0910
 2576W        W17707   9.204   5.319   1.340 -0.1284  0.0531 -0.0318
 2577W        W17708   1.695  11.977   1.092 -0.1846 -0.1019 -0.2533
 2578W        W17709   1.064   0.097   4.925  0.1271 -0.3467  0.0618
 2579W        W17710   7.419  13.818  13.810  0.0723  0.1872 -0.0007
 2580W        W17711   7.168   1.410   5.185  0.1387  0.1324 -0.0119
 2581W        W17712   8.368   4.483  12.063 -0.1963  0.1262 -0.2034
 2582W        W17713   5.793   0.767   2.024 -0.2927  0.0784  0.0445
 2583W        W17714   1.835  14.456  14.483 -0.0179  0.3506  0.0457
 2584W        W17715  17.268  13.098   1.913  0.0765 -0.0804 -0.0221
 2585W        W17716  15.535   4.510  15.470  0.0650 -0.0990  0.0345
 2586W        W17717   3.276   8.626   5.693 -0.1260 -0.0420  0.1762
 2587W        W17718  10.477   0.872   3.539 -0.0427 -0.2027  0.1951
 2588W        W17719   5.831   7.981   2.800 -0.2153  0.2482 -0.0372
 2589W        W17720  15.619   9.872  13.271  0.1426 -0.0703 -0.2753
 2590W        W17721   1.274  15.225   4.338 -0.0590 -0.3167  0.1497
 2591W        W17722  12.440  16.922  13.213 -0.0949  0.0023 -0.1823
 2592W        W17723   1.818   4.055   0.405  0.0209  0.2154  0.1191
 2593W        W17724  11.354   5.598   1.599 -0.0121 -0.1185 -0.0256
 2594W        W17725   0.067   4.594   3.864 -0.0390 -0.2069 -0.1786
 2595W        W17726   7.023  16.611  13.288 -0.0787  0.0022 -0.1075
 2596W        W17727   9.769  13.148   1.462 -0.0420  0.0293 -0.2510
 2597W        W17728  17.687  17.386  15.481  0.0529 -0.2088  0.2003
 2598W        W17729  14.767   0.140  10.684  0.3410  0.1892 -0.2653
 2599W        W17730  10.794   4.127  15.665 -0.0793  0.0911  0.0239
 2600W        W17731  11.983   3.768   3.855  0.0126 -0.2538  0.0855
 2601W        W17732  14.827   6.061  10.385  0.5919  0.0283 -0.3413
 2602W        W17733   5.581  10.794   4.229 -0.0373  0.0102  0.0082
 2603W        W17734   5.841  11.864   6.056  0.0928  0.1102  0.0235
 2604W        W17735  15.256   2.986  15.231  0.0502 -0.0585 -0.0418
 2605W        W17736   1.556  13.811  12.565  0.3045  0.0709  0.0589
 2606W        W17737  15.906   6.436  13.153 -0.2526 -0.2337 -0.0685
 2607W        W17738  12.878   8.353   0.028 -0.2159 -0.0901  0.0028
 2608W        W17739  14.307   9.579  13.125 -0.0961 -0.1771  0.0641
 2609W        W17740  10.101  16.306   2.599 -0.0990 -0.1389 -0.0979
 2610W        W17741   5.662  12.132   4.236  0.0832  0.0015 -0.0725
 2611W        W17742  17.809   7.686   0.002 -0.2262  0.0071  0.0976
 2612W        W17743  12.748  12.578   5.276  0.3247  0.0371 -0.2247
 2613W        W17744  17.352  16.293  11.232 -0.0614  0.1896  0.1267
 2614W        W17745  10.045   5.467   0.393  0.1226 -0.0532 -0.2825
 2615W        W17746  13.677   1.343   4.669 -0.1090  0.1495 -0.0777
 2616W        W17747   8.977   2.838   5.564 -0.0703  0.2839 -0.0651
 2617W        W17748   0.899   4.779  11.835  0.2027  0.2093  0.1094
 2618W        W17749  12.803   5.817   4.820 -0.1971 -0.1029 -0.1038
 2619W        W17750   9.331  11.430  13.129  0.3944  0.2113  0.2186
 2620W        W17751  16.769  12.315   5.742 -0.1773 -0.1622  0.0926
 2621W        W17752   0.091  15.357  10.956 -0.1820 -0.0515 -0.2198
 2622W        W17753  17.624  10.360   1.466 -0.0148  0.0483  0.0504
 2623W        W17754  10.543   7.387   0.646  0.1526  0.1518 -0.3977
 2624W        W17755  12.936  12.513  14.620  0.1007  0.0382 -0.0132
 2625W        W17756  13.289   8.378   4.629 -0.2587  0.1164 -0.1894
 2626W        W17757  16.282   3.639  14.145  0.1238  0.1035 -0.0068
 2627W        W17758   0.534   1.033  11.330  0.1168  0.1032 -0.1555
 2628W        W17759  16.300  13.138  13.820  0.1869 -0.1767  0.3377
 2629W        W17760   3.908   7.941  10.734  0.3875 -0.1625 -0.2069
 2630W        W17761  16.854   7.049   1.536  0.1846 -0.4658  0.2718
 2631W        W17762  10.005  16.758   1.703  0.0478 -0.1521 -0.1899
 2632W        W17763   3.563   6.291   1.830 -0.0003  0.0058  0.4333
 2633W        W17764   9.951  15.798   5.016 -0.1259  0.1228 -0.1460
 2634W        W17765  17.683   8.961   4.044  0.1353 -0.0047  0.1526
 2635W        W17766  11.606  17.209  13.247  0.1762  0.0632  0.3780
 2636W        W17767   1.409   2.597  11.807  0.2382 -0.1310 -0.2674
 2637W        W17768  16.945   7.351   3.265  0.1122  0.1491 -0.0620
 2638W        W17769  17.792   3.874  14.011 -0.0669 -0.0916 -0.1278
 2639W        W17770  13.302   1.219  11.602  0.0665  0.0244 -0.1725
 2640W        W17771  13.249  17.706   3.767 -0.2993  0.0321 -0.1566
 2641W        W17772   9.626   8.499   4.351  0.1377 -0.2584  0.2754
 2642W        W17773  14.547   1.022  14.110  0.2340 -0.3278  0.0974
 2643W        W17774   8.397   3.208   2.285  0.3254 -0.0431 -0.0008
 2644W        W17775   2.592  12.902   5.319 -0.1321 -0.0998  0.1316
 2645W        W17776   9.608  15.833   0.696  0.0290  0.1465  0.0396
 2646W        W17777   2.717  11.552  15.781  0.0064 -0.2264 -0.2029
 2647W        W17778   8.427  11.052  14.005  0.0136 -0.3054  0.1691
 2648W        W17779   8.348   9.043  14.197 -0.0507  0.2010  0.1845
 2649W        W17780   2.490  18.069   2.353 -0.2545  0.0053 -0.0096
 2650W        W17781   9.666  10.380  15.489 -0.3107 -0.0423  0.0833
 2651W        W17782   5.417   4.504  11.494 -0.1781  0.0177  0.1645
 2652W        W17783   9.834   1.722   1.715 -0.1100  0.0347  0.0360
 2653W        W17784   5.702   4.909   1.902 -0.2954  0.2712  0.0361
 2654W        W17785  16.968   1.161   0.160  0.0520  0.1418 -0.4218
 2655W        W17786   2.068  13.802   1.072 -0.3445  0.0608 -0.2189
 2656W        W17787   3.545   4.238  14.747  0.2771 -0.0141  0.1513
 2657W        W17788   9.199   8.448  13.694 -0.1469 -0.2091 -0.0700
 2658W        W17789   4.788  16.913   2.096 -0.1445  0.1256 -0.1461
 2659W        W17790  17.747  16.990  10.142  0.2419  0.0534 -0.0254
 2660W        W17791   2.190   2.372  10.857  0.1433 -0.1159  0.0128
 2661W        W17792   7.766   4.960   0.292 -0.3006  0.0849  0.0754
 2662W        W17793   6.149   1.202   5.476 -0.0340  0.1566 -0.0370
 2663W        W17794  10.014   2.446  11.223  0.0318  0.1727 -0.3453
 2664W        W17795   6.782   9.056   4.581  0.0656  0.0058 -0.0111
 2665W        W17796  11.318   8.070  14.222 -0.2051 -0.1338  0.1565
 2666W        W17797   9.606   6.816   4.253  0.3729  0.3132  0.0051
 2667W        W17798   0.783   2.938   2.439  0.1217  0.0384  0.0808
 2668W        W17799   5.953  11.173   2.022  0.1579  0.1468 -0.0890
 2669W        W17800   0.947   4.772  15.576  0.1204  0.2104 -0.0373
 2670W        W17801  14.216   1.405   0.245 -0.2108 -0.0750  0.0353
 2671W        W17802   0.421   8.389   5.635 -0.2229 -0.1152 -0.2023
 2672W        W17803   3.277  12.716   1.335 -0.0229  0.0452  0.1129
 2673W        W17804   3.926  13.457  14.662  0.0421  0.0213  0.1507
 2674W        W17805   1.794   0.382   3.890  0.1540  0.0978 -0.0804
 2675W        W17806  14.396   2.518  14.997 -0.2435 -0.0262  0.1134
 2676W        W17807   2.955   7.817   3.147 -0.1118 -0.1607 -0.0279
 2677W        W17808   2.795  11.278  14.210 -0.4551  0.1064 -0.1305
 2678W        W17809  12.210  12.523   4.116 -0.0211 -0.2394 -0.0425
 2679W        W17810   4.755   6.926   1.564 -0.2019  0.1883  0.2443
 2680W        W17811  13.230   6.343  15.729  0.0220  0.0386  0.0679
 2681W        W17812   8.239   9.101  15.169  0.0925  0.1695  0.0437
 2682W        W17813   5.532   6.647   4.691  0.0719  0.2219  0.0785
 2683W        W17814  15.484  12.357  10.667  0.0265  0.1182  0.2820
 2684W        W17815   0.287   3.823   5.456  0.1905  0.1389 -0.2292
 2685W        W17816   5.899   4.914   0.195  0.2924  0.0522 -0.0810
 2686W        W17817   0.852   3.602   5.461 -0.1397  0.2672 -0.0760
 2687W        W17818  10.678   7.880  15.931  0.1079 -0.2449 -0.0828
 2688W        W17819   3.473  10.676  12.117  0.0485 -0.1256  0.2448
 2689W        W17820   8.918   1.416   3.225 -0.0563  0.1920  0.1919
 2690W        W17821   5.763   9.590   2.213 -0.2915  0.0113 -0.0454
 2691W        W17822  15.679   9.190  11.839 -0.1427 -0.0531 -0.0138
 2692W        W17823   6.178  14.983   4.185 -0.1481 -0.0012  0.1522
 2693W        W17824   7.498   3.310  14.484  0.2873 -0.0392 -0.1130
 2694W        W17825  17.286   4.497   0.465 -0.1816  0.1316 -0.0045
 2695W        W17826  10.186   8.283   1.849  0.0215 -0.3207  0.3441
 2696W        W17827  16.457   8.855   3.212  0.3488  0.1751 -0.0588
 2697W        W17828  14.160   3.457   3.611  0.2912  0.0796  0.0187
 2698W        W17829  14.169   1.145  14.416  0.1554 -0.1652  0.1827
 2699W        W17830   4.108   2.386  14.118 -0.0012  0.0361  0.3817
 2700W        W17831   3.984   3.628  15.754  0.2252  0.1958  0.0594
 2701W        W17832   9.888   9.106   2.095 -0.1027  0.0540  0.3122
 2702W        W17833  12.108   6.771  10.548 -0.1572 -0.2276 -0.2397
 2703W        W17834   2.394   5.615   2.614 -0.3414  0.0285 -0.0051
 2704W        W17835   7.322   5.929  11.428  0.2069  0.2969  0.0709
 2705W        W17836   5.706  17.850   1.020 -0.1837  0.3762  0.2973
 2706W        W17837  16.913  11.221  10.760 -0.1253  0.2301  0.0281
 2707W        W17838  17.161  16.702   4.189 -0.4516 -0.3064 -0.0574
 2708W        W17839   7.378   4.775   5.980 -0.0937  0.1693 -0.2023
 2709W        W17840   0.731   5.685   5.557  0.1882 -0.1111 -0.0075
 2710W        W17841  17.136   8.231   0.118  0.0293  0.3028 -0.0040
 2711W        W17842  13.337   6.592   3.531  0.0442  0.1481 -0.0968
 2712W        W17843  15.092   0.753  10.007  0.0102 -0.1245  0.2517
 2713W        W17844  13.644   2.104  15.328 -0.3045 -0.3104 -0.0929
 2714W        W17845  15.705  12.540   2.971  0.2143  0.0276  0.0810
 2715W        W17846   4.591   6.210   2.127  0.2469 -0.0395  0.1104
 2716W        W17847   4.122  17.756  13.595  0.2603  0.1142 -0.1282
 2717W        W17848  16.983   0.571   4.442 -0.3367 -0.0937  0.1504
 2718W        W17849   0.175  14.833   2.295  0.0431 -0.3065  0.0232
 2719W        W17850   6.509   1.820   5.975 -0.0071 -0.0506  0.0470
 2720W        W17851  16.050  16.775  12.432  0.1931  0.2386 -0.0476
 2721W        W17852  17.636  17.076  13.828  0.1581 -0.1404  0.1242
 2722W        W17853   5.239  12.449  15.653 -0.2823  0.5208 -0.2226
 2723W        W17854  14.674   1.028   0.061 -0.0642  0.1347 -0.1934
 2724W        W17855   1.853   9.565   5.700 -0.2125  0.1741  0.1021
 2725W        W17856   3.567  13.671  10.690  0.3194  0.0671 -0.1010
 2726W        W17857   0.899  16.421   4.689 -0.1421  0.4763  0.0622
 2727W        W17858  14.950   3.954  15.978  0.0111 -0.0650  0.0490
 2728W        W17859   5.433   7.970   4.466  0.0963  0.1433  0.0182
 2729W        W17860   6.195   5.364   4.431  0.0502 -0.1197 -0.0472
 2730W        W17861   0.755  13.485   5.236  0.1979  0.0914 -0.0120
 2731W        W17862   5.592   0.633   2.488  0.2273 -0.0293  0.1398
 2732W        W17863  16.298   9.318  13.787 -0.0187  0.2651 -0.0913
 2733W        W17864  11.977  11.208  16.140  0.0127 -0.2771  0.0200
 2734W        W17865   3.361   8.231   0.621  0.0333 -0.2366 -0.0752
 2735W        W17866   0.404   8.520  11.144  0.2845 -0.2686  0.0046
 2736W        W17867  11.731   4.724  16.186  0.0007  0.0979 -0.1992
 2737W        W17868   1.550  17.022  14.513 -0.4263 -0.0018  0.0265
 2738W        W17869   6.979   5.879  11.932 -0.0923  0.0565  0.0035
 2739W        W17870  12.115   4.865  12.752 -0.1581 -0.3527 -0.1835
 2740W        W17871   4.437  10.509   2.475  0.0656  0.1585  0.3555
 2741W        W17872   5.896   0.561   1.242 -0.1183 -0.0314 -0.0366
 2742W        W17873  15.908   3.213  16.167  0.2997  0.0165  0.0480
 2743W        W17874   0.756  12.381   0.165 -0.3135  0.1161 -0.0913
 2744W        W17875  10.431  15.997   5.510  0.3221  0.2744  0.1247
 2745W        W17876  13.315  14.000  14.047  0.0819  0.1897 -0.0105
 2746W        W17877   2.271   6.072  13.101 -0.1776 -0.1955 -0.0503
 2747W        W17878  13.843  18.079  11.161  0.1806 -0.0320 -0.2589
 2748W        W17879   3.862   3.620  16.226 -0.0979  0.1747 -0.2365
 2749W        W17880  15.540  11.865   1.247 -0.0135  0.0316 -0.0403
 2750W        W17881   9.534  13.256  12.101 -0.2460 -0.1008  0.1539
 2751W        W17882  13.306   8.985  13.114  0.1022 -0.1307  0.1875
 2752W        W17883   0.120   4.332  13.211 -0.0009  0.0014  0.3392
 2753W        W17884   7.465  13.536  10.961 -0.1248 -0.3803 -0.1796
 2754W        W17885   9.499   1.382   2.712 -0.1829  0.2061  0.2981
 2755W        W17886   2.621  14.868   4.960  0.1177 -0.0064 -0.1281
 2756W        W17887  11.275  13.299   4.212  0.3314  0.1750  0.1166
 2757W        W17888  16.891   9.766   4.965 -0.1775  0.1369 -0.0593
 2758W        W17889   8.326  14.454  14.707 -0.3076  0.5795  0.0874
 2759W        W17890   5.872   4.095   4.943 -0.1206  0.0612 -0.1118
 2760W        W17891  14.207   5.563  14.646 -0.0764  0.1801  0.1362
 2761W        W17892  15.626   1.061  12.950  0.3249 -0.2759  0.0069
 2762W        W17893   3.131   2.214  14.312  0.2547 -0.1942  0.0132
 2763W        W17894   0.302   8.889  12.257  0.1271  0.2875  0.3512
 2764W        W17895   8.759  13.278  13.060 -0.0589 -0.2426 -0.0111
 2765W        W17896  17.202  17.131  13.461  0.1555  0.0351 -0.1034
 2766W        W17897  17.914  14.780  14.035 -0.1043  0.0477 -0.0494
 2767W        W17898  10.230   5.194  16.214 -0.0803 -0.1984  0.0279
 2768W        W17899  16.276   5.091  13.923 -0.0044 -0.1203 -0.0882
 2769W        W17900   2.570   4.922  13.601  0.1496  0.1405  0.4849
 2770W        W17901   8.389   8.633  15.213  0.2721  0.0305 -0.3169
 2771W        W17902   4.270  12.780   4.787  0.0486 -0.1819  0.2059
 2772W        W17903  12.336   9.458   0.058 -0.1269  0.0280 -0.2720
 2773W        W17904   9.249   7.641  12.221  0.0882 -0.2292 -0.2677
 2774W        W17905   3.411   8.070   1.111 -0.0409 -0.2191 -0.0047
 2775W        W17906   1.980   1.524  13.996  0.0847 -0.0366  0.1151
 2776W        W17907   2.095   4.495  12.783  0.1640 -0.4857  0.0902
 2777W        W17908   2.732   3.427  15.143  0.0962 -0.2612 -0.1846
 2778W        W17909  10.095  16.149  12.183  0.1765 -0.1221  0.0267
 2779W        W17910   5.071   6.376  12.550 -0.1028  0.3331  0.0128
 2780W        W17911  13.198   7.872  11.911 -0.3010  0.1302  0.1821
 2781W        W17912   2.042   3.481  13.744  0.2776  0.0153 -0.2371
 2782W        W17913   3.839  17.195   0.933 -0.3844  0.1180  0.0003
 2783W        W17914   0.190  11.134   1.177  0.3049 -0.4187 -0.0060
 2784W        W17915   0.289  14.854  13.851 -0.2063  0.0115 -0.3345
 2785W        W17916   5.345   7.017  10.162  0.2208 -0.0562  0.1333
 2786W        W17917  13.247  11.129   5.924  0.0559 -0.4253 -0.2005
 2787W        W17918   8.014  17.869   1.258  0.1549  0.1664  0.1043
 2788W        W17919   9.009   4.306  12.392 -0.1563 -0.2992 -0.0684
 2789W        W17920   5.233  12.130   4.006  0.0731  0.0115 -0.1671
 2790W        W17921   8.035  10.961  12.112  0.1727 -0.2400  0.4303
 2791W        W17922  12.207  12.751  15.400 -0.2622 -0.0768  0.0498
 2792W        W17923  17.015   5.934   2.071 -0.2761 -0.2223  0.3071
 2793W        W17924   0.608   9.035   2.065  0.1335 -0.1597 -0.0840
 2794W        W17925  15.182   4.046  15.085 -0.0229  0.0254  0.0762
 2795W        W17926  13.700   2.116   2.151  0.3106  0.2122  0.0280
 2796W        W17927  11.597  10.446   5.165  0.1345 -0.0463  0.0465
 2797W        W17928   7.160   6.420  11.438 -0.1613  0.1217  0.0924
 2798W        W17929   8.354   5.845  15.238 -0.2766  0.0158 -0.0762
 2799W        W17930   7.492  12.156   3.675  0.1486  0.1429  0.0335
 2800W        W17931   5.164   7.581   5.353  0.2134 -0.1121  0.1446
 2801W        W17932  14.844  12.739   4.045  0.3141 -0.0853  0.0832
 2802W        W17933   9.768  13.174   0.194  0.0506  0.1448  0.1113
 2803W        W17934  10.077   4.160  11.189 -0.0782  0.1794  0.1047
 2804W        W17935   4.694   9.241   3.230  0.0729 -0.0275  0.0910
 2805W        W17936   1.101   4.900   2.019  0.1895  0.1412 -0.1683
 2806W        W17937   7.015  15.402  13.272  0.1032 -0.0847  0.0635
 2807W        W17938   1.822   2.545  11.536 -0.1459 -0.1020 -0.1248
 2808W        W17939   1.284   0.332  16.086 -0.2462 -0.2136 -0.1730
 2809W        W17940   5.943   4.989  11.176 -0.0114 -0.3114 -0.0113
 2810W        W17941  17.528  13.352  10.653 -0.2027 -0.0548 -0.0871
 2811W        W17942   1.590  10.644  14.220  0.3345  0.2441 -0.0854
 2812W        W17943   6.868   1.296   0.573 -0.0496  0.2710  0.1959
 2813W        W17944  10.675   3.306   0.412 -0.4665 -0.2907 -0.0043
 2814W        W17945   2.873   0.063   2.603 -0.0337  0.0508  0.2312
 2815W        W17946  12.621  10.266   1.285 -0.1291 -0.0662 -0.0282
 2816W        W17947   3.429   9.383   2.815 -0.1485  0.0340 -0.0632
 2817W        W17948  13.442   0.297   2.935  0.1853  0.1989 -0.2068
 2818W        W17949   4.258  17.315   3.233  0.1041 -0.1445 -0.2283
 2819W        W17950  15.911  13.912   2.148 -0.1899  0.0232  0.3035
 2820W        W17951   7.108  14.813  11.880 -0.1353  0.1670  0.0161
 2821W        W17952   9.778   5.985  13.650 -0.1021 -0.0294  0.1485
 2822W        W17953  12.575   7.855   4.343 -0.2096  0.0938 -0.1153
 2823W        W17954   2.381   8.218  14.690 -0.1705  0.2141 -0.2986
 2824W        W17955  13.749  14.546  12.554  0.2228 -0.1668  0.1108
 2825W        W17956  12.810   3.646  12.284  0.3959 -0.3306 -0.2947
 2826W        W17957   6.206   8.821   5.182 -0.0318  0.1757  0.1794
 2827W        W17958  17.287   6.801   1.794 -0.0773  0.0821  0.2389
 2828W        W17959   3.837  14.667   4.669  0.0395 -0.5000 -0.0808
 2829W        W17960   9.395   9.640   4.872  0.3962 -0.0644  0.0037
 2830W        W17961   2.923  16.068   0.206 -0.1005  0.2669 -0.1005
 2831W        W17962   2.234   0.727  12.953  0.1905 -0.1507  0.1332
 2832W        W17963  15.124  12.070   5.278  0.2860  0.1814  0.0273
 2833W        W17964   5.587  17.335  14.077  0.3033  0.3109 -0.0532
 2834W        W17965  10.072   1.812  11.140  0.1036 -0.0628 -0.1248
 2835W        W17966   6.615   9.182  13.947 -0.1702 -0.1885 -0.0618
 2836W        W17967   1.187   8.254  11.120  0.1190  0.0704 -0.1813
 2837W        W17968   2.331  10.744   0.479  0.0151  0.0224  0.0466
 2838W        W17969   9.110   3.380  13.542 -0.0816 -0.1874 -0.0345
 2839W        W17970   9.286   4.813   1.303  0.1630  0.2290 -0.4134
 2840W        W17971   3.615  13.402   0.351 -0.1079  0.2372 -0.1116
 2841W        W17972  15.685  16.164   3.338  0.3186  0.2085  0.1476
 2842W        W17973   7.739   6.339   3.045 -0.1539  0.1208  0.0305
 2843W        W17974  13.123   2.046  15.343 -0.1928 -0.1570  0.2080
 2844W        W17975   4.845   6.825   5.241  0.0211 -0.2557  0.0624
 2845W        W17976  12.451   7.174  15.382  0.0513 -0.0491  0.0157
 2846W        W17977   2.983   5.424  15.168 -0.0875 -0.1290 -0.2016
 2847W        W17978  13.264  17.384   4.838  0.1807 -0.1124 -0.0163
 2848W        W17979   1.048   7.867  16.047  0.0496  0.0143 -0.1688
 2849W        W17980  16.107   9.903   1.609  0.3611  0.1110  0.0270
 2850W        W17981  10.566   2.779  12.248 -0.1719 -0.0587  0.3274
 2851W        W17982  13.653   8.632   5.590  0.1247 -0.2173 -0.1684
 2852W        W17983   6.982   4.480   0.162  0.2507  0.0814 -0.0167
 2853W        W17984   3.357  16.629   0.739  0.1796  0.0823 -0.0847
 2854W        W17985   8.312   4.950  14.428 -0.2004 -0.0595 -0.0232
 2855W        W17986   4.870  15.058  14.621  0.0053 -0.2286  0.1682
 2856W        W17987   9.318   3.956   1.503 -0.0099  0.1266  0.0228
 2857W        W17988  15.376   2.609   4.198  0.3728  0.1637 -0.0304
 2858W        W17989   1.053  16.242   1.616  0.0866 -0.2090 -0.0085
 2859W        W17990  17.242  17.851   0.556  0.0994 -0.2797 -0.1795
 2860W        W17991  16.433  14.186   5.584 -0.0892 -0.1062  0.1918
 2861W        W17992  14.187   7.672  16.160 -0.2478 -0.1014  0.4228
 2862W        W17993  12.927  13.228  15.119 -0.1262 -0.0802  0.0160
 2863W        W17994  12.576  11.170  16.207 -0.2976  0.0716 -0.1200
 2864W        W17995   1.383   2.069  12.838 -0.0414 -0.0268 -0.0948
 2865W        W17996   5.902   1.670   1.442 -0.0232 -0.2455  0.0412
 2866W        W17997   4.142  10.883  11.381  0.1275  0.0047  0.1142
 2867W        W17998   5.250  17.485  14.864 -0.2089  0.1336  0.4330
 2868W        W17999   9.214  11.871  13.529 -0.3177 -0.2158 -0.2222
 2869W        W18000  12.345   2.218   1.085  0.1621 -0.0547  0.2268
 2870W        W18001   1.807   9.033   1.455 -0.0282  0.1586  0.1937
 2871W        W18002  13.365  17.595   0.951 -0.0655 -0.0320  0.1125
 2872W        W18003  12.179   4.182   0.502 -0.0757  0.2626  0.2975
 2873W        W18004   5.485   6.493  14.796 -0.1338 -0.0596  0.2044
 2874W        W18005   8.523   7.233  12.558 -0.1706  0.0681 -0.3293
 2875W        W18006  10.084  14.882  14.937 -0.2969 -0.2683  0.0211
 2876W        W18007   9.372   1.567  15.513  0.1565  0.1916  0.0167
 2877W        W18008   9.397   0.255   0.750 -0.0732  0.1461  0.2072
 2878W        W18009  11.462  12.716  14.028 -0.1908 -0.1443  0.2395
 2879W        W18010   5.334   2.746   3.222  0.1707 -0.0424  0.0727
 2880W        W18011  10.861   7.233  16.245  0.2804 -0.0461  0.1726
 2881W        W18012  10.013  10.459   2.836  0.0348 -0.1964 -0.2763
 2882W        W18013   9.036  17.685  12.197  0.0524 -0.0155  0.0149
 2883W        W18014  12.127  14.873  12.133 -0.0924 -0.1530  0.0939
 2884W        W18015  13.855   9.990  15.370  0.0538  0.1068  0.1417
 2885W        W18016   4.320   2.636   4.715  0.0041  0.0429 -0.1117
 2886W        W18017  14.083   1.832   4.484  0.2465  0.0017 -0.3059
 2887W        W18018  10.908   8.482  15.405 -0.0966 -0.0764 -0.1688
 2888W        W18019  15.025   8.174  16.161 -0.3208 -0.1047 -0.0626
 2889W        W18020   3.762   8.718   1.748  0.0109 -0.0821 -0.0596
 2890W        W18021  12.302  14.918  16.207 -0.0565 -0.0572 -0.2963
 2891W        W18022   6.784  14.165   1.945 -0.0481  0.2188  0.0412
 2892W        W18023   7.339  15.889   1.593  0.2048 -0.2492  0.0387
 2893W        W18024  13.236  16.447   3.496  0.1163  0.1557 -0.2459
 2894W        W18025  13.884   5.342  13.907  0.0770  0.1160 -0.0241
 2895W        W18026  13.408  10.826  13.714 -0.0217  0.0528  0.2058
 2896W        W18027   8.603   9.434  16.035  0.1722  0.0778 -0.4667
 2897W        W18028  16.767   7.863  13.125  0.2791 -0.1650 -0.0440
 2898W        W18029  10.803  17.837   2.358 -0.2005  0.0415  0.1080
 2899W        W18030  10.504   6.989   2.368  0.0224  0.1228 -0.3468
 2900W        W18031   1.083  10.473   5.753  0.0142 -0.0386  0.3891
 2901W        W18032   4.190   3.598   5.033 -0.0080  0.1956 -0.0405
 2902W        W18033   9.320   3.439   2.322  0.0390 -0.0177  0.0566
 2903W        W18034   2.634  16.502   3.854  0.2113 -0.1532  0.0616
 2904W        W18035  17.388  11.721  11.939  0.5366 -0.1537  0.1855
 2905W        W18036  16.809   4.814  13.308 -0.0444 -0.0050  0.0144
 2906W        W18037  12.326  12.071  14.729 -0.0514 -0.1812  0.0603
 2907W        W18038   0.819   0.143  12.258  0.1317 -0.0983  0.0272
 2908W        W18039   4.779  10.048   1.187  0.0113  0.1616  0.1844
 2909W        W18040   3.690  15.265  12.920  0.0034 -0.0306  0.1032
 2910W        W18041  13.731  17.463  13.940 -0.2966  0.0325 -0.0022
 2911W        W18042   9.142  10.905  14.290 -0.2777  0.3410  0.2039
 2912W        W18043  15.951   0.955   4.655 -0.2101  0.0832  0.2307
 2913W        W18044  13.860   5.345  12.241  0.2123 -0.0151 -0.1396
 2914W        W18045  10.857   3.477   5.993  0.1620 -0.1704  0.1645
 2915W        W18046   9.418   1.215   1.115 -0.3433 -0.1591 -0.0447
 2916W        W18047   2.822  10.524   2.881 -0.0160  0.1644  0.0984
 2917W        W18048  10.346   7.168  13.233  0.1794  0.1072  0.1271
 2918W        W18049  14.404  17.457  14.060  0.1487 -0.2899  0.0736
 2919W        W18050  17.778   4.609  13.605  0.0289  0.0100  0.1384
 2920W        W18051  15.159   7.723   5.134  0.3006  0.0739  0.0582
 2921W        W18052  13.060   7.896   4.573 -0.0449 -0.3630 -0.0257
 2922W        W18053   2.920  14.923  14.328  0.2020  0.1528  0.2514
 2923W        W18054   8.008  10.243   0.058  0.1727  0.1589  0.0294
 2924W        W18055   7.386   1.606   0.566  0.2940 -0.1344 -0.2012
 2925W        W18056  12.880   7.482   5.681  0.1023  0.2413  0.2889
 2926W        W18057  14.915   3.071   3.637 -0.1613 -0.1496 -0.1030
 2927W        W18058  10.538   1.101   6.002  0.0081  0.1738  0.1350
 2928W        W18059   3.751   0.161   0.590  0.1003 -0.2760  0.1165
 2929W        W18060   6.561   8.407   1.578  0.4075 -0.1738 -0.2578
 2930W        W18061   0.047  11.498   5.111  0.0156  0.3434 -0.0522
 2931W        W18062  14.675   2.077  12.202 -0.1862 -0.0258  0.0079
 2932W        W18063   4.787  12.483  14.461 -0.0708 -0.1618 -0.0380
 2933W        W18064  11.517   9.209  15.156 -0.1431 -0.2190  0.4550
 2934W        W18065  12.151   9.028   3.159 -0.2638 -0.0994 -0.2028
 2935W        W18066   3.897   7.891   4.863 -0.3110 -0.1137 -0.0729
 2936W        W18067   8.931   1.576   0.328  0.0972  0.0045 -0.0565
 2937W        W18068   3.855   8.761   1.225  0.5183  0.0038  0.2574
 2938W        W18069   8.036  14.999  15.370 -0.0973  0.0892 -0.1670
 2939W        W18070   3.005  16.861   4.982  0.0291 -0.3030 -0.2634
 2940W        W18071   3.719   1.915   1.792 -0.1476 -0.2244 -0.0447
 2941W        W18072   8.130  16.878  10.808 -0.0615  0.0968  0.2576
 2942W        W18073  13.772   3.013  11.819 -0.2190  0.0615 -0.2005
 2943W        W18074   3.456  13.148   5.050 -0.0543 -0.1011  0.0593
 2944W        W18075   6.507  10.500  12.662  0.1158 -0.0843 -0.0316
 2945W        W18076  10.131   0.122   5.081 -0.0118 -0.1409  0.0919
 2946W        W18077   7.056   2.478   0.239  0.1670  0.1379 -0.0754
 2947W        W18078  11.605   6.785  15.696  0.0752  0.2151 -0.0107
 2948W        W18079   7.635  10.069  12.221 -0.0329  0.0641  0.0142
 2949W        W18080  10.889  15.532   4.850  0.1264  0.0224 -0.1836
 2950W        W18081  17.844   2.188   4.235  0.2561  0.1806 -0.3285
 2951W        W18082  12.181  10.587   2.474  0.3546 -0.3520 -0.0721
 2952W        W18083  16.803   2.769  10.567 -0.1365 -0.2113 -0.0776
 2953W        W18084   3.980  16.171   0.997  0.1638 -0.0377  0.3011
 2954W        W18085   9.866   0.031  10.143 -0.0665  0.0294 -0.1162
 2955W        W18086   5.655  17.927  13.401 -0.1621 -0.1719 -0.0248
 2956W        W18087   4.402  16.452  11.238  0.1347  0.0713  0.0893
 2957W        W18088  15.334   9.320   5.424  0.2021 -0.1778  0.1657
 2958W        W18089   5.720   3.177  14.344  0.0443  0.0270  0.1314
 2959W        W18090  16.442   5.380   1.358 -0.1777  0.0225  0.2521
 2960W        W18091  12.230  11.192  14.384  0.0899  0.1876  0.2044
 2961W        W18092   4.151  14.501   5.788 -0.1578 -0.0799 -0.1009
 2962W        W18093   7.453   3.919   0.554 -0.2470  0.3146  0.0842
 2963W        W18094  15.124  12.094  12.365  0.1113 -0.1761 -0.0359
 2964W        W18095   5.145  13.343   3.480  0.1095 -0.0164  0.2717
 2965W        W18096  15.348  13.636  16.180  0.3549 -0.1533 -0.2091
 2966W        W18097  17.770   6.214   0.486  0.0772  0.1006 -0.0358
 2967W        W18098   2.819   6.902  11.889 -0.1114  0.0557  0.1398
 2968W        W18099   5.309   4.373  11.000 -0.2329 -0.0437  0.1964
 2969W        W18100  11.666  13.474   3.350 -0.0245  0.0850 -0.1465
 2970W        W18101  13.965   4.309  14.531  0.0930  0.0961 -0.0005
 2971W        W18102   3.416  11.458  12.269 -0.0849 -0.2189 -0.1277
 2972W        W18103   0.488   8.189   3.078  0.1676  0.2330  0.0491
 2973W        W18104   6.033   9.900   0.561  0.0449  0.0898 -0.1448
 2974W        W18105   0.745   2.711   1.665  0.0301  0.0645  0.0987
 2975W        W18106  11.986  17.034  12.984  0.1666 -0.1470  0.0216
 2976W        W18107   6.512   3.466   5.884  0.1176  0.0108 -0.2197
 2977W        W18108  11.267  15.770   4.527 -0.5978 -0.1013 -0.0422
 2978W        W18109   0.542   1.663  11.450 -0.2233 -0.1135  0.0211
 2979W        W18110  16.213  14.240   2.499  0.0936 -0.0187 -0.1744
 2980W        W18111   1.020   4.637   4.746 -0.1144  0.0779 -0.1370
 2981W        W18112   4.753   6.787   1.042  0.0180  0.0377  0.0557
 2982W        W18113  16.231   0.945  13.982  0.2116  0.0364 -0.1096
 2983W        W18114   9.643   5.221  14.216 -0.2054 -0.1543 -0.1535
 2984W        W18115  17.136  16.325  15.226 -0.0025  0.0186  0.1154
 2985W        W18116  15.407   6.155  14.121 -0.2411 -0.0898 -0.0943
 2986W        W18117   2.237   5.372  13.867  0.0701  0.1751  0.1559
 2987W        W18118   9.060  13.516  13.933 -0.1219  0.1589  0.0290
 2988W        W18119   8.397  18.047  11.636 -0.0557  0.1831 -0.0734
 2989W        W18120  15.281  12.458   1.300  0.2915 -0.1424  0.0192
 2990W        W18121  15.558   9.593  10.242  0.4167 -0.0252 -0.2699
 2991W        W18122  13.415   0.453   0.562 -0.0844 -0.3143  0.2379
 2992W        W18123   4.970   1.768  15.530 -0.2485 -0.0348  0.1414
 2993W        W18124  10.594   3.224  12.568  0.0064 -0.0889  0.0546
 2994W        W18125  14.686   3.883  10.297 -0.0194 -0.0657 -0.2487
 2995W        W18126   6.637   5.203  15.368 -0.1876 -0.2149  0.0075
 2996W        W18127  10.428   0.905   5.011  0.1841  0.1067  0.2007
 2997W        W18128   4.740   7.154  12.022 -0.0171 -0.2060  0.1869
 2998W        W18129  13.497   4.812  14.971 -0.1324 -0.1346 -0.2212
 2999W        W18130   9.766   2.477  15.459  0.0630 -0.1488  0.1112
 3000W        W18131   8.060   6.832   1.262 -0.1355  0.0443 -0.0358
 3001W        W18132  14.112  10.537  14.123  0.0089  0.2272  0.3616
 3002W        W18133  12.903  13.349   2.267  0.0819  0.0991 -0.0441
 3003W        W18134   3.760  15.500  14.713 -0.1232 -0.1954  0.1633
 3004W        W18135   3.255  17.310  12.293  0.0951  0.2138  0.1634
 3005W        W18136  12.977   5.750   0.772  0.1397 -0.3311 -0.2656
 3006W        W18137   0.536   0.456  12.516 -0.0208  0.2723 -0.0486
 3007W        W18138   5.405  17.410   0.950 -0.0849 -0.1024  0.1892
 3008W        W18139  13.440   0.977   4.169  0.0115  0.2562  0.1618
 3009W        W18140   2.023   5.002  10.622 -0.0198 -0.2469 -0.0715
 3010W        W18141   8.801   7.753   0.097 -0.1842  0.0618  0.0176
 3011W        W18142  11.079  12.968  11.871  0.0199  0.1369 -0.1434
 3012W        W18143  11.129   0.142   0.256 -0.0155  0.0654  0.3726
 3013W        W18144  10.153   2.152  15.588  0.0997 -0.2773  0.0591
 3014W        W18145   5.126  11.186   5.705 -0.0611 -0.1586 -0.0450
 3015W        W18146  17.252   7.397   2.313  0.1637 -0.1945 -0.2833
 3016W        W18147   5.973   9.916  15.446 -0.1378 -0.0725 -0.0621
 3017W        W18148   3.242   9.350   0.705  0.0104  0.1485  0.2161
 3018W        W18149   1.285   4.567   3.797  0.1817 -0.4346 -0.5095
 3019W        W18150  15.345   5.840   1.574  0.0171  0.0404  0.3038
 3020W        W18151  12.870   8.612  15.086  0.0124 -0.0564 -0.1064
 3021W        W18152  13.195  17.429   1.372  0.0092 -0.1994  0.0416
 3022W        W18153  11.883  16.452   4.098 -0.0308  0.1340  0.2355
 3023W        W18154  10.714   1.863   5.681 -0.1696 -0.0003 -0.2022
 3024W        W18155  17.984  11.402  14.573  0.1661 -0.0474 -0.1164
 3025W        W18156   6.818  14.560  13.641 -0.0414 -0.1355 -0.1216
 3026W        W18157   7.680   4.009  11.459 -0.0922 -0.0714 -0.2762
 3027W        W18158  14.431  13.006   1.386 -0.0592  0.1433 -0.0204
 3028W        W18159   6.241   9.349  16.093  0.3780 -0.0459  0.4915
 3029W        W18160   3.181   3.196  14.878  0.2540  0.1318 -0.2243
 3030W        W18161  17.418  10.037  14.340 -0.1589  0.1348  0.0711
 3031W        W18162   3.397   8.152   4.198 -0.0395  0.0688 -0.0583
 3032W        W18163   7.875   0.088  11.586 -0.0978 -0.0591 -0.0781
 3033W        W18164  15.759   2.948  14.228 -0.0561  0.1290  0.2545
 3034W        W18165  15.960   1.240  15.611 -0.0966  0.0735 -0.0144
 3035W        W18166   6.147   5.781   2.692  0.2852  0.0172  0.0738
 3036W        W18167  11.719   7.705  12.318  0.3520 -0.0253 -0.0517
 3037W        W18168   3.404   6.586  12.450 -0.0891  0.2083  0.0256
 3038W        W18169   6.941   5.293  13.312 -0.0821  0.3487 -0.1860
 3039W        W18170  16.031  15.011  14.807 -0.0281 -0.2609 -0.0296
 3040W        W18171  13.541  15.845  11.268 -0.1906 -0.0615  0.1523
 3041W        W18172   4.780   5.851  14.567 -0.2090 -0.0431 -0.3759
 3042W        W18173  14.281   7.301  13.464 -0.1274 -0.1697  0.0200
 3043W        W18174  17.749   7.260  14.016 -0.0142 -0.0900  0.2211
 3044W        W18175  10.398  16.246   0.592 -0.1543  0.2070  0.5105
 3045W        W18176  11.642   2.729  10.131  0.3894 -0.1984  0.3164
 3046W        W18177  11.898  13.216   0.283  0.3048 -0.0462  0.0245
 3047W        W18178  11.774   1.797  15.725  0.1224 -0.0280 -0.2703
 3048W        W18179   5.544   1.372  14.433  0.0832  0.0120 -0.0773
 3049W        W18180   8.088   2.568   2.857 -0.1008  0.0012  0.0242
 3050W        W18181  11.056  17.566  13.989 -0.1904  0.2536 -0.1268
 3051W        W18182   6.715  12.273  11.303 -0.1311  0.0866  0.2479
 3052W        W18183   3.770   7.226   3.139  0.2396 -0.0606 -0.1394
 3053W        W18184  12.802  14.635  14.254  0.2753 -0.0345  0.0021
 3054W        W18185  14.090   8.681   2.838 -0.2084  0.2507  0.3113
 3055W        W18186  13.060   4.371   0.830  0.0644 -0.0124 -0.2044
 3056W        W18187  17.180   7.999   4.412 -0.0825 -0.0095  0.1442
 3057W        W18188   2.206  16.469   3.491 -0.1618  0.1373  0.2257
 3058W        W18189   4.950   7.369   0.521 -0.0119  0.0716 -0.2938
 3059W        W18190   3.056   4.995   4.961  0.1350 -0.0185 -0.4011
 3060W        W18191  13.451   0.617   3.795  0.1586  0.0838 -0.1272
 3061W        W18192   7.036   9.540   0.629 -0.0118 -0.0010  0.1282
 3062W        W18193   1.629  17.009  13.702  0.1221  0.1110  0.0953
 3063W        W18194   2.930  12.279   2.784 -0.0779  0.1009  0.1066
 3064W        W18195  11.179  17.636   4.255  0.0355  0.0872  0.2654
 3065W        W18196   2.138  14.100  10.543 -0.0758  0.0192  0.2030
 3066W        W18197  16.202   1.686   0.328 -0.0816 -0.1448  0.0247
 3067W        W18198   5.414   9.557   3.648 -0.0913 -0.0613  0.0394
 3068W        W18199   7.357  16.424  14.478 -0.5307 -0.2340 -0.0596
 3069W        W18200   9.989  15.869   2.879  0.2791  0.0430  0.2405
 3070W        W18201  16.986  16.062  15.598 -0.1090  0.1064 -0.0729
 3071W        W18202  10.137   2.747   3.649 -0.1304 -0.2454  0.2911
 3072W        W18203  16.189   4.681  11.291 -0.2216 -0.2942 -0.0410
 3073W        W18204  12.231  14.637  15.559 -0.0435  0.4538 -0.0379
 3074W        W18205   1.319   9.204   9.829 -0.0920 -0.1878 -0.1171
 3075W        W18206  12.642  17.014   4.749  0.0521 -0.1007 -0.1304
 3076W        W18207   7.598   5.406  11.461  0.0689  0.2041 -0.2706
 3077W        W18208   2.561  17.243   5.825 -0.1864 -0.0217  0.0922
 3078W        W18209  14.492   6.781  12.792 -0.0902 -0.0476 -0.0593
 3079W        W18210   6.781  12.859   4.318  0.1133  0.0164  0.0546
 3080W        W18211   0.785   3.983   0.444 -0.0279  0.0187 -0.3934
 3081W        W18212  13.728  17.418   1.239  0.0791  0.0752 -0.0980
 3082W        W18213  17.522   5.860   1.270  0.0673  0.1571 -0.3846
 3083W        W18214   9.267  17.858   1.089 -0.2935  0.1706  0.2030
 3084W        W18215  15.865   3.983   4.919 -0.0807  0.0230 -0.0697
 3085W        W18216  17.994  12.484   1.517  0.1203  0.0069  0.1082
 3086W        W18217  12.161  15.390  15.299 -0.1263  0.0766  0.0485
 3087W        W18218  13.777   4.028   0.089  0.0991  0.0954  0.1542
 3088W        W18219  12.756   9.060   5.715 -0.1480 -0.0964 -0.0113
 3089W        W18220   4.809  13.997  13.190 -0.0176  0.1003  0.1174
 3090W        W18221  10.873  12.762   2.671 -0.0352  0.2492 -0.1323
 3091W        W18222   7.453  10.760   4.207  0.2761  0.0362  0.5656
 3092W        W18223   5.783  14.723   0.212 -0.0390 -0.3840  0.0414
 3093W        W18224   7.232   2.038   1.239 -0.1457  0.0620  0.3536
 3094W        W18225   5.183  13.065  12.297  0.1283  0.1882 -0.1171
 3095W        W18226  11.770   4.982   4.587 -0.1346  0.0533  0.0049
 3096W        W18227  17.395   3.778   0.437 -0.1580 -0.3378 -0.3502
 3097W        W18228   9.676  13.854  13.373 -0.1017 -0.2147 -0.2652
 3098W        W18229   2.225  13.203   1.749 -0.0088  0.3708  0.2696
 3099W        W18230   2.217   5.416  12.242 -0.3497  0.1309 -0.1178
 3100W        W18231  16.726   9.727  15.757 -0.0505  0.1241 -0.1596
 3101W        W18232   5.573   8.642  10.878 -0.0225  0.0463 -0.0007
 3102W        W18233   0.789  10.774  15.188 -0.0197  0.1432 -0.0169
 3103W        W18234  10.504   1.100  11.503  0.0847 -0.0016  0.2234
 3104W        W18235   6.770   3.943   2.565 -0.0183 -0.4382 -0.0745
 3105W        W18236   1.400  10.879   5.714  0.3878  0.1056 -0.6611
 3106W        W18237   5.682  12.128  13.637 -0.1295  0.1287 -0.2480
 3107W        W18238  14.785   7.453  14.248  0.0439  0.2191 -0.1525
 3108W        W18239  16.123  14.416   0.883 -0.0744 -0.0489  0.3084
 3109W        W18240  17.025   6.173   1.281  0.1121 -0.0323  0.2049
 3110W        W18241  12.880  14.719  10.930 -0.0455 -0.0382  0.0691
 3111W        W18242   1.215   2.470   1.701  0.0152 -0.2554 -0.1822
 3112W        W18243  11.308  10.256  11.513  0.1997 -0.2168 -0.0092
 3113W        W18244  17.330  11.911  14.108 -0.1753 -0.1051 -0.1190
 3114W        W18245   3.781  16.139   0.089 -0.1482 -0.1491  0.0183
 3115W        W18246  11.050  15.142  15.562 -0.1965 -0.0436  0.1322
 3116W        W18247   6.818   5.856   1.631 -0.1296  0.2556 -0.2150
 3117W        W18248  13.645   9.660   0.086  0.0356  0.0718 -0.1465
 3118W        W18249   2.402   2.397   5.188  0.2828 -0.1106 -0.0766
 3119W        W18250   3.096   0.607   6.106  0.2177  0.1249 -0.0964
 3120W        W18251   7.187  10.274  11.160 -0.1829  0.0775 -0.2990
 3121W        W18252  13.393  13.824   5.398  0.1368  0.1980  0.1250
 3122W        W18253  12.093  17.084  10.286 -0.0710 -0.0648 -0.0425
 3123W        W18254   7.152   3.453   4.314 -0.2156  0.2998 -0.0036
 3124W        W18255   3.954  16.992  13.704  0.1637 -0.0761  0.1523
 3125W        W18256  11.571   0.399  14.893 -0.0691  0.1103  0.1497
 3126W        W18257  15.989  17.787   3.591 -0.1679  0.2191  0.0975
 3127W        W18258  10.586  18.043   3.782  0.1821 -0.2596  0.2457
 3128W        W18259   5.089  16.549   4.069 -0.3092  0.0336 -0.0212
 3129W        W18260  15.365  17.149   0.473  0.0990 -0.1203 -0.1853
 3130W        W18261  12.422  15.032  11.353 -0.0972  0.3859 -0.1315
 3131W        W18262   4.212  15.734  15.936 -0.4346 -0.1430  0.0085
 3132W        W18263   4.513  11.249   3.365  0.2010  0.0404  0.0122
 3133W        W18264   0.619   0.930   4.697 -0.2525 -0.1464  0.2301
 3134W        W18265   5.902   1.783  15.259 -0.1361  0.0232  0.1525
 3135W        W18266  13.406   3.691   3.646 -0.2791  0.1680  0.0940
 3136W        W18267   3.147  13.411  12.879  0.0566 -0.0488  0.1588
 3137W        W18268   5.864   0.700  14.523  0.0252  0.0205 -0.0102
 3138W        W18269  12.994  13.362  13.043  0.1259 -0.0210  0.2431
 3139W        W18270  14.048   8.896   5.896 -0.0844 -0.0202 -0.1027
 3140W        W18271  10.640  13.292   2.790  0.0517  0.0184  0.0467
 3141W        W18272   6.276  10.469   2.188 -0.0405 -0.0579 -0.0156
 3142W        W18273   0.857   1.604  12.768  0.2270  0.1340  0.0664
 3143W        W18274  10.955  14.119  14.429 -0.0567 -0.0419  0.0192
 3144W        W18275   0.970   6.502   1.414  0.2543  0.0065 -0.1378
 3145W        W18276  10.231   0.029   4.140  0.2808  0.3379  0.0451
 3146W        W18277  17.448   1.094   0.336  0.1489 -0.0529 -0.0463
 3147W        W18278   9.851  17.805   4.185 -0.3521  0.3580 -0.0552
 3148W        W18279   4.163   8.672  11.410  0.2226 -0.1278 -0.0021
 3149W        W18280   3.538   1.639  12.191  0.0424  0.1763 -0.1586
 3150W        W18281   1.841  13.348   1.137 -0.4388  0.0317 -0.3021
 3151W        W18282  10.025  15.174  13.962 -0.0300  0.2128  0.2237
 3152W        W18283  14.574   5.119   2.734  0.2696  0.1068 -0.2122
 3153W        W18284   3.438  17.653  10.518  0.2831  0.1421 -0.2616
 3154W        W18285  14.024   2.535   3.811  0.0142  0.0011  0.2457
 3155W        W18286  15.497  17.756  12.726 -0.3140  0.3088 -0.2357
 3156W        W18287   3.918   4.543  11.875 -0.1490 -0.2298 -0.2722
 3157W        W18288  11.892   4.454   3.816  0.1226 -0.0385  0.0250
 3158W        W18289  14.965  10.161  14.291 -0.1144 -0.1299 -0.0319
 3159W        W18290  11.155  17.159   4.158 -0.1866 -0.0458  0.1625
 3160W        W18291  15.899   2.159  11.621  0.1839 -0.0230  0.1196
 3161W        W18292   5.950   4.139  15.493  0.1847  0.1603  0.1375
 3162W        W18293   7.127   5.989   5.101  0.2939 -0.1448  0.1114
 3163W        W18294   9.104  13.568   0.267  0.2183  0.3531  0.2089
 3164W        W18295  16.858  11.823  11.913 -0.0216  0.5290  0.2698
 3165W        W18296   9.032   3.981   2.395 -0.2119 -0.0113  0.2687
 3166W        W18297  13.788   9.559   1.091  0.0848 -0.1375  0.1580
 3167W        W18298   1.368   0.512   1.918  0.0705  0.1751 -0.1911
 3168W        W18299   3.087  12.668  12.287  0.0877  0.1331  0.1815
 3169W        W18300   6.043  10.630  10.750 -0.2740 -0.1563  0.2291
 3170W        W18301  10.914   7.064   0.555  0.0171  0.1871 -0.2812
 3171W        W18302  12.857   7.632  12.765 -0.2136  0.0096  0.1837
 3172W        W18303  14.127  15.861   2.638  0.0906 -0.2659 -0.0410
 3173W        W18304   4.770   2.297   0.655  0.0456  0.1782 -0.3427
 3174W        W18305   1.244   3.167   0.264  0.4084 -0.0375  0.0238
 3175W        W18306  13.020   0.583  14.391  0.1315  0.0126  0.0581
 3176W        W18307   3.743  16.314   2.897  0.0413 -0.2683  0.1001
 3177W        W18308  16.497  10.345   1.319  0.1238  0.0792  0.0829
 3178W        W18309   2.419  11.305   4.087 -0.1384 -0.3150  0.0570
 3179W        W18310  16.367   9.485   5.930 -0.2477 -0.1544  0.0437
 3180W        W18311  14.936   9.940  15.978 -0.1464 -0.0578  0.0701
 3181W        W18312  12.989   0.630  10.658  0.1566 -0.3474  0.2118
 3182W        W18313  15.562   3.063  13.306  0.1049  0.1483 -0.0665
 3183W        W18314   3.840  16.431  12.197  0.1378 -0.1502 -0.1104
 3184W        W18315   1.736  17.035   0.159  0.2845 -0.2489 -0.0637
 3185W        W18316   2.560   4.260   3.407  0.3612  0.0241  0.3457
 3186W        W18317  14.956  17.937   3.716 -0.1782  0.0676  0.0176
 3187W        W18318   4.957   1.767   1.296 -0.1787 -0.0920 -0.0213
 3188W        W18319   7.713  15.341  12.803 -0.1058 -0.0516  0.3486
 3189W        W18320  14.080  13.443   1.594 -0.0831  0.0490  0.1483
 3190W        W18321   3.477   8.289   2.473 -0.0606 -0.1128  0.1996
 3191W        W18322  14.442  10.813   3.446  0.1446 -0.2191 -0.1099
 3192W        W18323  17.302  12.801   4.922  0.0683  0.2396  0.1181
 3193W        W18324   9.064   1.115   2.842 -0.1365  0.0117  0.1701
 3194W        W18325  16.318   5.766   5.935 -0.0072 -0.0115  0.1180
 3195W        W18326  15.930   6.211   0.260  0.0300 -0.0771  0.0668
 3196W        W18327   1.939   3.706   4.862  0.1948  0.0320 -0.0631
 3197W        W18328   3.359   5.143   4.190 -0.1272  0.4873 -0.1111
 3198W        W18329   2.331  10.900   2.254  0.0699  0.0783 -0.0903
 3199W        W18330  10.389   1.066   5.526 -0.0383  0.0924  0.0206
 3200W        W18331  15.085  10.529  11.752 -0.0651 -0.1983  0.1553
 3201W        W18332   1.265   5.986  12.751 -0.0135  0.2297  0.0669
 3202W        W18333   1.994  11.068   0.171  0.1826  0.1950 -0.1234
 3203W        W18334   6.386  12.663  12.725  0.2938 -0.0398  0.0182
 3204W        W18335  13.713  14.469   3.541 -0.0910  0.0114 -0.3570
 3205W        W18336   4.402  17.734  15.293  0.1242  0.2008 -0.2636
 3206W        W18337  17.119  13.883   0.209  0.1071  0.0442 -0.4770
 3207W        W18338  13.119  15.157   5.012  0.1943  0.0032 -0.2953
 3208W        W18339  11.638   8.295   2.885 -0.2357 -0.3487 -0.3147
 3209W        W18340   1.740   1.433   0.998  0.0468  0.1525  0.0075
 3210W        W18341  16.764  16.766  10.240 -0.2697  0.0016  0.0437
 3211W        W18342  17.797   1.084  13.617 -0.1099  0.2353 -0.3088
 3212W        W18343  12.519   5.824   5.298 -0.2588  0.0157  0.0772
 3213W        W18344  17.862   4.394   0.361  0.0192  0.0172  0.0887
 3214W        W18345   1.951   8.069  15.632 -0.1879  0.0551  0.0186
 3215W        W18346  14.335  11.742  16.068 -0.0161  0.2416 -0.0967
 3216W        W18347   0.510  12.561  14.306 -0.0643  0.1844  0.2278
 3217W        W18348  10.701  14.671   5.293  0.4643 -0.0498  0.0123
 3218W        W18349   3.461   9.093  15.187 -0.2023  0.1751 -0.0513
 3219W        W18350   6.078  11.680  14.225 -0.2425  0.0724  0.4802
 3220W        W18351  16.233   0.254  15.891 -0.0757 -0.0591 -0.0611
 3221W        W18352  10.521  15.298   1.641 -0.1107 -0.1712  0.0671
 3222W        W18353  11.882  14.082   1.569  0.3164  0.0176  0.0254
 3223W        W18354  13.172  17.009   0.429  0.0547 -0.0572 -0.1293
 3224W        W18355   5.327   1.300  12.040  0.1236  0.0618 -0.0585
 3225W        W18356   4.356  17.054  12.564  0.0393 -0.0846 -0.0514
 3226W        W18357   8.998  14.190   5.308  0.0051  0.0450 -0.1114
 3227W        W18358   9.900  11.401   2.690 -0.1496  0.0604 -0.2207
 3228W        W18359   8.172  14.503  14.242  0.1854  0.0988 -0.0493
 3229W        W18360  17.735  14.009  10.107 -0.1500  0.1751 -0.1655
 3230W        W18361  15.691   7.154   9.972 -0.2279  0.1007  0.0477
 3231W        W18362  17.777  11.896   0.897  0.4693 -0.0906  0.0892
 3232W        W18363   4.736   8.739   1.132  0.0253  0.2045  0.3570
 3233W        W18364  14.911   3.614   5.035 -0.2421  0.1503 -0.1400
 3234W        W18365  14.629   3.257  13.619 -0.0476 -0.0212  0.0110
 3235W        W18366   5.401  14.546  12.906 -0.0543 -0.1467 -0.0228
 3236W        W18367   3.907   7.415  13.119 -0.1734  0.2011 -0.1378
 3237W        W18368  18.009  10.646   2.229  0.0722 -0.0082 -0.1218
 3238W        W18369   0.973   9.844   5.337 -0.0524 -0.1694 -0.0280
 3239W        W18370   5.802  13.397   9.919 -0.1905  0.0711 -0.1032
 3240W        W18371   3.137  11.755   9.844 -0.4074 -0.1503  0.1100
 3241W        W18372   7.309   5.239  14.090 -0.0835  0.1880 -0.0298
 3242W        W18373   5.828  10.266  13.986 -0.2440 -0.0580  0.2007
 3243W        W18374   0.770   8.097   2.638 -0.1650  0.2794  0.0669
 3244W        W18375   9.010   0.040  12.532  0.0222 -0.1391 -0.0763
 3245W        W18376   3.530  17.924   0.301  0.1173  0.2396 -0.2627
 3246W        W18377   5.933  13.296  12.663  0.1394  0.2675  0.1345
 3247W        W18378   6.777  18.033   1.929  0.3243 -0.0244 -0.0473
 3248W        W18379   6.492  13.494  12.908 -0.1212  0.0759  0.1850
 3249W        W18380  15.395   6.303   1.928 -0.1302 -0.0334 -0.1101
 3250W        W18381  13.309  11.917   2.388 -0.1576 -0.0185 -0.2010
 3251W        W18382  14.222   1.288   1.118 -0.0085  0.4892 -0.1061
 3252W        W18383   1.586   1.563  15.007  0.2228  0.1016  0.1188
 3253W        W18384  11.704  14.768   2.007 -0.0019 -0.0116  0.0629
 3254W        W18385   5.605   2.096  10.979  0.0272  0.5321 -0.2351
 3255W        W18386  15.586   9.492   3.907 -0.1123 -0.1299 -0.0500
 3256W        W18387   5.434  14.767   1.636  0.0274 -0.0600  0.0194
 3257W        W18388   3.656  10.823  12.711  0.3016 -0.1751 -0.0100
 3258W        W18389  18.098  13.035  14.633  0.3148 -0.1538 -0.2311
 3259W        W18390  13.716   1.262   2.441  0.1012  0.0984  0.1831
 3260W        W18391  12.775  10.265   4.268  0.1127 -0.1753 -0.0804
 3261W        W18392   4.811   6.496   0.251 -0.2203  0.0637  0.0128
 3262W        W18393   2.173  12.991  14.725 -0.0739  0.1506  0.1120
 3263W        W18394  13.144   6.164  14.657  0.1329  0.0167 -0.0848
 3264W        W18395  11.300  16.526   1.307  0.5147 -0.0750 -0.0346
 3265W        W18396   5.839  13.812  11.716  0.1260  0.1945 -0.0439
 3266W        W18397  14.929  16.902   1.158 -0.1634  0.0195 -0.0288
 3267W        W18398  15.867   4.379  10.848 -0.1174  0.0715 -0.2950
 3268W        W18399   8.992  10.573  13.431  0.1081 -0.1410  0.0151
 3269W        W18400   4.051   2.005   3.417  0.1245 -0.1766  0.0735
 3270W        W18401   6.552  17.703  13.127 -0.0493 -0.1620  0.0495
 3271W        W18402   3.527   7.743   4.571  0.1528  0.0286  0.2927
 3272W        W18403   1.984   6.226   5.828 -0.1863  0.0407  0.0341
 3273W        W18404   2.553  17.730  14.071 -0.0724  0.2808 -0.0110
 3274W        W18405  11.094  12.624   2.175 -0.0547  0.1298  0.1111
 3275W        W18406  17.968   4.796  13.160 -0.2500  0.0777  0.0973
 3276W        W18407   4.630  15.561  16.149 -0.1065  0.0474  0.2222
 3277W        W18408   5.541   7.328  13.557  0.0747 -0.1459  0.0522
 3278W        W18409   9.306   9.479   2.451  0.0361 -0.0480  0.2654
 3279W        W18410  11.033  10.192   1.772 -0.0750 -0.2792 -0.0772
 3280W        W18411  13.884  10.542  12.970 -0.1308  0.1988  0.3578
 3281W        W18412  16.318  16.281   9.679 -0.2445 -0.1324 -0.0079
 3282W        W18413   2.612   3.705  13.721 -0.0408 -0.1127  0.2387
 3283W        W18414   7.054   9.833   1.811  0.0482 -0.1630 -0.1481
 3284W        W18415   1.765  11.791   2.966 -0.1389  0.0205  0.4342
 3285W        W18416   0.466   3.502  10.549 -0.1689  0.0016  0.0706
 3286W        W18417  13.111  13.054  13.795 -0.3351  0.0799  0.1103
 3287W        W18418   8.140   8.234  13.015 -0.0221 -0.2342 -0.2811
 3288W        W18419   2.380  17.829  15.602 -0.0306 -0.2012  0.4514
 3289W        W18420   6.927   1.702  13.270 -0.0310  0.0242  0.3983
 3290W        W18421  14.890  16.383   4.230  0.2458 -0.0552 -0.2224
 3291W        W18422   1.554  17.873   4.465  0.0329 -0.1323  0.2546
 3292W        W18423   8.183   4.966   4.668  0.1185 -0.1291 -0.2368
 3293W        W18424   1.907   2.244  11.924 -0.0155  0.0927 -0.2053
 3294W        W18425  13.482   2.711   5.415  0.1998  0.2156  0.0894
 3295W        W18426   4.057  13.167   3.477 -0.0364  0.2105  0.2383
 3296W        W18427   9.913   3.649   0.201  0.0514 -0.2003  0.3413
 3297W        W18428  15.542   2.085   1.939  0.0808 -0.1757 -0.0537
 3298W        W18429   2.276  11.124   5.101 -0.2029 -0.1299 -0.1641
 3299W        W18430   5.725   7.595   0.413  0.2648  0.0396  0.1670
 3300W        W18431   8.285   1.465  11.772  0.2107  0.5077  0.0197
 3301W        W18432  17.765  16.769  14.163  0.0391  0.0607 -0.0302
 3302W        W18433   0.210   2.003  15.470 -0.0621  0.1111  0.1989
 3303W        W18434  13.323   7.008   4.131  0.0084  0.0223 -0.2835
 3304W        W18435  15.614   3.595   0.756  0.0364 -0.0570 -0.1926
 3305W        W18436   5.877   4.228   5.445 -0.0657  0.0387  0.3067
 3306W        W18437   1.069  13.138  15.551  0.1393 -0.0721  0.0552
 3307W        W18438  12.791   1.404   3.719 -0.3473 -0.0563  0.4048
 3308W        W18439   8.644   8.972  13.285 -0.0762 -0.1356 -0.0673
 3309W        W18440   2.054  15.627   3.248  0.1171  0.0860  0.1279
 3310W        W18441   7.102  17.366  12.556  0.0418  0.0421 -0.0626
 3311W        W18442   5.966   7.812  15.568  0.1850  0.0950  0.1077
 3312W        W18443  15.856   4.252   2.424 -0.0001 -0.0800  0.2849
 3313W        W18444   3.424  12.372   1.713  0.2105 -0.3002  0.3958
 3314W        W18445   7.243  12.797   4.080 -0.1267 -0.0065 -0.3902
 3315W        W18446  12.764  12.864   4.074 -0.0585 -0.1822  0.3152
 3316W        W18447   4.800  17.444  15.560 -0.0961  0.2497  0.1628
 3317W        W18448   2.692   5.077   3.325  0.0489 -0.2558 -0.1717
 3318W        W18449   9.648  12.769  14.953 -0.0648 -0.0556 -0.0053
 3319W        W18450   5.854  13.707   3.127 -0.2687 -0.2124  0.2458
 3320W        W18451  17.756  13.759   0.429 -0.0839  0.0557  0.1381
 3321W        W18452  13.528  14.867   4.947  0.0215 -0.1177 -0.2191
 3322W        W18453  17.950   1.214   5.184  0.2583 -0.0961 -0.1459
 3323W        W18454   0.884  16.865   4.870 -0.0551  0.1236  0.0772
 3324W        W18455   1.853   4.423   1.638  0.1369 -0.0637  0.2183
 3325W        W18456   1.564   9.538  12.949 -0.0353 -0.0514 -0.0274
 3326W        W18457  14.117   0.098   2.975  0.1230  0.1343  0.4319
 3327W        W18458   4.491   7.135   0.715  0.0647 -0.0558  0.0208
 3328W        W18459   2.979   0.550  12.680 -0.3546 -0.0546  0.0005
 3329W        W18460  12.036   1.969   1.382  0.0992  0.1738  0.5444
 3330W        W18461   7.793   7.298   1.430 -0.1918 -0.0703  0.2916
 3331W        W18462   2.333  14.113   5.471  0.0420 -0.0699  0.3462
 3332W        W18463  13.386   5.682  14.072  0.0480  0.2668 -0.1110
 3333W        W18464   9.228  12.769   0.257  0.1710  0.2660 -0.0350
 3334W        W18465   6.317  17.353  10.948 -0.3535  0.2451 -0.2442
 3335W        W18466  14.127   2.412   0.591 -0.3169  0.0211 -0.0787
 3336W        W18467   0.537   1.293   5.780  0.1658  0.0258 -0.0622
 3337W        W18468  14.899   4.703   0.466 -0.0241  0.0468  0.2686
 3338W        W18469   6.818   8.065   3.599 -0.2378  0.0455 -0.1284
 3339W        W18470   9.058  13.138   4.426  0.1016  0.0187 -0.3351
 3340W        W18471  16.274  13.232   0.860 -0.0230  0.2070 -0.3804
 3341W        W18472  13.421   0.053   3.883  0.1852 -0.2658  0.1594
 3342W        W18473   8.354  15.620   1.341  0.2565  0.0181 -0.2083
 3343W        W18474   9.806   5.700  11.708  0.1077  0.4181 -0.2774
 3344W        W18475   1.126   8.676  12.774  0.0337 -0.1186  0.1138
 3345W        W18476  17.082   9.132  12.486 -0.2362  0.0474 -0.3947
 3346W        W18477  10.360  18.067  10.869 -0.4521 -0.1402 -0.0572
 3347W        W18478   2.929   1.838  11.837 -0.0454 -0.1336 -0.2688
 3348W        W18479  12.260  16.071   3.828 -0.0973  0.1015  0.1158
 3349W        W18480  16.892  15.083   9.929 -0.0558 -0.1590  0.2240
 3350W        W18481  15.769  17.150  13.201  0.0248  0.1553 -0.0387
 3351W        W18482   5.382   4.488   3.763 -0.1003  0.1834 -0.0512
 3352W        W18483  17.244   9.158  13.920 -0.1588  0.0878  0.0285
 3353W        W18484  10.443   0.441  11.685 -0.0941 -0.1204  0.0064
 3354W        W18485   8.883  12.869   1.185  0.1856 -0.2149 -0.0120
 3355W        W18486  10.975   0.822  13.656  0.0341 -0.2309  0.2248
 3356W        W18487   3.827   3.001   2.103  0.1023 -0.0618  0.0227
 3357W        W18488  17.111   3.071  13.228  0.0692 -0.0144 -0.0286
 3358W        W18489  13.256   1.147   2.544  0.1083 -0.0932  0.1379
 3359W        W18490  11.531   4.078  12.087  0.0911  0.1864 -0.2167
 3360W        W18491   6.458  14.105   4.729  0.3676 -0.0906  0.0260
 3361W        W18492   9.726   3.400  15.805  0.1707  0.1069 -0.0189
 3362W        W18493  12.720   0.223   4.637 -0.2014 -0.3636 -0.0778
 3363W        W18494   7.478  13.110  13.459 -0.0088 -0.2321 -0.3119
 3364W        W18495  16.165  15.258   5.341  0.3101 -0.0323  0.1033
 3365W        W18496  17.618   8.256  11.203 -0.3863 -0.2805 -0.1876
 3366W        W18497  13.084   4.832  11.538  0.0710  0.2008  0.1063
 3367W        W18498  16.701   8.678   1.227  0.1124 -0.2586  0.1328
 3368W        W18499   6.080  17.262   4.586  0.1584 -0.1118 -0.1023
 3369W        W18500  11.387   4.351  11.572  0.0079  0.2018 -0.0668
 3370W        W18501   0.841   8.649   2.330  0.1625 -0.1154 -0.0991
 3371W        W18502  10.331   6.171   3.280 -0.1324 -0.2043 -0.2211
 3372W        W18503  14.990   3.384  15.858 -0.0535  0.0869 -0.0268
 3373W        W18504  15.815  10.639  13.087  0.1686  0.3496 -0.0759
 3374W        W18505   2.510   1.567   2.039 -0.2391 -0.1549  0.0440
 3375W        W18506   0.980  14.042   3.581 -0.0287 -0.0052 -0.1256
 3376W        W18507  14.259   8.537  11.652 -0.0782  0.0903 -0.1357
 3377W        W18508   8.333  16.526   2.917  0.0435  0.1599 -0.0818
 3378W        W18509  16.843   4.837  12.049 -0.1032 -0.0192  0.0599
 3379W        W18510   0.554   8.776  13.540 -0.0178  0.0480  0.0308
 3380W        W18511   0.345  10.911   2.155  0.0872  0.1576 -0.2181
 3381W        W18512  15.089  11.916   3.393 -0.2090  0.0618 -0.1246
 3382W        W18513  15.902  14.622  11.486  0.3822  0.0502 -0.0549
 3383W        W18514  14.656   7.125   4.618  0.2033 -0.0262 -0.2155
 3384W        W18515   2.882   4.821  15.198  0.0893 -0.1479 -0.1064
 3385W        W18516   2.888  16.547   1.705 -0.1059  0.1816  0.1518
 3386W        W18517  16.307  10.403  12.284  0.3102  0.1496  0.3743
 3387W        W18518  11.627   4.107   5.034  0.0916  0.1453  0.0169
 3388W        W18519   5.228  13.511  13.906 -0.1745 -0.1237  0.2529
 3389W        W18520   8.973   3.493  10.681 -0.0691 -0.0307 -0.0240
 3390W        W18521  13.129  11.485   1.639 -0.0474  0.2925  0.1123
 3391W        W18522  12.936  13.502   3.332 -0.1044  0.1512 -0.1638
 3392W        W18523   2.802   1.935   2.900 -0.1184 -0.1560 -0.2843
 3393W        W18524  15.521   8.895   3.003  0.0260 -0.5196  0.1605
 3394W        W18525   8.517  15.243  16.188 -0.0991  0.1630  0.0829
 3395W        W18526   2.678   1.113  12.127 -0.0233  0.1003 -0.3406
 3396W        W18527  16.632  11.822   2.275 -0.0722 -0.0841  0.1678
 3397W        W18528   4.156   1.015  16.035 -0.2430 -0.0710  0.0204
 3398W        W18529  16.235   3.856   2.974 -0.0849  0.0205  0.0891
 3399W        W18530   1.779  10.945  13.814 -0.2496 -0.2009 -0.0730
 3400W        W18531  12.414  11.187   0.474  0.1110  0.1527 -0.0149
 3401W        W18532   8.684   1.435  15.294 -0.1499 -0.0721 -0.0195
 3402W        W18533  10.625  10.616   1.171 -0.1136 -0.0326  0.0934
 3403W        W18534  14.914  16.020  12.103 -0.0266  0.0913 -0.1326
 3404W        W18535   7.272  15.625  16.068 -0.0947  0.0112 -0.0251
 3405W        W18536  11.859  10.080   1.714 -0.1435 -0.0940 -0.1179
 3406W        W18537   0.269   3.951  10.368  0.0056  0.1616 -0.1536
 3407W        W18538   6.547  12.501  10.856  0.1849  0.2067 -0.2277
 3408W        W18539   7.380  13.700  16.042  0.2098 -0.1992  0.1889
 3409W        W18540   9.347  15.940   5.251 -0.0591  0.1573  0.2523
 3410W        W18541  10.106   4.992   4.899  0.0044 -0.1039  0.1102
 3411W        W18542   9.732   5.222  11.586  0.0105  0.1639  0.0270
 3412W        W18543   7.027   6.424   4.831 -0.1064 -0.1068 -0.1298
 3413W        W18544   1.890  16.564  13.263  0.0453 -0.2691 -0.1630
 3414W        W18545  14.326   5.331   0.267 -0.0679 -0.2237  0.0319
 3415W        W18546   4.542  15.236   3.017 -0.1720 -0.0758 -0.1519
 3416W        W18547  17.166   1.085  15.854  0.2966  0.0084 -0.0795
 3417W        W18548  15.520   7.315   0.816  0.4080  0.1038 -0.3894
 3418W        W18549  15.460  15.479   0.827 -0.1713 -0.3209  0.0587
 3419W        W18550   3.800  16.647   4.641  0.1073 -0.1230 -0.0650
 3420W        W18551  14.945   5.568  11.576 -0.0990 -0.0402  0.1056
 3421W        W18552   7.639  14.960   1.647 -0.0528  0.0786  0.2391
 3422W        W18553  18.085   1.239  10.511 -0.1343 -0.2255 -0.0332
 3423W        W18554   8.075  17.378   1.125  0.1729  0.1785 -0.0725
 3424W        W18555   5.708   3.999   1.442 -0.0709  0.1580  0.3441
 3425W        W18556  15.148   3.037   1.132  0.1336 -0.0128  0.1946
 3426W        W18557   5.294   7.304  11.873  0.0128  0.1882 -0.1908
 3427W        W18558   3.124   7.320   4.604 -0.0046 -0.1079  0.1483
 3428W        W18559   5.799   5.621   0.735 -0.3057  0.1820 -0.1746
 3429W        W18560   1.579   3.393   2.526  0.1566  0.0743 -0.1704
 3430W        W18561   2.366  10.839   4.262  0.1443 -0.1902 -0.2667
 3431W        W18562  15.191   1.534  13.818  0.0723 -0.2309  0.2313
 3432W        W18563  16.461   2.711  13.697  0.1094 -0.0337 -0.1012
 3433W        W18564  17.684   2.081  14.470 -0.0813 -0.0070 -0.1462
 3434W        W18565   6.629  15.807   3.835 -0.0221  0.2450 -0.0581
 3435W        W18566   6.436  11.803   2.666 -0.0838 -0.1818 -0.1132
 3436W        W18567  15.070   3.256   4.072 -0.4089 -0.0327 -0.4407
 3437W        W18568   9.136   0.358   6.211 -0.0372  0.0045  0.1999
 3438W        W18569   5.007  11.570  13.216  0.0491 -0.1887 -0.1480
 3439W        W18570   2.040   0.775   3.703 -0.1760 -0.0198  0.2871
 3440W        W18571  16.668   7.032  13.926  0.3863  0.0801  0.1780
 3441W        W18572  13.628   1.859   1.721 -0.0481  0.1990  0.0215
 3442W        W18573  17.995   3.935  12.173  0.0549  0.0130 -0.2118
 3443W        W18574   4.596  17.746   0.632  0.1008  0.0448 -0.1370
 3444W        W18575  10.446  12.079   3.196  0.1053  0.0644 -0.0010
 3445W        W18576  16.166   3.095   4.542 -0.0631  0.0553 -0.1012
 3446W        W18577   0.652  17.620   5.456  0.1391 -0.1220  0.0881
 3447W        W18578   0.455   4.629  14.899 -0.1019  0.0301  0.3937
 3448W        W18579  16.406  10.281   3.675  0.1668 -0.0015  0.1980
 3449W        W18580  13.075  10.987  15.554  0.1501 -0.0487 -0.1126
 3450W        W18581  14.148   6.788  13.495  0.1437 -0.0335  0.2379
 3451W        W18582  14.406   3.398   0.073 -0.2699 -0.2362 -0.0565
 3452W        W18583  13.968   2.588   2.905 -0.1607 -0.0878 -0.0048
 3453W        W18584  15.320   0.786   5.095  0.0602  0.0026 -0.6265
 3454W        W18585   8.821  16.190   0.366 -0.0447  0.1375 -0.0774
 3455W        W18586   4.816  14.417  12.295  0.0753 -0.0584  0.1705
 3456W        W18587  12.324  10.431   1.689  0.2586  0.4649 -0.0349
 3457W        W18588  14.795  17.759  12.049 -0.1929 -0.1928  0.0765
 3458W        W18589  16.600  15.467   1.963 -0.1705  0.3143 -0.1384
 3459W        W18590   3.340   4.542   4.910 -0.0059 -0.1112 -0.0660
 3460W        W18591  17.420   7.646  13.856  0.2223  0.1028 -0.1200
 3461W        W18592  14.685   9.473   3.543  0.0889  0.0999  0.0339
 3462W        W18593   5.675  13.490   0.340  0.0195  0.0963  0.0057
 3463W        W18594  15.325  12.076   1.601  0.0021 -0.2339  0.0287
 3464W        W18595   7.804   1.745  15.226 -0.1183 -0.0942 -0.3139
 3465W        W18596  11.192   9.599   2.597 -0.1048 -0.2585 -0.1544
 3466W        W18597  15.952  13.413   3.415 -0.1000 -0.0589  0.0569
 3467W        W18598   1.364   9.333   3.170 -0.0937  0.0849 -0.1453
 3468W        W18599  12.177  15.178   6.006  0.0648 -0.0122 -0.0741
 3469W        W18600   2.637   6.923  15.858 -0.1864  0.0508  0.1046
 3470W        W18601   7.468   6.473   3.458  0.0724 -0.0146  0.0168
 3471W        W18602   0.576   7.680   5.042  0.2087  0.1862  0.0671
 3472W        W18603   0.128  15.453  14.783 -0.3477 -0.0915  0.3054
 3473W        W18604   4.798  15.517   1.530  0.2744  0.0421  0.2115
 3474W        W18605   0.694  11.808  13.646  0.1126  0.2378  0.0736
 3475W        W18606   3.892  10.047   3.097  0.3829 -0.4288 -0.1969
 3476W        W18607  10.790  14.693   4.380  0.1588  0.0750 -0.1742
 3477W        W18608   3.999  10.276  12.954  0.3432 -0.2908 -0.1573
 3478W        W18609   3.827  15.265   2.487 -0.3085  0.0732 -0.3007
 3479W        W18610   3.400   6.808   0.088 -0.1984 -0.0234 -0.2293
 3480W        W18611  15.932  17.913   2.801  0.1192  0.1041  0.1510
 3481W        W18612   8.026  13.502   5.231 -0.1219 -0.1516  0.1932
 3482W        W18613  16.303  14.134   1.905 -0.0159  0.2083  0.0064
 3483W        W18614   1.529   2.055   2.673 -0.1478 -0.1534 -0.1977
 3484W        W18615  17.188   4.280  14.899 -0.2992  0.2748  0.0531
 3485W        W18616   2.584  11.683   4.356  0.0279  0.2100  0.1397
 3486W        W18617  17.793  17.969  11.635 -0.0712  0.3018 -0.1034
 3487W        W18618   0.727   5.815  13.701 -0.0357 -0.2522 -0.0238
 3488W        W18619   7.314   8.252  14.166 -0.1898 -0.1900 -0.1350
 3489W        W18620   8.805   7.352   2.558 -0.0068  0.2224  0.0028
 3490W        W18621   4.331  12.088   3.884  0.1629 -0.0828 -0.0677
 3491W        W18622   3.999   7.738   2.932 -0.0621 -0.0100  0.2475
 3492W        W18623   3.038   4.619   1.692  0.2678 -0.0037  0.1618
 3493W        W18624  16.171   8.147   4.482 -0.0401 -0.3945 -0.0048
 3494W        W18625  13.975  12.566  14.313 -0.1621 -0.1251  0.1322
 3495W        W18626   7.415  15.805  13.101 -0.0392  0.0202 -0.1510
 3496W        W18627   0.736   9.919  13.300  0.0479 -0.0063  0.5404
 3497W        W18628  15.879  17.472  11.139  0.0118  0.0022 -0.0398
 3498W        W18629   9.039  11.760   0.704  0.1093 -0.2610 -0.2924
 3499W        W18630  10.811   3.706  12.749  0.1109  0.0511 -0.0138
 3500W        W18631   4.018   2.179   1.056  0.1973  0.3129 -0.3216
 3501W        W18632   1.906   2.733  14.705 -0.0413 -0.3011 -0.0188
 3502W        W18633  10.611  12.924   0.503  0.0678  0.1388 -0.0057
 3503W        W18634   2.161  16.974   0.629  0.0904 -0.0848 -0.2208
 3504W        W18635  13.218   7.596  15.936 -0.1151 -0.2104 -0.0524
 3505W        W18636  17.661   7.964   0.411  0.0666  0.2431  0.2213
 3506W        W18637  11.835   8.631  12.031 -0.2029 -0.3135  0.3838
 3507W        W18638  13.010  11.482   2.589  0.1838  0.0466  0.0109
 3508W        W18639   9.407   1.492  13.396  0.2499 -0.1646 -0.1090
 3509W        W18640   8.722  17.137  14.877  0.1648  0.2730  0.0764
 3510W        W18641   6.549   3.962   4.193  0.1368  0.2020 -0.1390
 3511W        W18642   3.204   9.147  14.165  0.2365  0.1763 -0.1072
 3512W        W18643  15.167   7.975  15.214 -0.0338  0.0998 -0.1568
 3513W        W18644   0.390   9.376  14.171  0.3349 -0.0946  0.1439
 3514W        W18645   1.241   4.399  11.570 -0.0680  0.0116  0.0633
 3515W        W18646   6.371   4.436  13.564  0.0990 -0.1045 -0.1315
 3516W        W18647   1.770   4.066   2.901 -0.2045 -0.2497 -0.1274
 3517W        W18648   2.660  14.682  14.658 -0.0207  0.0479  0.0727
 3518W        W18649  16.489  15.660   3.645  0.3255  0.1431 -0.3510
 3519W        W18650  11.581   6.793  10.638 -0.0425 -0.3999  0.1721
 3520W        W18651  11.003   3.995   5.798 -0.1942 -0.2514  0.0591
 3521W        W18652  14.282  15.213   1.619 -0.0774 -0.0752  0.2172
 3522W        W18653  14.202   7.545  12.936  0.0307  0.1040  0.2819
 3523W        W18654  14.107   8.573  15.746 -0.1011 -0.0686 -0.0417
 3524W        W18655  18.055  15.000   4.021 -0.1804 -0.1995  0.0814
 3525W        W18656   2.826  14.140   1.596  0.0954 -0.0174 -0.3277
 3526W        W18657  14.042   2.796  15.528  0.3710 -0.0803 -0.1208
 3527W        W18658   8.506   5.967   4.396  0.1270  0.1028 -0.0937
 3528W        W18659   8.523   5.883  10.175  0.2120  0.0071 -0.0557
 3529W        W18660  12.231  10.167   0.825 -0.3100 -0.1849  0.2713
 3530W        W18661  13.330   5.396  11.200 -0.2822 -0.1202  0.1545
 3531W        W18662   3.667   0.790  14.586 -0.0064 -0.1031 -0.0263
 3532W        W18663   6.624   1.361   0.984  0.1315  0.0575 -0.0257
 3533W        W18664  15.510  10.661   2.429 -0.1613  0.0162 -0.0161
 3534W        W18665  12.469  16.628   0.755 -0.1613 -0.0280  0.2224
 3535W        W18666  12.911   9.910  11.571  0.0364 -0.1058  0.0264
 3536W        W18667  16.319   3.521   1.808 -0.2705  0.0311  0.0400
 3537W        W18668  13.920  13.150  15.474 -0.1675 -0.0220  0.3460
 3538W        W18669  14.557  10.325   5.146  0.3210  0.0136 -0.0993
 3539W        W18670  10.526  14.812  14.654 -0.2215 -0.1410  0.0170
 3540W        W18671  12.413  15.284   2.664  0.0151 -0.0570 -0.0445
 3541W        W18672  13.008  13.417  12.114  0.1792 -0.0865  0.3422
 3542W        W18673  14.219   2.563   1.077  0.0960 -0.0084 -0.2843
 3543W        W18674  13.893  10.597   3.792 -0.0836  0.3223  0.1145
 3544W        W18675  10.985  13.031   1.778 -0.0751 -0.0591 -0.1823
 3545W        W18676   5.738  11.059   0.798  0.0475  0.0754 -0.1928
 3546W        W18677   2.268  15.675  10.439 -0.0857  0.0777 -0.0323
 3547W        W18678  11.166   3.746  14.591  0.1341 -0.1119 -0.2014
 3548W        W18679   8.312   2.765  10.844 -0.3567  0.1498 -0.0793
 3549W        W18680  14.547   9.908  10.997  0.2617  0.4750 -0.1176
 3550W        W18681   5.845   7.874   0.909  0.2434 -0.0360  0.0903
 3551W        W18682   8.519  17.607   3.239  0.1574 -0.0220 -0.1107
 3552W        W18683   3.285  15.124   2.265 -0.0421  0.0098 -0.2235
 3553W        W18684  16.352  14.645   3.306 -0.1072 -0.0405  0.0262
 3554W        W18685   6.024   1.977  13.249  0.2017  0.1664 -0.1159
 3555W        W18686   0.720  10.576  14.665 -0.0562 -0.3541 -0.3084
 3556W        W18687  18.103  17.712   0.962 -0.2479  0.0445 -0.1016
 3557W        W18688  10.141  11.857   4.694  0.0847 -0.3869 -0.2005
 3558W        W18689  15.745  12.080   5.314  0.3022 -0.2319 -0.0603
 3559W        W18690  16.022  15.933  12.736 -0.2692  0.2065 -0.2978
 3560W        W18691   2.709   5.757   3.890  0.3459 -0.1050  0.1792
 3561W        W18692  11.101  18.032  12.156  0.0458  0.0929  0.0997
 3562W        W18693  15.670  17.236  11.485  0.0528 -0.1763 -0.0044
 3563W        W18694   1.843   5.491  11.176 -0.1751 -0.2643 -0.2675
 3564W        W18695   4.428  17.420   2.699 -0.2577  0.3718 -0.0412
 3565W        W18696  11.954  17.551  11.217  0.0269  0.0704  0.0884
 3566W        W18697   6.806   8.179  15.097 -0.0635  0.0614 -0.3025
 3567W        W18698   7.102  15.448   2.050 -0.2124  0.1386  0.0664
 3568W        W18699   0.899   8.676   1.230  0.1498  0.1168 -0.0800
 3569W        W18700   8.693  13.007   0.255  0.0337  0.0378 -0.0706
 3570W        W18701  17.084  10.744  10.895 -0.1140 -0.3368 -0.0157
 3571W        W18702  15.872  10.103  10.033 -0.2585 -0.1241 -0.2401
 3572W        W18703   3.208  13.328   2.001  0.2773  0.0740  0.1834
 3573W        W18704   9.538   5.452   0.113  0.0551 -0.2075 -0.0300
 3574W        W18705   9.615   4.765  14.530 -0.1982  0.0703  0.1828
 3575W        W18706   3.050  11.636   2.224 -0.1324  0.2690  0.1273
 3576W        W18707   9.824  15.438   0.820  0.4228  0.3159 -0.2213
 3577W        W18708  12.388   8.933  12.642 -0.1865 -0.2435  0.0316
 3578W        W18709   5.569   8.531   4.382 -0.0652 -0.1318  0.0615
 3579W        W18710   2.300   2.596   3.959  0.2704 -0.0092 -0.1458
 3580W        W18711   0.557   0.784  10.517 -0.0696 -0.3166  0.1663
 3581W        W18712   9.425   3.732   4.971 -0.0493  0.1597 -0.1309
 3582W        W18713   7.401  13.741  12.707  0.1731 -0.0417 -0.1604
 3583W        W18714   6.288   4.698   3.671 -0.0733  0.0787 -0.1702
 3584W        W18715  11.030  12.960   4.486 -0.1676 -0.1108 -0.3515
 3585W        W18716   4.696   6.094   3.816 -0.2837  0.0833 -0.1362
 3586W        W18717  14.731   3.586   4.156 -0.0343  0.0907  0.0464
 3587W        W18718   2.296  18.083   3.266 -0.1494 -0.1029 -0.2411
 3588W        W18719  14.406   3.895   6.307  0.0649  0.3852  0.0394
 3589W        W18720   4.753   0.160  12.085 -0.1175 -0.0843  0.3574
 3590W        W18721   0.800  14.853   3.749  0.1763  0.0095  0.1266
 3591W        W18722   5.420  17.837  13.850 -0.1777 -0.2028  0.0581
 3592W        W18723   0.559   6.863   1.367 -0.0195 -0.2683 -0.1238
 3593W        W18724  15.013   9.390   2.581 -0.0043 -0.4069 -0.2104
 3594W        W18725   8.912   4.551  10.680 -0.1836  0.2479  0.1189
 3595W        W18726   5.319   6.769   1.639  0.1014  0.3441 -0.1268
 3596W        W18727  10.274   5.548  13.568 -0.1595 -0.0736 -0.4389
 3597W        W18728   3.007  12.513   3.869  0.0267 -0.0955  0.0637
 3598W        W18729   5.263  11.062  14.025  0.2147 -0.3715 -0.1156
 3599W        W18730   4.164   4.655   0.896 -0.1501 -0.0058  0.0316
 3600W        W18731  11.763  10.688   4.219  0.1962 -0.1112 -0.1710
 3601W        W18732   0.366   3.075  10.296 -0.0071  0.1050  0.1929
 3602W        W18733  12.457   5.491  14.497  0.1308 -0.2866  0.1031
 3603W        W18734  13.327  11.685   1.242  0.0048  0.1370 -0.2753
 3604W        W18735   8.178   4.124  15.368  0.0885 -0.0037  0.0263
 3605W        W18736  11.254   4.286  15.478 -0.2817 -0.0683  0.0148
 3606W        W18737   9.408   2.797  15.342 -0.0530  0.4062 -0.2234
 3607W        W18738   6.848   4.815   0.500  0.1791  0.3269 -0.2979
 3608W        W18739  17.840  11.936  14.166  0.1085 -0.2161 -0.0654
 3609W        W18740   9.644  17.017  14.911  0.3783 -0.1175 -0.2804
 3610W        W18741   5.230   9.380  15.812 -0.0982 -0.0142 -0.0235
 3611W        W18742  17.949   2.632  12.711 -0.0299  0.0194 -0.0878
 3612W        W18743  16.106   2.151   1.858  0.5016 -0.1854 -0.1324
 3613W        W18744  16.491   7.629  14.483  0.2006 -0.0457 -0.3051
 3614W        W18745   1.531  13.172  12.656  0.1082 -0.1457  0.4393
 3615W        W18746  14.850   3.717  15.485  0.5233  0.0262 -0.1783
 3616W        W18747   3.204  10.817   0.197  0.2817 -0.1091 -0.2791
 3617W        W18748   3.772  10.311  14.803  0.0087 -0.0381 -0.0061
 3618W        W18749   6.633  11.346   2.429  0.0389  0.0169  0.2235
 3619W        W18750   2.968  17.791  14.418 -0.1628 -0.1306 -0.1167
 3620W        W18751   2.293   8.483   1.810 -0.1224  0.4472 -0.0393
 3621W        W18752   4.663   0.699   0.469  0.1824 -0.0988 -0.0862
 3622W        W18753  17.276   8.232  15.855 -0.1761 -0.1130 -0.3378
 3623W        W18754   1.201   6.586  14.112 -0.0426 -0.0260 -0.1009
 3624W        W18755   7.567   3.733  14.075  0.1418  0.0569  0.1391
 3625W        W18756  10.560   0.399   4.945 -0.0597 -0.1107  0.0756
 3626W        W18757  17.921   4.262  15.943 -0.2254 -0.1533  0.1857
 3627W        W18758  12.093  15.673   4.171  0.0231  0.1686  0.1217
 3628W        W18759  12.865  12.374  10.579 -0.2072 -0.0720  0.1014
 3629W        W18760  15.021   0.325   3.026 -0.1590  0.0050 -0.2443
 3630W        W18761  14.071  14.395  14.511  0.0546  0.0296 -0.2319
 3631W        W18762  17.975  16.696  10.987 -0.1857 -0.0698  0.0660
 3632W        W18763  16.429   8.842   3.672 -0.1157  0.1708  0.1468
 3633W        W18764   5.952  15.085   5.102 -0.0235 -0.0145 -0.3642
 3634W        W18765   6.412   0.128   9.844  0.0408 -0.0128  0.1826
 3635W        W18766  13.649   5.425   4.604 -0.0887 -0.0087 -0.3316
 3636W        W18767  16.241  16.027  13.969 -0.0373  0.1635 -0.0590
 3637W        W18768   9.217   5.185  13.797 -0.0436 -0.0376  0.1129
 3638W        W18769   3.715   7.504  13.614 -0.0659 -0.0723 -0.1939
 3639W        W18770  16.372  16.855  15.095  0.3889  0.0584 -0.4458
 3640W        W18771  12.549  13.206   1.802  0.0273 -0.0823  0.1335
 3641W        W18772  10.258   8.028  12.693  0.0802  0.0348  0.1478
 3642W        W18773   8.581   4.768  10.202  0.0293  0.0043  0.2555
 3643W        W18774   3.727   5.080  13.409 -0.0671 -0.0087 -0.0423
 3644W        W18775   0.604   0.023  11.496 -0.0418  0.1226  0.0268
 3645W        W18776   2.279  16.938   3.303  0.1775 -0.0299  0.1876
 3646W        W18777  17.120   8.561   1.620 -0.0303  0.1168  0.1015
 3647W        W18778  16.435   8.367   2.184  0.0003 -0.0884  0.0248
 3648W        W18779   7.300   0.484  11.371  0.1222 -0.0252  0.0847
 3649W        W18780   8.604  16.976  15.874  0.1406  0.0762 -0.2972
 3650W        W18781   4.624   4.447   5.404  0.1231 -0.0101  0.2220
 3651W        W18782   6.641   6.688   3.907 -0.1370 -0.1428  0.1398
 3652W        W18783  12.473  14.535  13.904  0.0920 -0.0749 -0.4415
 3653W        W18784  14.840  12.782  14.096 -0.1303 -0.2213  0.2868
 3654W        W18785   6.197  13.092   1.291  0.2377 -0.1310  0.0850
 3655W        W18786  13.690  11.979  15.127  0.2238  0.0689  0.2326
 3656W        W18787  11.004  11.202  12.948  0.1033 -0.3169 -0.2624
 3657W        W18788   0.877   4.530  14.567 -0.1153 -0.1453 -0.0840
 3658W        W18789   4.796  15.049   0.171  0.0845  0.0874  0.3848
 3659W        W18790   1.271   9.543   4.936  0.1223  0.1158 -0.0004
 3660W        W18791   7.658   7.788   2.563  0.1039  0.0888  0.3431
 3661W        W18792  14.403   7.758   1.549 -0.0225 -0.2518 -0.1288
 3662W        W18793   6.279  16.071  11.220 -0.1718 -0.2145  0.1802
 3663W        W18794   1.387   6.891  11.512  0.1457  0.0792  0.0432
 3664W        W18795  14.229   3.712  10.494  0.1428 -0.2564 -0.0413
 3665W        W18796  13.345   3.630  11.879 -0.0663  0.0658  0.1656
 3666W        W18797  15.092  15.266  14.917 -0.0874  0.0940 -0.2152
 3667W        W18798   7.394   0.339  15.348 -0.4728 -0.0816  0.1330
 3668W        W18799   1.261   1.474  13.506  0.2996 -0.0204 -0.2954
 3669W        W18800   9.873   2.856   2.185  0.0317 -0.1567  0.1527
 3670W        W18801   6.988   7.269  10.180 -0.1504  0.1947  0.0995
 3671W        W18802  17.519   2.561   4.211 -0.0973  0.4202 -0.1375
 3672W        W18803   6.397  11.450   5.202 -0.2233  0.4437  0.1506
 3673W        W18804   8.006  14.609   0.461 -0.3298  0.1136 -0.1988
 3674W        W18805  11.283   8.269   2.477  0.0805  0.0286  0.0936
 3675W        W18806   4.689   7.815   5.122 -0.1164  0.1199  0.1601
 3676W        W18807   5.003   8.496   1.496 -0.2619  0.2730 -0.1709
 3677W        W18808   0.212   1.687  16.206 -0.1588  0.0998 -0.2198
 3678W        W18809   2.296   2.689   0.955  0.3258 -0.3296 -0.0112
 3679W        W18810   3.114  16.817   3.848  0.4513 -0.1408  0.1811
 3680W        W18811   7.133  10.682   4.640 -0.1603  0.1785 -0.0063
 3681W        W18812  14.470   2.867   0.732  0.0474  0.1234 -0.0093
 3682W        W18813  14.131   3.530   4.359 -0.0756  0.1855  0.0886
 3683W        W18814  16.115   0.889  14.776  0.0204 -0.0703 -0.0012
 3684W        W18815  11.398  15.526   1.440  0.2243 -0.0864  0.2034
 3685W        W18816   5.074  15.009   5.911 -0.3330  0.0305  0.1654
 3686W        W18817   3.760   1.181  12.385 -0.0472 -0.1261 -0.0100
 3687W        W18818   6.979   3.281   2.337 -0.2106 -0.0510  0.1280
 3688W        W18819   4.000   5.972   5.545  0.0531 -0.1913  0.0889
 3689W        W18820  12.634  16.380   2.363  0.0032  0.0522  0.2733
 3690W        W18821  16.157  11.760  15.856  0.1686 -0.0402  0.2097
 3691W        W18822   9.235   4.953   5.484 -0.3890  0.4022 -0.1339
 3692W        W18823   4.224   8.166  12.438  0.0628 -0.2980  0.1458
 3693W        W18824   5.725   2.610   0.894  0.0178  0.0733  0.2348
 3694W        W18825   5.094   8.826  15.739 -0.0715 -0.1463 -0.0485
 3695W        W18826   8.350   0.197   1.494  0.2286 -0.3938  0.0280
 3696W        W18827  15.628  11.386  14.836  0.0837 -0.0557 -0.3899
 3697W        W18828  15.039  15.052  14.367 -0.0067 -0.0831  0.0275
 3698W        W18829   2.169   6.933   4.785 -0.1026  0.0609  0.3151
 3699W        W18830  17.315  11.882   0.667 -0.1778  0.0457  0.0678
 3700W        W18831   0.528   1.339  11.840  0.1852  0.0234 -0.4465
 3701W        W18832   1.220  17.836   2.434 -0.0669  0.2877 -0.1480
 3702W        W18833   1.097  14.990   2.780  0.3427 -0.1131 -0.0249
 3703W        W18834   1.737  13.112  14.459  0.2290 -0.4293 -0.0927
 3704W        W18835  17.839  16.073  16.183 -0.1303 -0.2112  0.2225
 3705W        W18836  11.652   6.643   1.080  0.3342 -0.1352  0.2174
 3706W        W18837  16.729   2.302  13.929  0.0225 -0.1820  0.0793
 3707W        W18838  14.492  17.100   1.331  0.0682  0.1389 -0.0121
 3708W        W18839   7.823   7.023  11.327  0.1025 -0.0106  0.0621
 3709W        W18840   8.066   1.818   0.225  0.0285  0.3427 -0.0961
 3710W        W18841  14.808   0.844   5.194  0.0881 -0.0132  0.0400
 3711W        W18842   5.465   2.538   2.740  0.0560  0.1196  0.1732
 3712W        W18843   7.110  11.208   2.398  0.2023  0.1538  0.0322
 3713W        W18844   9.444   7.347   0.654  0.0752  0.2241  0.2949
 3714W        W18845   7.082   9.808  14.343 -0.0479  0.2980  0.3013
 3715W        W18846  16.939  11.063  15.715  0.1445  0.1542  0.0900
 3716W        W18847   5.957   1.194   0.118  0.1893 -0.0148 -0.0815
 3717W        W18848   9.773   9.979  15.784  0.0442 -0.0832  0.1159
 3718W        W18849   3.775  16.483  13.054 -0.0974  0.2735  0.0969
 3719W        W18850   6.648   9.881  14.659 -0.0631  0.2830  0.0670
 3720W        W18851   7.326  15.861   4.573  0.0159 -0.0322  0.1118
 3721W        W18852  15.170   0.331   3.477  0.1603 -0.0056  0.2776
 3722W        W18853   4.445  13.694  12.901  0.1223  0.1139 -0.2273
 3723W        W18854   6.177   4.111  13.166 -0.2253  0.0008  0.4078
 3724W        W18855  13.635   5.719  15.371  0.4075 -0.1944  0.0780
 3725W        W18856   9.925   4.473   4.759 -0.1932 -0.1749 -0.0625
 3726W        W18857  12.712  14.088   4.090  0.0010 -0.0606 -0.1779
 3727W        W18858  12.043  14.016  11.728  0.1240  0.2684 -0.1786
 3728W        W18859   2.923   9.215  15.427 -0.0562  0.0969  0.1749
 3729W        W18860   8.845  13.196  13.553 -0.1867 -0.3505  0.2144
 3730W        W18861  15.276  10.791   1.977 -0.1295  0.0217 -0.2356
 3731W        W18862   7.677  16.628   4.625 -0.1185 -0.0403 -0.0176
 3732W        W18863  11.898   8.441   0.870 -0.0054 -0.2606 -0.3671
 3733W        W18864   4.508  17.030  15.114  0.1021  0.0280 -0.3820
 3734W        W18865  13.666  13.523   1.911  0.1363  0.1433 -0.1447
 3735W        W18866   6.734  12.944  10.624 -0.0149  0.0862  0.0314
 3736W        W18867   0.601   9.369   1.530 -0.1091 -0.1054 -0.0961
 3737W        W18868  15.579  15.562  13.276  0.0412 -0.0203  0.0239
 3738W        W18869  12.956   2.299   5.601  0.0614 -0.0702  0.0490
 3739W        W18870   7.256  14.424  10.864  0.0567 -0.2550  0.1842
 3740W        W18871   9.593   7.856   3.107 -0.0983  0.4572 -0.1579
 3741W        W18872  13.873  11.923   0.034  0.1024  0.0826 -0.1600
 3742W        W18873   1.275   6.163  13.189  0.1493 -0.3023 -0.0506
 3743W        W18874   1.289   5.292  11.535 -0.2611  0.1868  0.1911
 3744W        W18875   8.888  14.310  14.175  0.2249  0.1465  0.0443
 3745W        W18876   8.249  11.498  15.745 -0.1810  0.1516 -0.1645
 3746W        W18877   9.253   0.236  13.447 -0.1168  0.1535  0.0834
 3747W        W18878   2.356  13.841  11.204  0.1210  0.0463 -0.3070
 3748W        W18879   5.010   6.687   4.741  0.0223  0.1779  0.1559
 3749W        W18880   4.883   4.506   4.242  0.2078  0.0287  0.0712
 3750W        W18881  11.597   8.035   1.788  0.1469  0.2390  0.0864
 3751W        W18882   5.728   9.611  14.466 -0.0672 -0.1028 -0.0677
 3752W        W18883  16.935   6.276   0.129  0.1738 -0.0404 -0.0649
 3753W        W18884  14.333  13.038   4.937 -0.2554  0.3156 -0.2469
 3754W        W18885  13.565   9.794  14.632  0.1955 -0.1712 -0.0066
 3755W        W18886   1.579  13.430   2.370  0.1278 -0.3486 -0.0329
 3756W        W18887   6.642  16.880   3.976 -0.0559 -0.1158 -0.1745
 3757W        W18888   9.522   1.341  12.885  0.1342  0.1781  0.2230
 3758W        W18889   2.861   1.545   4.199 -0.3035  0.0683 -0.2014
 3759W        W18890   4.573   8.121  15.090 -0.2086 -0.0819 -0.0661
 3760W        W18891   4.341   3.001   1.134  0.2523  0.0817  0.0127
 3761W        W18892   5.808  11.982  11.537  0.2130 -0.2194  0.1245
 3762W        W18893  16.222  12.797   1.712 -0.4236 -0.1308 -0.1759
 3763W        W18894  10.453   7.577   5.024  0.0913  0.3020 -0.2517
 3764W        W18895  10.730   6.702   4.472  0.2585  0.0004 -0.1966
 3765W        W18896   8.059   2.583   2.344 -0.0538 -0.2148 -0.1711
 3766W        W18897   4.720   0.255  14.031  0.1284  0.2829 -0.3383
 3767W        W18898  17.923   9.281  11.366  0.2890 -0.1241  0.0429
 3768W        W18899   4.272  11.243  13.288  0.0854 -0.0438 -0.0498
 3769W        W18900   5.317  15.226   3.651  0.1829  0.1230  0.0494
 3770W        W18901   0.751   4.227  11.934  0.0852  0.0495  0.1407
 3771W        W18902   8.249  13.178   3.486 -0.0415 -0.1637  0.0897
 3772W        W18903   6.128  14.059  13.091 -0.1507  0.0323 -0.1214
 3773W        W18904  15.673   1.674   0.104 -0.2638  0.0865  0.0829
 3774W        W18905  11.909  17.618  13.746  0.0590  0.2483  0.1100
 3775W        W18906  12.222  14.210   0.386 -0.0182 -0.0265 -0.2160
 3776W        W18907  15.995   8.097   2.135 -0.2857 -0.0354  0.0690
 3777W        W18908   8.561  13.517  15.206  0.3183 -0.1970 -0.2949
 3778W        W18909   5.610   8.391  12.562  0.0625  0.0714  0.1843
 3779W        W18910  11.828   0.176   1.695 -0.1563  0.1835 -0.0040
 3780W        W18911   4.777   4.909   5.550 -0.2200  0.0443  0.4487
 3781W        W18912   4.825  17.746   2.691 -0.1170 -0.1420 -0.1028
 3782W        W18913   9.195  16.475   2.914 -0.0430  0.0183 -0.0294
 3783W        W18914  12.184  12.146   0.668  0.1688 -0.0641 -0.3189
 3784W        W18915  16.800  17.741   5.578  0.2736 -0.1475 -0.0655
 3785W        W18916   6.154  11.344  15.517  0.0607 -0.1826  0.1556
 3786W        W18917   8.626   6.108   0.075  0.0519  0.0513  0.0065
 3787W        W18918   2.512  12.148  12.576 -0.0585 -0.0434 -0.1069
 3788W        W18919  16.132   0.051   3.200  0.2187  0.1781  0.1700
 3789W        W18920   9.727  12.818   0.565 -0.0261 -0.1946  0.1779
 3790W        W18921   8.437   0.143   0.472  0.0553  0.0859 -0.1165
 3791W        W18922  13.657  12.841  16.209  0.0034 -0.0358  0.1743
 3792W        W18923   5.751   3.701  12.323  0.0870  0.0110  0.1620
 3793W        W18924   8.841  17.222  10.230  0.0143  0.0674  0.2807
 3794W        W18925   7.151  17.002   4.022  0.1393 -0.0733 -0.0541
 3795W        W18926  17.748   0.224  12.589  0.0633 -0.2681 -0.1592
 3796W        W18927  16.632  16.700   0.636  0.3591  0.1689 -0.0228
 3797W        W18928  12.946  10.751  13.457 -0.0690 -0.0869 -0.1945
 3798W        W18929  16.089  18.067   1.022  0.2654 -0.0956 -0.1171
 3799W        W18930  11.279  18.047   1.078  0.1748 -0.1263 -0.1106
 3800W        W18931   1.444  12.807   3.800 -0.1978  0.1201 -0.0517
 3801W        W18932  13.479   7.522   0.767  0.2920  0.1854  0.3527
 3802W        W18933   8.682   3.698  16.065  0.0658  0.0013 -0.1087
 3803W        W18934   8.254  17.006  15.369 -0.1321  0.0304 -0.1635
 3804W        W18935   3.807   4.081  15.211  0.0966  0.1530 -0.0742
 3805W        W18936   4.166   0.692  11.056  0.1576  0.1683 -0.2326
 3806W        W18937   2.800   7.987   0.462  0.1154  0.2895 -0.2032
 3807W        W18938  14.178  12.821  10.725  0.1099 -0.0037 -0.0231
 3808W        W18939  18.007   7.699  14.135 -0.3070  0.4176  0.0386
 3809W        W18940   6.918   7.938   2.113  0.0612  0.1171  0.1060
 3810W        W18941  14.002  16.842   3.379 -0.1458  0.1422  0.1849
 3811W        W18942   3.327  10.841  14.943 -0.0080  0.0702 -0.0780
 3812W        W18943  17.718  11.912   2.199  0.0441 -0.0337 -0.1791
 3813W        W18944  12.502   7.661  14.722  0.1648 -0.0070  0.4393
 3814W        W18945  16.775   6.030   0.649 -0.1135  0.2595  0.1968
 3815W        W18946   0.364   4.239  15.172 -0.1357 -0.0367  0.0492
 3816W        W18947   8.750  16.220  14.549 -0.0153 -0.0973  0.3000
 3817W        W18948   7.747  15.569   3.755 -0.4477 -0.0564  0.2738
 3818W        W18949   7.994  14.722   4.322 -0.2309  0.0905 -0.0558
 3819W        W18950   4.196   1.953  12.344  0.2772 -0.1958 -0.0104
 3820W        W18951   7.517   7.662   0.804  0.3323  0.0152  0.2053
 3821W        W18952   6.708   4.971   2.638  0.4130 -0.2645  0.2382
 3822W        W18953   9.503   1.081  11.519  0.3431 -0.2167 -0.0368
 3823W        W18954   4.039   2.720   4.014 -0.1856  0.1814  0.0963
 3824W        W18955  10.331   8.189  14.758  0.3980 -0.0409 -0.0749
 3825W        W18956   0.310   6.623   0.058  0.0272 -0.1839 -0.0141
 3826W        W18957  10.802   0.401   3.063 -0.3626  0.1494 -0.1705
 3827W        W18958   8.934   6.855  14.606 -0.1211 -0.1615 -0.2188
 3828W        W18959   6.607  12.680  12.246 -0.2753  0.1322 -0.3338
 3829W        W18960  14.015   6.450   1.782  0.2160  0.1370  0.2887
 3830W        W18961   9.718   0.258  13.635 -0.0248 -0.0063 -0.0068
 3831W        W18962  17.333  13.436   4.198 -0.0263 -0.0099  0.1126
 3832W        W18963   2.897  14.324   4.784  0.0267  0.0518 -0.3094
 3833W        W18964   3.180   0.025   3.821  0.1164 -0.2096 -0.0063
 3834W        W18965   5.506   8.642   3.020 -0.0726 -0.0716  0.1353
 3835W        W18966   6.069  10.455  12.361  0.0017  0.1842  0.2462
 3836W        W18967  17.857   0.188  12.108  0.0255 -0.0165 -0.0319
 3837W        W18968  11.120   5.521   3.650  0.1432 -0.2637 -0.1219
 3838W        W18969  10.561   9.324   5.170  0.2692 -0.3160 -0.1325
 3839W        W18970  10.528   5.539  15.360 -0.2219  0.0791 -0.1664
 3840W        W18971  15.711   4.732  14.565  0.0157 -0.0898 -0.0354
 3841W        W18972  12.537   7.080  10.450 -0.3545 -0.0101 -0.0181
 3842W        W18973   9.941  17.357   4.421 -0.0013 -0.2048  0.0549
 3843W        W18974  13.100   0.153  15.933 -0.0625 -0.0249  0.2717
 3844W        W18975   0.220  13.462  14.431  0.0352 -0.2715  0.1300
 3845W        W18976   5.499   0.026  12.471 -0.2424 -0.1385 -0.1943
 3846W        W18977   1.903  15.892   2.859 -0.0463  0.2344 -0.0560
 3847W        W18978   7.400  11.058  14.235 -0.0514 -0.2679  0.1189
 3848W        W18979   5.944  11.590  11.247  0.0345 -0.1045 -0.0386
 3849W        W18980   1.303   6.935   3.109 -0.2139 -0.1158  0.1805
 3850W        W18981   3.156   6.134   3.332  0.1372 -0.0176  0.3830
 3851W        W18982   2.049   1.017   1.108 -0.1124 -0.1748 -0.0047
 3852W        W18983   7.175   7.515   4.268 -0.1566 -0.1520 -0.1282
 3853W        W18984   2.900  15.032  15.060 -0.0238  0.1512 -0.0846
 3854W        W18985   4.178   7.404   1.379 -0.0683 -0.1434  0.1137
 3855W        W18986   1.005  15.895  10.584 -0.0849 -0.1793 -0.4319
 3856W        W18987   0.010   8.223   2.237 -0.2802 -0.0362  0.1136
 3857W        W18988  11.403  15.457  15.424 -0.1845  0.4478  0.0392
 3858W        W18989   2.717   4.334  15.246  0.1619  0.0304  0.2519
 3859W        W18990  17.170  14.761   3.794  0.1717 -0.0227  0.2123
 3860W        W18991   7.693   7.528  15.737  0.0354 -0.1192 -0.0076
 3861W        W18992  12.711  16.504   1.290  0.4805 -0.1612  0.0501
 3862W        W18993   3.574  11.985  16.220  0.1122 -0.1182  0.1350
 3863W        W18994  10.719  17.326   4.326 -0.1185 -0.1591  0.1466
 3864W        W18995   2.319   1.997  13.962  0.3447 -0.0708 -0.2925
 3865W        W18996  13.016  15.791  15.525 -0.2837  0.1466 -0.2157
 3866W        W18997   1.473   9.973   2.649  0.0765  0.2542  0.2322
 3867W        W18998   9.968  11.249  16.001 -0.0245  0.1404  0.2540
 3868W        W18999   7.028   7.522   0.587  0.2005  0.0372 -0.2838
 3869W        W19000   6.752  15.320   5.743  0.2491  0.1870  0.0657
 3870W        W19001  14.369  10.413  13.681 -0.3761  0.0544 -0.0336
 3871W        W19002   2.227   9.816   1.608  0.0758  0.2363  0.0592
 3872W        W19003  18.096  17.284   5.926 -0.1771  0.0698 -0.2218
 3873W        W19004  11.258  17.111   2.423 -0.1145 -0.4174 -0.2752
 3874W        W19005   0.945   2.835   4.801  0.3517  0.0864 -0.2001
 3875W        W19006   8.029   6.126  15.006 -0.1210 -0.0729 -0.0815
 3876W        W19007   1.426   1.028   1.123  0.1774 -0.3546 -0.2022
 3877W        W19008   0.397  10.874   4.859  0.2972  0.2516  0.0202
 3878W        W19009   3.153   4.232   5.284  0.0619  0.0227  0.0530
 3879W        W19010   1.951  11.255   2.159 -0.2708 -0.2527 -0.1575
 3880W        W19011  11.398  15.108  14.993  0.3081 -0.3832 -0.1966
 3881W        W19012   9.685   5.051  15.468 -0.1056  0.1682  0.2129
 3882W        W19013  12.389  11.684  12.592  0.0684 -0.0559  0.1881
 3883W        W19014  15.266   3.451  15.427 -0.1822  0.1914  0.1264
 3884W        W19015  17.426  17.025  11.581  0.1391 -0.1145  0.0323
 3885W        W19016  16.062   8.715  12.993  0.0350 -0.3052  0.2998
 3886W        W19017   5.862  16.837  15.334  0.1263 -0.0742 -0.0725
 3887W        W19018   2.696   5.730   6.091 -0.0492  0.0872 -0.0792
 3888W        W19019  14.400   2.901  10.568 -0.0196  0.1581  0.2293
 3889W        W19020  12.367  12.436   1.039  0.0192 -0.2713  0.2570
 3890W        W19021  13.283  14.615  14.957 -0.1582  0.1891  0.2188
 3891W        W19022   4.553   6.016   3.294 -0.1747 -0.1865 -0.4368
 3892W        W19023  15.709  17.335   5.044  0.1861  0.0550 -0.4486
 3893W        W19024   1.491   1.833   3.237  0.1825 -0.2481  0.1884
 3894W        W19025  16.484  11.131  15.812  0.0440 -0.1225  0.1130
 3895W        W19026   8.505   3.314   1.831 -0.0999 -0.2110 -0.1892
 3896W        W19027   9.465   9.875  16.132  0.0432  0.0291 -0.2323
 3897W        W19028  14.282  15.518  13.241 -0.1097  0.2612 -0.1197
 3898W        W19029   1.733  10.706  10.235 -0.0039 -0.1597  0.2418
 3899W        W19030  16.824  13.467   0.029  0.0879 -0.1600 -0.1334
 3900W        W19031  15.554   3.434  11.662 -0.0947 -0.1305  0.0983
 3901W        W19032   7.183  11.529   3.336  0.3152  0.1588  0.2330
 3902W        W19033  14.806   6.320  14.790 -0.4193  0.2695 -0.2060
 3903W        W19034  15.691   2.595   2.611 -0.0415 -0.0729  0.2832
 3904W        W19035   3.747  12.826  15.311 -0.3992  0.0053 -0.0084
 3905W        W19036   3.545  11.831   3.446  0.1246 -0.0741 -0.1633
 3906W        W19037   4.039   0.103  15.806  0.1774  0.0796 -0.0003
 3907W        W19038  17.470  16.278   5.045 -0.0743  0.1454 -0.0613
 3908W        W19039   7.569   0.525   5.117 -0.2916  0.1373  0.1983
 3909W        W19040   5.163  15.283  15.451 -0.0498 -0.1256  0.1253
 3910W        W19041  11.659  11.299  13.149  0.3219 -0.0650 -0.0921
 3911W        W19042  12.927  17.754  13.351 -0.2584  0.2606  0.0134
 3912W        W19043   0.313  16.378  14.910 -0.3465  0.3798 -0.1828
 3913W        W19044   5.640  10.040   3.821  0.1656 -0.2140 -0.0406
 3914W        W19045   8.270  15.701  15.983 -0.1701  0.1916  0.2847
 3915W        W19046   7.880   8.890   2.231 -0.0392  0.0488  0.0800
 3916W        W19047  11.925   5.078  14.005 -0.1530 -0.2875 -0.0161
 3917W        W19048  15.709  16.842   5.648 -0.0578 -0.2319  0.0821
 3918W        W19049  16.716  17.348  10.881 -0.0201 -0.1932  0.4120
 3919W        W19050  18.085  13.627   0.785 -0.1894 -0.2172 -0.2875
 3920W        W19051   3.732   9.869   3.660  0.1948  0.0364 -0.3527
 3921W        W19052  16.205   8.793   2.380 -0.0592  0.3469  0.0723
 3922W        W19053   3.554   1.904   3.544 -0.1564 -0.0016  0.1481
 3923W        W19054   2.386   6.351  11.336  0.0881  0.0984  0.1272
 3924W        W19055   8.500  15.869   0.135  0.2293 -0.1030  0.1066
 3925W        W19056   9.656   6.166  15.269 -0.1998  0.0724  0.0479
 3926W        W19057   8.444  11.893  14.933  0.1270 -0.2697 -0.1514
 3927W        W19058   6.320   5.393  11.154  0.0351 -0.2022 -0.2673
 3928W        W19059   3.476   7.853  15.539  0.0965  0.1235 -0.1925
 3929W        W19060  13.693  11.656  14.693  0.2763 -0.2471 -0.2680
 3930W        W19061   9.197  10.151   4.786  0.0685  0.4523 -0.2974
 3931W        W19062   9.916  14.741   5.775 -0.2335 -0.0621  0.0735
 3932W        W19063   2.223   9.559  15.371 -0.5111 -0.1853 -0.2583
 3933W        W19064  16.951  10.790   1.257  0.0104  0.0033  0.2448
 3934W        W19065   9.589  10.640   4.193  0.1579  0.0526  0.0282
 3935W        W19066  11.786  14.743  13.380 -0.2198 -0.1506  0.1952
 3936W        W19067   9.330   1.797   2.490 -0.0681  0.0155 -0.1977
 3937W        W19068  10.458   8.668   0.895 -0.1106 -0.1144  0.3758
 3938W        W19069  14.048  14.792  12.898 -0.3389 -0.1967  0.0709
 3939W        W19070  16.479   9.040   5.221  0.1109 -0.1088  0.0875
 3940W        W19071  10.356  12.638  14.176  0.2792  0.1895 -0.1483
 3941W        W19072  14.183  17.646  11.019  0.1057 -0.0635  0.1792
 3942W        W19073   9.640   2.384   4.946 -0.0659 -0.2291 -0.1151
 3943W        W19074  12.359   9.492  14.020 -0.0894 -0.1962 -0.3644
 3944W        W19075  13.241   3.094  15.015 -0.1845  0.0730 -0.0922
 3945W        W19076   9.477   4.699   0.383 -0.1104  0.0728  0.2045
 3946W        W19077  10.421  11.539   0.757  0.2009 -0.0370 -0.0099
 3947W        W19078   4.992   0.544   2.154  0.1763 -0.1034  0.1647
 3948W        W19079  16.765  18.022  13.422 -0.0463 -0.1661  0.0023
 3949W        W19080   3.851   6.156   2.475 -0.0639 -0.0021 -0.2691
 3950W        W19081   4.370  10.098   5.310  0.1701  0.0605  0.2261
 3951W        W19082   1.810   1.930   0.858  0.2118 -0.2562  0.2580
 3952W        W19083  16.777  17.302   4.660  0.2635  0.1694 -0.1043
 3953W        W19084   5.372   1.535   1.542 -0.3927 -0.2887 -0.0418
 3954W        W19085   8.129   4.717   1.564  0.1428 -0.1467  0.0718
 3955W        W19086  17.500  16.241   3.816 -0.1682 -0.2029  0.3178
 3956W        W19087   9.615  14.526   9.973  0.1484  0.0964  0.0224
 3957W        W19088  13.847  17.940   2.586  0.0332 -0.3238 -0.2116
 3958W        W19089  13.924   1.512   3.559 -0.0891 -0.2075 -0.3343
 3959W        W19090   8.726   0.762   2.807  0.2741 -0.0525  0.1027
 3960W        W19091   3.581   7.750   3.939 -0.2768 -0.0234 -0.2064
 3961W        W19092  11.666   2.889  10.972  0.2053 -0.2985  0.3404
 3962W        W19093   6.536   4.448   1.776 -0.1379 -0.0295  0.3440
 3963W        W19094  11.408   4.594  12.042 -0.4467  0.1741  0.1453
 3964W        W19095   5.079   4.206   3.493  0.3322 -0.0104 -0.1996
 3965W        W19096   2.370   9.704   0.326  0.2206 -0.1442 -0.2672
 3966W        W19097  17.226   3.325   3.942 -0.0291 -0.0163  0.2625
 3967W        W19098  17.771  12.667   3.313  0.1407 -0.0498 -0.0514
 3968W        W19099  13.714  10.718   2.664 -0.0716  0.0728  0.2450
 3969W        W19100   0.375  14.622   3.818 -0.1381 -0.0723 -0.0211
 3970W        W19101   5.287  13.210   2.288 -0.1491  0.3136  0.0543
 3971W        W19102  14.844   2.471  15.878  0.1175  0.0756 -0.0705
 3972W        W19103  15.795   8.491   0.163 -0.3458  0.1898 -0.2628
 3973W        W19104  15.385  12.369   9.814  0.0506 -0.1629 -0.0278
 3974W        W19105  16.154   8.710   2.850  0.2336  0.0734  0.0128
 3975W        W19106   6.604   6.304   4.220  0.1602  0.0062  0.0941
 3976W        W19107  13.669   9.996  16.001 -0.1097 -0.3608  0.0392
 3977W        W19108   7.137   0.925  11.571  0.2320  0.0602  0.1632
 3978W        W19109  12.221   6.254   1.675  0.2808 -0.2864 -0.3315
 3979W        W19110  11.346  17.069   0.153 -0.0509 -0.1989  0.2143
 3980W        W19111   6.932   7.914   5.050 -0.0864 -0.0068  0.0234
 3981W        W19112   7.153  11.845  11.561 -0.3043 -0.1858 -0.0012
 3982W        W19113   0.416  11.881  11.759  0.1308  0.1217  0.2368
 3983W        W19114  11.186   4.058   0.599 -0.0211 -0.2824 -0.1178
 3984W        W19115  16.440  15.043  13.689 -0.3600 -0.0752  0.0105
 3985W        W19116  12.469   0.269  13.008 -0.2245 -0.1176 -0.1911
 3986W        W19117   9.439   6.909   0.334  0.3016  0.0304 -0.1869
 3987W        W19118  17.469   8.684   5.037  0.3009 -0.0680  0.3698
 3988W        W19119   9.027   4.723   5.112 -0.2806 -0.1243  0.1601
 3989W        W19120   8.214  10.600  14.165  0.3999  0.1335 -0.0587
 3990W        W19121   1.892   4.171  14.150 -0.0953 -0.0151  0.2469
 3991W        W19122   2.654  11.752   1.893  0.1191  0.0160  0.3221
 3992W        W19123  14.180   7.051   0.310 -0.1689 -0.3213  0.0427
 3993W        W19124   3.576   3.007  12.333 -0.3187  0.1195 -0.2285
 3994W        W19125  17.166   7.753   1.853 -0.1419 -0.0392  0.0286
 3995W        W19126  11.387   3.591   1.700 -0.2039  0.0341  0.2040
 3996W        W19127   4.663  15.879  11.434  0.1769 -0.0980 -0.0726
 3997W        W19128   0.886   4.431  13.556 -0.0994 -0.1634  0.0492
 3998W        W19129   1.030   3.018  14.796 -0.2511  0.1910  0.0526
 3999W        W19130   1.563   8.328   5.028  0.3072 -0.0261  0.0058
 4000W        W19131   4.078  17.281  11.108 -0.1062 -0.2507 -0.1212
 4001W        W19132  14.885   9.053   3.757 -0.0109 -0.3188 -0.1131
 4002W        W19133   2.608   3.277   2.361  0.3584 -0.0626  0.0849
 4003W        W19134   4.659  17.946   1.085  0.1646  0.0317 -0.0516
 4004W        W19135   7.495  15.961  11.582  0.3904 -0.1111 -0.2700
 4005W        W19136  12.977  17.347   0.084  0.1037  0.0780 -0.1216
 4006W        W19137   1.659  15.436   1.492  0.0753  0.1716  0.1483
 4007W        W19138  11.936   3.293  10.870  0.5342  0.3584  0.0846
 4008W        W19139   5.436  15.810   1.617 -0.1036  0.0246 -0.1054
 4009W        W19140   8.989  11.371  14.505  0.0521  0.0389 -0.1068
 4010W        W19141  15.640  10.334  12.408  0.1514 -0.0032 -0.0431
 4011W        W19142   5.955  15.067   1.523 -0.2065  0.3661 -0.2020
 4012W        W19143  17.736   7.553   3.368 -0.2778 -0.2334  0.0912
 4013W        W19144   7.897  13.485  15.872 -0.0289 -0.1640 -0.0005
 4014W        W19145  11.738  16.953  14.501  0.2963  0.0027  0.0572
 4015W        W19146   9.362   3.923   3.930 -0.0863 -0.1099 -0.1365
 4016W        W19147   2.515   1.495   4.720 -0.1130  0.1170  0.2356
 4017W        W19148   3.560   1.136  15.416 -0.1125  0.2018  0.0449
 4018W        W19149  14.292  12.154  14.373  0.0726  0.1468  0.0049
 4019W        W19150  13.982   6.691   3.805  0.1625  0.1072 -0.1739
 4020W        W19151   1.966   7.580   6.141  0.2178 -0.0124 -0.1402
 4021W        W19152   6.464   6.640  12.561  0.2436 -0.1574 -0.1353
 4022W        W19153  11.704  17.862  12.746  0.1193  0.1148  0.0318
 4023W        W19154  11.801  12.906  13.140  0.1085 -0.1740 -0.0167
 4024W        W19155  12.845   6.632   2.798 -0.1022  0.0260  0.0157
 4025W        W19156   1.540  10.453  11.640 -0.0549 -0.1230 -0.0405
 4026W        W19157   0.868   4.671   4.149 -0.0566 -0.0934 -0.0428
 4027W        W19158  15.913   6.977   3.954  0.0457 -0.1648  0.1667
 4028W        W19159   3.573   7.264  10.955 -0.2591  0.0884 -0.3283
 4029W        W19160   2.530  16.249   5.495  0.2629 -0.0370  0.0115
 4030W        W19161   3.861  11.878   1.873 -0.1158  0.2439 -0.2395
 4031W        W19162  12.659   0.980  12.604  0.3088 -0.0651  0.4308
 4032W        W19163   2.238   4.308  11.178 -0.1468  0.0173  0.0967
 4033W        W19164   9.051  15.329   1.297 -0.3999 -0.2782 -0.2491
 4034W        W19165   4.746   3.776   3.470 -0.0295  0.1092  0.2434
 4035W        W19166   8.678  14.827   4.401 -0.1217  0.0689  0.2817
 4036W        W19167  11.386   7.181   4.014  0.0603 -0.0395  0.0842
 4037W        W19168   9.444   4.373   9.950  0.0279 -0.1504  0.5586
 4038W        W19169   6.888   9.219  15.990 -0.2493  0.1502  0.0994
 4039W        W19170  11.676   4.100   3.417 -0.1754 -0.1452 -0.2376
 4040W        W19171   6.423  10.892   5.277 -0.0387  0.2676  0.1670
 4041W        W19172  14.647   4.194   2.268  0.0687 -0.1852 -0.1043
 4042W        W19173  10.209  17.143  12.662  0.0790  0.2480 -0.0858
 4043W        W19174   7.103   6.086   2.402  0.2985 -0.2780 -0.0561
 4044W        W19175   4.909  13.787   0.634 -0.1179  0.0281  0.0199
 4045W        W19176  14.317   2.176   6.188  0.3334 -0.1271  0.2160
 4046W        W19177  15.120   1.100  12.858 -0.0706 -0.1482 -0.1692
 4047W        W19178   1.512   3.003  14.842 -0.0445  0.0459  0.1771
 4048W        W19179   9.680   4.145   1.844 -0.2050  0.0278  0.3330
 4049W        W19180   7.324   3.836  14.497 -0.0940  0.2402  0.0452
 4050W        W19181   6.464  12.439   3.099  0.0591  0.1810 -0.1466
 4051W        W19182   9.569  16.105   3.251  0.2889 -0.1817 -0.0741
 4052W        W19183   9.887  17.594   2.407  0.0744  0.1383 -0.0892
 4053W        W19184  12.209  17.804  10.063 -0.0952  0.0630  0.0789
 4054W        W19185   3.739   6.953  13.240 -0.0569 -0.0015 -0.0582
 4055W        W19186   8.003   9.652   2.686  0.0471 -0.4397  0.0438
 4056W        W19187   9.640   7.619  12.585  0.1252 -0.0518 -0.1022
 4057W        W19188  13.305   8.919   0.371 -0.1590 -0.1078  0.0278
 4058W        W19189   1.057  14.692  13.011 -0.2498  0.1393  0.1322
 4059W        W19190   9.115   2.988  14.447  0.2059 -0.1189 -0.1644
 4060W        W19191   4.056   5.444  12.223  0.2936  0.0336  0.0360
 4061W        W19192  14.209  13.805  11.567 -0.1520  0.2173 -0.0179
 4062W        W19193   0.248   1.086   1.964  0.2628  0.3159 -0.0573
 4063W        W19194  17.956  10.684  11.412  0.0128 -0.0812 -0.1274
 4064W        W19195   8.483  12.893   2.808  0.0534  0.1268  0.0417
 4065W        W19196   6.976   0.404  13.066  0.1008 -0.0405  0.0899
 4066W        W19197   3.255   7.949   2.104  0.1891  0.2167  0.0780
 4067W        W19198   3.307  17.460  14.309  0.1328 -0.4231 -0.0599
 4068W        W19199   9.634  10.429  16.046  0.0618  0.0597  0.1080
 4069W        W19200   6.213  12.902   2.278 -0.2577  0.1687 -0.0461
 4070W        W19201   1.254  14.040   0.421 -0.1965 -0.1052  0.3662
 4071W        W19202  16.971   7.904   1.023 -0.4105  0.2684  0.1908
 4072W        W19203   4.329   8.515   1.006 -0.1872 -0.0376 -0.2562
 4073W        W19204   0.644   2.802  15.070 -0.0412  0.1811 -0.0091
 4074W        W19205   0.221   5.186   2.388 -0.1914  0.0416 -0.1632
 4075W        W19206  15.838  13.203  14.081  0.2102 -0.2013 -0.0608
 4076W        W19207   0.125   8.643  14.549 -0.0134  0.0207  0.0750
 4077W        W19208   7.785   5.587  12.401  0.2792  0.0254  0.1719
 4078W        W19209   9.058   8.801  10.182 -0.1129  0.2796 -0.1335
 4079W        W19210   7.280   9.598  13.845 -0.0796  0.2758  0.0723
 4080W        W19211  10.749   3.499  12.168  0.0764 -0.1849  0.1012
 4081W        W19212  10.506  17.045   2.505  0.0068  0.2156  0.1599
 4082W        W19213  15.071   3.264  13.429 -0.0945 -0.0469  0.1497
 4083W        W19214  10.562  15.978   6.130  0.1080 -0.2104 -0.0108
 4084W        W19215   3.765   4.132   2.898  0.0024 -0.1279  0.1767
 4085W        W19216  11.326   9.993   5.256  0.2701 -0.1438  0.0845
 4086W        W19217  15.643   6.809   4.410  0.1719 -0.0199  0.2426
 4087W        W19218  17.459  15.736   4.156 -0.0634 -0.3164  0.1866
 4088W        W19219  12.122  10.758   3.921 -0.0479  0.3553  0.1928
 4089W        W19220  12.772  13.284   0.216  0.1718  0.1292 -0.1857
 4090W        W19221  17.372   4.212   3.905  0.1195  0.1210 -0.2816
 4091W        W19222   9.764   7.098   0.968  0.2283 -0.1539 -0.0321
 4092W        W19223   4.934   6.995   4.331  0.0648 -0.1691 -0.4166
 4093W        W19224   5.148  12.186   5.500 -0.0316  0.0498  0.2694
 4094W        W19225   2.455  10.272   2.282 -0.4865  0.1257  0.1211
 4095W        W19226  16.110   9.586   0.813 -0.2110  0.0557  0.1288
 4096W        W19227  14.974  14.072  14.771  0.1648 -0.0611  0.0535
 4097W        W19228   4.662   9.898  11.791  0.1741  0.1722  0.0805
 4098W        W19229  11.733  14.145  14.327 -0.2585  0.2040 -0.0370
 4099W        W19230   1.166  16.205  15.387  0.1085  0.1982 -0.1789
 4100W        W19231   9.454   3.663   4.483 -0.1095 -0.3214 -0.0567
 4101W        W19232   4.500   6.753   4.378 -0.0590 -0.2501 -0.1065
 4102W        W19233  17.174  16.528   4.709  0.1060 -0.0100  0.0809
 4103W        W19234   9.104  11.422   1.113 -0.2510  0.0362  0.3687
 4104W        W19235   0.335  14.408   0.103 -0.0732 -0.0340 -0.0592
 4105W        W19236   1.370  14.607   4.492 -0.3315  0.4819  0.0829
 4106W        W19237  12.769  15.439  11.497  0.3180  0.1546 -0.2729
 4107W        W19238  13.221  16.908   4.491 -0.1868  0.1651  0.1967
 4108W        W19239   3.894   4.919   1.364  0.2962  0.0780 -0.1513
 4109W        W19240   8.527   4.308   5.172 -0.0302 -0.1110 -0.3057
 4110W        W19241  10.035  14.286   1.555  0.2295  0.1868  0.0062
 4111W        W19242  12.666   0.205  15.612  0.2292  0.0782 -0.3367
 4112W        W19243  10.368  10.730   2.671 -0.1021 -0.1776 -0.0518
 4113W        W19244   3.405   5.526   5.534 -0.0232  0.4560  0.0952
 4114W        W19245   9.724   2.834   5.113  0.1034  0.1169  0.1630
 4115W        W19246   7.221  13.876   2.954  0.1292  0.2847  0.1466
 4116W        W19247  13.310   9.549   1.501  0.2620 -0.1930  0.0034
 4117W        W19248   8.126   7.956   2.724  0.0084  0.2857 -0.0671
 4118W        W19249  10.011  17.273   1.039 -0.3083 -0.1595  0.2416
 4119W        W19250   7.858  15.131   2.712  0.1748 -0.1107  0.3165
 4120W        W19251   0.675  17.507   1.499 -0.3129  0.0484 -0.3244
 4121W        W19252   7.851  13.962  14.035 -0.1658  0.2923 -0.1615
 4122W        W19253   1.764   6.736   3.869 -0.2241  0.2998  0.2275
 4123W        W19254   4.644  11.598   5.353  0.2202  0.0860  0.1120
 4124W        W19255  11.971  11.921   5.171 -0.2495 -0.0987 -0.0382
 4125W        W19256  14.516  12.205   1.219 -0.2498  0.0024 -0.2114
 4126W        W19257  15.442   4.458   2.723 -0.1370 -0.3127  0.0781
 4127W        W19258   1.163  11.470  11.593 -0.1182 -0.2242 -0.3319
 4128W        W19259  13.219  11.470  14.853 -0.0369 -0.2038  0.1224
 4129W        W19260   1.770   3.111   3.232 -0.1712  0.1346  0.3115
 4130W        W19261  16.767   5.610  11.636 -0.0588  0.0767 -0.0327
 4131W        W19262   7.191   2.500  15.271 -0.1801 -0.0098 -0.1964
 4132W        W19263  10.547   7.129   1.650  0.2287 -0.3130 -0.1046
 4133W        W19264  12.367  14.064   4.486  0.0307 -0.0212  0.2376
 4134W        W19265   7.024  13.281   4.646  0.3156  0.0876 -0.2287
 4135W        W19266   6.073  12.214  14.017  0.2093 -0.0334 -0.0713
 4136W        W19267   3.019   0.984  15.286 -0.1409  0.2471 -0.0333
 4137W        W19268   9.839   5.888   4.512  0.0473  0.1918  0.1273
 4138W        W19269  16.554   1.676   4.203  0.0982  0.0357  0.2980
 4139W        W19270   3.985  14.512   1.581  0.0665  0.0975 -0.1961
 4140W        W19271  15.945  14.823   3.673 -0.0136  0.2437 -0.2816
 4141W        W19272  13.314  16.461   1.634 -0.1287 -0.4260  0.1203
 4142W        W19273  12.562   6.595   4.266 -0.0678  0.0497  0.2471
 4143W        W19274   4.966  12.305   0.503  0.0287 -0.1895 -0.1139
 4144W        W19275   4.930   2.804   3.523  0.0498  0.2221  0.1898
 4145W        W19276   3.845   3.209   0.264  0.2966 -0.0612 -0.3285
 4146W        W19277  16.040   9.648  15.219  0.2722 -0.2498  0.1713
 4147W        W19278  11.594  12.713   5.453  0.0834  0.1940  0.0606
 4148W        W19279   0.135   6.879  15.109  0.0105 -0.1852  0.3174
 4149W        W19280   6.448  15.083   1.709  0.0210  0.0560  0.3680
 4150W        W19281  14.393   7.163  14.517 -0.0462 -0.1817  0.0735
 4151W        W19282   2.265   9.024  15.464  0.2771 -0.1841 -0.2920
 4152W        W19283   5.670   9.011  14.796  0.0116 -0.1472 -0.1707
 4153W        W19284   6.276  11.609   4.747  0.1539  0.3608  0.3369
 4154W        W19285   1.077   6.800  13.113  0.2178 -0.3144  0.1131
 4155W        W19286   3.345  15.675  13.177 -0.0351 -0.0607  0.0140
 4156W        W19287   8.582  10.936   4.390 -0.0843 -0.0535 -0.0899
 4157W        W19288   8.730   4.452   2.406  0.0028 -0.2237 -0.2299
 4158W        W19289  11.803  13.054   3.601  0.0272  0.1317 -0.1211
 4159W        W19290   0.645   5.121   5.405  0.0329  0.0607 -0.0466
 4160W        W19291   3.624   7.184  12.796 -0.0594 -0.1612 -0.0612
 4161W        W19292   3.604   2.036  10.931 -0.2585  0.0774  0.0639
 4162W        W19293   4.644  11.046   5.288 -0.0268  0.1958  0.0607
 4163W        W19294  10.468   7.662   1.712  0.2261 -0.1295 -0.1774
 4164W        W19295   7.886   7.232   2.242 -0.2434  0.0071 -0.1479
 4165W        W19296   9.213   6.944  13.109  0.1331 -0.0278  0.1540
 4166W        W19297  10.787   5.088   0.687 -0.0323  0.2128  0.0244
 4167W        W19298   7.985   3.521   5.400 -0.0872 -0.1796 -0.1616
 4168W        W19299  17.146  12.047   3.065  0.0946  0.0344 -0.0273
 4169W        W19300  13.284   4.340   2.228  0.1808  0.2281 -0.3380
 4170W        W19301   3.679  13.224  13.139 -0.2514  0.0080 -0.1240
 4171W        W19302   2.563   3.182  15.999  0.1924 -0.1420  0.2577
 4172W        W19303   7.241  11.663  13.407 -0.0446  0.2046  0.0606
 4173W        W19304  16.610   0.883   0.440  0.4216 -0.0981 -0.2381
 4174W        W19305  16.093   0.826  13.131  0.3025 -0.2347 -0.0510
 4175W        W19306   0.534  16.362  11.693  0.0308  0.1365 -0.1999
 4176W        W19307   4.434   6.122  14.362 -0.0563  0.0258  0.0110
 4177W        W19308   1.079  16.093  11.719 -0.1849 -0.1830  0.0347
 4178W        W19309   8.696   9.900  12.769 -0.1524 -0.0228  0.3420
 4179W        W19310  15.738   2.231  15.457  0.1908 -0.1096  0.4729
 4180W        W19311   6.846  13.642   5.546 -0.1078 -0.2460 -0.0774
 4181W        W19312  16.054  12.870   2.261  0.0178  0.2966  0.1226
 4182W        W19313   4.681  15.519  12.651 -0.0800 -0.1306  0.0448
 4183W        W19314  13.606   3.887  15.054  0.1925  0.2018 -0.1445
 4184W        W19315   6.473  15.556  11.115 -0.3453 -0.1783 -0.2409
 4185W        W19316   2.214   7.987   5.835  0.0165  0.0153  0.0637
 4186W        W19317   9.434   7.242   5.780 -0.0097 -0.0007  0.0018
 4187W        W19318   5.554  12.006  14.150 -0.0324 -0.1860 -0.1141
 4188W        W19319   1.334  14.577  14.212 -0.1371 -0.0634  0.2734
 4189W        W19320   5.411  14.647   1.157  0.2088 -0.3507  0.3729
 4190W        W19321   6.998   0.955   6.043 -0.0573  0.2428 -0.0647
 4191W        W19322   5.794   8.255  14.020 -0.2532 -0.2712 -0.0210
 4192W        W19323  13.539  12.482   2.415 -0.2536  0.0121  0.0585
 4193W        W19324  10.456   4.521   1.287  0.0481  0.3847  0.0696
 4194W        W19325   9.653  13.926  11.511  0.1918  0.0277  0.0349
 4195W        W19326   7.150   3.458  14.161 -0.3264  0.1171 -0.0551
 4196W        W19327  17.455  16.627  13.494 -0.0790 -0.0279  0.2221
 4197W        W19328   4.832  10.521   5.009 -0.1088  0.0044 -0.0072
 4198W        W19329   6.954   8.408   1.312  0.1404 -0.0050 -0.2498
 4199W        W19330   5.474  13.676   2.013  0.4016 -0.0212 -0.0945
 4200W        W19331  14.551   1.616   1.610  0.1235  0.0689  0.0489
 4201W        W19332   3.672   4.919  15.479 -0.2419 -0.0430 -0.0403
 4202W        W19333  17.112   6.532  12.265 -0.2764 -0.0279  0.0377
 4203W        W19334   9.066   1.339   5.686  0.1072  0.0706  0.3022
 4204W        W19335   1.872  11.454  14.720 -0.3443  0.3171 -0.1618
 4205W        W19336   8.994   2.815   3.907  0.0729 -0.0074 -0.2696
 4206W        W19337   1.474   7.331   5.020  0.0520  0.0456 -0.1582
 4207W        W19338   3.080  11.213  15.690  0.0358 -0.1575  0.1362
 4208W        W19339  16.528   5.160  10.765 -0.0989  0.1634  0.0286
 4209W        W19340   7.078  13.818   3.501  0.3079  0.1339  0.2014
 4210W        W19341  16.701  11.338   0.421 -0.1165 -0.1215  0.1253
 4211W        W19342   7.446   8.398   4.301 -0.2649 -0.1618 -0.0368
 4212W        W19343  10.172   7.446   2.666 -0.2720 -0.3179 -0.1259
 4213W        W19344  13.194  14.758  12.547 -0.0407 -0.1943 -0.1136
 4214W        W19345  12.399   4.429  12.646  0.1026 -0.1383  0.0197
 4215W        W19346  16.076   9.040   4.709 -0.0728  0.0237  0.0043
 4216W        W19347  12.035   0.800   0.482 -0.2593 -0.0982 -0.1303
 4217W        W19348   7.511  15.443  15.569 -0.0012 -0.2252 -0.0496
 4218W        W19349  18.016  15.850  14.418 -0.2503  0.0296 -0.0944
 4219W        W19350  15.257  16.083  10.163 -0.0498  0.1639 -0.0333
 4220W        W19351  10.649  15.544   0.613  0.1575  0.0249  0.0122
 4221W        W19352  14.855   6.401   0.672 -0.0902  0.1371  0.3442
 4222W        W19353   0.518   4.629  13.919  0.3603  0.1419 -0.1086
 4223W        W19354  17.259   2.637  12.103  0.1531 -0.2326 -0.1874
 4224W        W19355   8.017   6.387  11.628 -0.1343  0.2076 -0.1599
 4225W        W19356   3.841   2.341  15.064 -0.1546  0.0887  0.1490
 4226W        W19357   9.978   4.589   1.636 -0.2895 -0.0925 -0.2903
 4227W        W19358   6.275   7.956   4.264 -0.1803  0.0741 -0.0828
 4228W        W19359   7.974  15.659   1.676  0.1052 -0.1551 -0.2997
 4229W        W19360  14.581  16.297  12.943 -0.0008 -0.1431  0.2694
 4230W        W19361   5.774  15.070   3.356  0.1093 -0.0499 -0.2581
 4231W        W19362   4.553  10.744   3.258 -0.2198  0.0232  0.0779
 4232W        W19363   1.404  17.083   3.248  0.0705  0.1184 -0.1063
 4233W        W19364  17.342   7.527  11.786  0.0546 -0.0672  0.0354
 4234W        W19365  16.000  13.566   4.991 -0.1023  0.0880  0.1981
 4235W        W19366  12.633  15.016   5.277 -0.2080 -0.0453  0.1874
 4236W        W19367  10.272   3.328   3.908  0.1464 -0.1362  0.0867
 4237W        W19368   9.761   0.418   1.788  0.2533  0.0984 -0.3747
 4238W        W19369   5.455   1.839   0.586  0.0473 -0.0705  0.0151
 4239W        W19370  12.752  17.512  15.342  0.1450  0.0101 -0.1799
 4240W        W19371   4.687   1.447   2.083  0.1181 -0.0553  0.0177
 4241W        W19372  16.061   9.325  14.388  0.1238  0.3050 -0.0427
 4242W        W19373   4.719  13.957   4.342  0.0614  0.0445 -0.0797
 4243W        W19374  11.088  16.768   1.682  0.3794 -0.1289  0.1427
 4244W        W19375  13.017  10.295   5.607  0.1310  0.0419  0.1967
 4245W        W19376  11.561  12.764   1.909 -0.0200 -0.0061  0.1396
 4246W        W19377   3.729   9.861  15.136  0.1824  0.0742 -0.1801
 4247W        W19378   9.001   4.125  15.275  0.0364 -0.2774  0.0848
 4248W        W19379  10.253   7.173  12.084  0.0406  0.5146  0.0014
 4249W        W19380   5.932   4.883   5.758 -0.3851  0.1762 -0.0587
 4250W        W19381   1.878   7.181   4.029  0.0975 -0.2484 -0.2553
 4251W        W19382   5.649   9.164   3.837  0.0299 -0.0131 -0.2396
 4252W        W19383  11.430   0.277  16.103 -0.1558  0.4385  0.0470
 4253W        W19384  15.899   4.774  13.168  0.2321 -0.1100 -0.1047
 4254W        W19385  11.385   5.797  15.697  0.1662  0.3973 -0.2805
 4255W        W19386  10.310   3.207   0.815 -0.1194 -0.5088  0.0265
 4256W        W19387   9.016   2.100   4.634  0.1747 -0.2368 -0.0946
 4257W        W19388   0.151   0.463   4.680  0.0208  0.1388 -0.2370
 4258W        W19389   0.310  17.147   0.675  0.1173 -0.0692 -0.0551
 4259W        W19390  12.583   9.884   0.024 -0.0040 -0.0331 -0.1166
 4260W        W19391   5.527  13.558   1.506  0.0813  0.0226  0.1651
 4261W        W19392   4.082  12.336   0.870  0.0098  0.3787 -0.2543
 4262W        W19393   7.677  13.501  14.143  0.1491 -0.1098 -0.0055
 4263W        W19394  17.709   2.108   0.688  0.1440 -0.1903  0.1560
 4264W        W19395   2.721   7.483  11.752 -0.1095 -0.0775 -0.0846
 4265W        W19396   4.012  13.750  12.646 -0.4735 -0.2529 -0.0099
 4266W        W19397  14.802  17.874   2.898  0.0599  0.0770  0.3117
 4267W        W19398  11.767   6.048  15.885 -0.0991  0.0164  0.0767
 4268W        W19399   5.444   4.783  14.190 -0.3632 -0.1322  0.0493
 4269W        W19400   9.377  14.637   5.605  0.2603  0.0739  0.1752
 4270W        W19401   1.632   5.226   3.586  0.1665 -0.0287 -0.1099
 4271W        W19402   7.785   5.294   2.439 -0.0956  0.0777 -0.0244
 4272W        W19403   2.472  16.307  11.773 -0.2131 -0.2746  0.1395
 4273W        W19404   0.792  14.834  12.604  0.0437  0.1775  0.0200
 4274W        W19405  10.888  15.659   3.147  0.0220  0.1401  0.1258
 4275W        W19406  15.836  18.096   5.449 -0.0513 -0.1314  0.1509
 4276W        W19407  16.504  13.078   4.791 -0.1495 -0.0670  0.3942
 4277W        W19408   7.898  12.206  13.465  0.1401  0.2388 -0.2902
 4278W        W19409   6.217   6.134   3.706 -0.1285  0.2823 -0.2817
 4279W        W19410  17.865  14.039  11.344 -0.1702 -0.0441  0.2290
 4280W        W19411   5.508  14.708  13.352 -0.2177 -0.1185  0.0336
 4281W        W19412   4.185   4.148   4.776  0.3800 -0.0499  0.1432
 4282W        W19413   1.663  17.724   0.670 -0.0042  0.0229 -0.0888
 4283W        W19414   8.903  11.393   1.993 -0.1037  0.1473 -0.0046
 4284W        W19415  10.409  13.981   1.619 -0.0155  0.1076  0.1056
 4285W        W19416   1.346  16.577  12.470  0.0605  0.0918 -0.0884
 4286W        W19417   7.819  17.722  13.913 -0.0914  0.0409  0.2043
 4287W        W19418  12.112   3.445   3.274 -0.1313  0.0882 -0.3470
 4288W        W19419   9.241   2.708  14.849  0.0520 -0.0259  0.3373
 4289W        W19420   0.894   4.223   1.235  0.1085 -0.1004  0.2042
 4290W        W19421   5.145  17.660  13.438  0.0408 -0.1312  0.2744
 4291W        W19422  17.265   3.029  16.014  0.0117  0.2955 -0.0572
 4292W        W19423   4.649   5.687   1.961 -0.0445  0.1529  0.0295
 4293W        W19424  12.057   9.945   2.177 -0.1489  0.2627 -0.1626
 4294W        W19425   7.713  15.819  15.907  0.0093  0.0198  0.0248
 4295W        W19426   5.048   1.003  13.639 -0.0118  0.2630  0.0674
 4296W        W19427   0.590   1.469   2.045 -0.0305 -0.0753  0.1124
 4297W        W19428   8.087   4.933  16.132 -0.1482 -0.2448  0.2419
 4298W        W19429  13.848  17.710   3.044 -0.3535 -0.3049 -0.0398
 4299W        W19430  15.328  15.981   3.615 -0.0815 -0.0761  0.1671
 4300W        W19431  13.854   3.907   2.162 -0.0380 -0.2316 -0.2006
 4301W        W19432   7.566   0.884  15.344 -0.2213 -0.3965 -0.2391
 4302W        W19433  17.878   8.422   6.415 -0.0738 -0.3029 -0.1221
 4303W        W19434   6.269   5.777  12.366  0.0535  0.0918 -0.1568
 4304W        W19435  12.554  13.282  12.044 -0.0821  0.0834 -0.2519
 4305W        W19436  15.960   0.513   0.997 -0.1936  0.0185 -0.1753
 4306W        W19437   4.151   1.621  16.019  0.0310  0.1009  0.1135
 4307W        W19438  11.126   3.281   3.781 -0.1318 -0.0202 -0.0066
 4308W        W19439  13.180   9.631   4.815 -0.2124  0.1044  0.0578
 4309W        W19440   1.534   9.603   1.860 -0.0847 -0.5471 -0.1685
 4310W        W19441  10.351  17.960  10.147 -0.2930  0.0711 -0.0332
 4311W        W19442  13.284  12.793   4.079  0.3344  0.1579 -0.1454
 4312W        W19443  17.230   6.919   5.663  0.1427  0.1190 -0.0606
 4313W        W19444  10.775   8.993  15.352 -0.2234 -0.0204  0.2505
 4314W        W19445  12.102   7.183   1.511  0.1405  0.0164 -0.3228
 4315W        W19446   4.565  14.539  13.411 -0.2929  0.2585  0.3859
 4316W        W19447  14.949   5.341   5.067  0.0732  0.0973 -0.0588
 4317W        W19448   0.409   4.893  15.336  0.1013 -0.2577  0.0934
 4318W        W19449  12.366   8.086  15.763 -0.1367  0.0376 -0.1437
 4319W        W19450   2.101   0.718  11.441  0.3238 -0.2958 -0.2193
 4320W        W19451   5.504   0.217   0.098  0.2051  0.2606 -0.0281
 4321W        W19452   3.070   5.510   2.173  0.0262 -0.0458  0.1631
 4322W        W19453   1.771  11.449   4.826 -0.2491  0.1798  0.0326
 4323W        W19454  17.926  17.824   6.158 -0.1705 -0.0734  0.0294
 4324W        W19455   5.677  16.254  12.954  0.1949  0.2262  0.0760
 4325W        W19456   6.141   1.534   0.958 -0.0486  0.1068 -0.0247
 4326W        W19457  16.746  10.416  12.437 -0.3835  0.3578  0.2893
 4327W        W19458  18.070   3.867  15.195  0.0818  0.0077  0.2634
 4328W        W19459   7.962  15.741   5.750 -0.0555 -0.0684  0.3519
 4329W        W19460  13.725  11.079  12.890  0.2359  0.2241  0.0396
 4330W        W19461  11.548   9.405  16.126 -0.0376  0.3287 -0.1156
 4331W        W19462   7.433  11.597  11.209  0.1938  0.0692 -0.2460
 4332W        W19463   9.224   4.413   3.364 -0.3869 -0.1790 -0.1824
 4333W        W19464   7.157  13.616   5.104  0.1197 -0.0040  0.0609
 4334W        W19465   3.255  11.188  10.511 -0.3207  0.1820 -0.1123
 4335W        W19466  16.711  14.505   6.517 -0.0120 -0.2390  0.1120
 4336W        W19467  14.350   3.274  12.988 -0.0201  0.1603  0.2707
 4337W        W19468   3.203  14.520  13.783 -0.0418  0.1616  0.1746
 4338W        W19469   6.815   9.488   0.161  0.2379  0.1412 -0.0122
 4339W        W19470   9.018   4.836   2.129 -0.2651  0.0158  0.1066
 4340W        W19471   8.594  11.368   4.149 -0.0525  0.1277  0.4707
 4341W        W19472   2.112   0.305   0.129 -0.1409 -0.0150 -0.0538
 4342W        W19473  16.256  10.750  15.260 -0.0994  0.1050 -0.1764
 4343W        W19474   5.061   0.829  11.104 -0.0533 -0.0114 -0.2151
 4344W        W19475  17.772  13.417   1.138 -0.1633  0.0898  0.3452
 4345W        W19476  16.495   4.441  12.304 -0.0024 -0.0370  0.0209
 4346W        W19477  12.241   8.133   4.072 -0.0121  0.0606  0.2241
 4347W        W19478   4.644   5.064  14.907 -0.1431  0.2091  0.0482
 4348W        W19479  17.886  15.485   4.082  0.1842 -0.1942 -0.1259
 4349W        W19480   6.921  16.019   4.952  0.0258 -0.0736 -0.0481
 4350W        W19481  14.831  13.250  14.338 -0.0113  0.1604 -0.1328
 4351W        W19482  12.128   6.971   2.390 -0.0086  0.1125  0.1319
 4352W        W19483   4.762   8.490  14.769 -0.4377 -0.0526  0.1129
 4353W        W19484  12.595   8.392   1.604 -0.1052 -0.1760 -0.0918
 4354W        W19485   1.132  13.135  16.047 -0.0967  0.1464 -0.0424
 4355W        W19486   6.404   2.584  10.248 -0.3145  0.0413 -0.1007
 4356W        W19487  15.675  16.055   2.766  0.0188  0.0690 -0.1169
 4357W        W19488   8.309  12.199  11.948  0.0686  0.0946 -0.2837
 4358W        W19489   1.741   9.566   0.434 -0.0436 -0.1911 -0.1638
 4359W        W19490  10.578   1.538  15.069  0.3534  0.0907  0.0095
 4360W        W19491  15.643   2.303  12.511 -0.1724  0.1730 -0.0496
 4361W        W19492   8.384  13.492  10.791  0.1954 -0.0624 -0.2671
 4362W        W19493   3.828   3.917  13.822  0.2831 -0.0724 -0.3475
 4363W        W19494  10.900   6.134   2.107  0.1314  0.1335  0.3114
 4364W        W19495  12.969   4.109   1.372 -0.0838  0.1299  0.2283
 4365W        W19496   3.219   4.492  11.516 -0.0495  0.0172 -0.1867
 4366W        W19497  10.309  17.931   0.525 -0.0292 -0.1179  0.1519
 4367W        W19498   8.631  16.687  14.598 -0.1520  0.1502 -0.0779
 4368W        W19499   5.028   3.420   6.191  0.1327 -0.2844 -0.0158
 4369W        W19500   6.924   9.905   4.139  0.4834 -0.0751  0.1238
 4370W        W19501   0.552   3.428   5.791 -0.3463 -0.1883  0.0348
 4371W        W19502   8.206   5.850  13.327  0.0062 -0.1857  0.0788
 4372W        W19503  17.259  17.499   2.843  0.2997  0.0151 -0.1609
 4373W        W19504  12.636   3.787  10.772  0.0447  0.2237  0.3713
 4374W        W19505  15.424   5.753   0.691  0.2177 -0.2244  0.2649
 4375W        W19506   9.759   1.557  13.787  0.2993 -0.3115 -0.2036
 4376W        W19507   8.457  10.163  11.165 -0.0560  0.2389 -0.2133
 4377W        W19508  10.337  13.689  15.623  0.0091  0.1504  0.0080
 4378W        W19509   9.879   7.306  15.032 -0.1290 -0.0310 -0.2264
 4379W        W19510  16.763  15.977  13.702 -0.1830  0.0502 -0.3574
 4380W        W19511  10.935  10.097   5.018 -0.1246  0.2223 -0.4328
 4381W        W19512  14.550   5.592  11.859 -0.1343  0.0949 -0.1584
 4382W        W19513   6.104   6.691   3.355 -0.0754  0.1655  0.0735
 4383W        W19514  16.490  11.805   5.215  0.0644  0.1057 -0.2633
 4384W        W19515  12.216   3.508  11.688 -0.2070  0.1120  0.0127
 4385W        W19516  10.004   4.640  12.463  0.1636 -0.0675  0.3031
 4386W        W19517  15.469   1.835   3.609 -0.0724 -0.1160  0.1681
 4387W        W19518   5.258  13.354   4.715  0.0996  0.1108 -0.1310
 4388W        W19519  11.691  14.274   2.003 -0.1153  0.1623 -0.0310
 4389W        W19520  10.123   7.715   3.986  0.1743 -0.0477 -0.0574
 4390W        W19521  17.442  16.085  14.824  0.0508 -0.1059 -0.0798
 4391W        W19522   6.481  11.499  14.494  0.0905  0.0343 -0.1916
 4392W        W19523  17.777   4.350   2.298  0.0824 -0.0605 -0.0694
 4393W        W19524   8.327  16.587   3.477  0.1167 -0.2152 -0.0406
 4394W        W19525   7.065   0.003   1.481 -0.3709 -0.1090 -0.0127
 4395W        W19526   5.195  13.593   1.123  0.2328  0.1249 -0.1629
 4396W        W19527   5.508   4.053   0.077  0.0159 -0.0631 -0.0810
 4397W        W19528  12.772  17.443   5.035 -0.0349 -0.0199  0.2277
 4398W        W19529  11.653  16.187  12.412  0.3210  0.1403 -0.1565
 4399W        W19530   5.753  17.138   2.596 -0.0083 -0.1826  0.2516
 4400W        W19531   7.489   4.700   3.284  0.1000  0.3456  0.1349
 4401W        W19532   2.482   0.849  13.477  0.4745 -0.3303  0.2463
 4402W        W19533   7.746  13.003   1.710 -0.1036 -0.0679 -0.2594
 4403W        W19534   4.521   3.828   1.186 -0.0181  0.0725  0.1069
 4404W        W19535   3.979   2.952  14.283 -0.0702 -0.3400 -0.0110
 4405W        W19536  14.080   3.556   2.565  0.2059 -0.1560 -0.2089
 4406W        W19537   6.732  10.223  14.341  0.2255 -0.0113  0.0082
 4407W        W19538  11.415  17.478   5.104 -0.1255  0.2020  0.2142
 4408W        W19539  16.178   6.816   5.310  0.0137  0.3175  0.2730
 4409W        W19540  16.965  16.970   1.877 -0.0005  0.3049 -0.0349
 4410W        W19541  13.802   6.525   3.345 -0.1079  0.0904 -0.0401
 4411W        W19542   5.524   4.840  12.133  0.2654 -0.1555  0.0209
 4412W        W19543  12.836  16.680   3.784 -0.1598  0.0269  0.0381
 4413W        W19544  13.277   9.997  14.090 -0.0348  0.3888  0.1380
 4414W        W19545  17.167  16.100   5.402  0.3279 -0.1872 -0.0992
 4415W        W19546  10.952  15.316  13.457  0.0190  0.0894  0.3067
 4416W        W19547  11.427   3.825   2.687 -0.0839  0.0643  0.2072
 4417W        W19548   0.476   8.735  11.607 -0.1096  0.0298  0.0288
 4418W        W19549  12.044   9.979  15.585 -0.0841 -0.0071  0.1777
 4419W        W19550  13.724   2.965  11.308  0.2314  0.3141  0.2383
 4420W        W19551   8.140   5.533   2.184 -0.4093 -0.0660  0.1480
 4421W        W19552  17.188  14.687   2.898 -0.0486  0.1015  0.0549
 4422W        W19553  12.896  12.918  12.277 -0.1072 -0.0311 -0.1767
 4423W        W19554  14.101   7.841  13.385  0.1025  0.0870  0.0237
 4424W        W19555   6.420   8.487  11.298 -0.0866  0.0635  0.1344
 4425W        W19556  12.622   3.356  13.368  0.0804 -0.1237  0.0062
 4426W        W19557   5.256  10.714  13.669 -0.3076  0.0569  0.3342
 4427W        W19558  16.862   3.299  16.005 -0.1909 -0.1443  0.3040
 4428W        W19559  15.897  14.244  15.887  0.0305  0.2793  0.0086
 4429W        W19560   5.900  14.689   1.021 -0.0821  0.0881  0.1483
 4430W        W19561   2.174   9.759  15.841 -0.0923  0.1001  0.1888
 4431W        W19562   4.642   3.442   4.338 -0.0543 -0.1839  0.0555
 4432W        W19563  13.867   2.209  14.420 -0.1591 -0.1277  0.0304
 4433W        W19564  15.792  16.099   1.620  0.0013 -0.1674  0.4567
 4434W        W19565  13.963  10.826  10.225 -0.0217  0.0041 -0.2411
 4435W        W19566   2.591  13.427  12.152  0.0664  0.2626 -0.0416
 4436W        W19567   8.246  10.327  15.646  0.0654 -0.1253  0.0450
 4437W        W19568   6.589  15.752  11.574  0.1858 -0.2940  0.0082
 4438W        W19569   5.765   0.035   5.477  0.1839  0.1059 -0.0850
 4439W        W19570  14.610   1.556  12.161 -0.1296  0.1153  0.2352
 4440W        W19571   1.597  15.498  11.770 -0.2643 -0.4656 -0.1076
 4441W        W19572   6.033  11.015  16.106 -0.0929 -0.2806  0.1284
 4442W        W19573   3.252   6.236  15.342  0.2792  0.3318 -0.0525
 4443W        W19574   4.873  16.846  13.749  0.5273 -0.0114 -0.1359
 4444W        W19575  10.189  16.151   1.364  0.2068  0.2831 -0.3378
 4445W        W19576   6.887  10.845   1.271  0.2689 -0.0277  0.0966
 4446W        W19577  14.660  14.762   0.879 -0.1016  0.2739  0.3670
 4447W        W19578  15.659   6.226   1.479 -0.2192  0.0138  0.1452
 4448W        W19579   0.655   7.449   1.363  0.0243  0.0164 -0.0028
 4449W        W19580   2.138  16.616   2.616  0.0731  0.3229 -0.4060
 4450W        W19581  12.493  13.699  14.173 -0.0685 -0.0682 -0.1996
 4451W        W19582   4.680   4.209  15.211  0.1935 -0.1867 -0.2856
 4452W        W19583  14.292  11.263  15.524 -0.0725  0.4258  0.2524
 4453W        W19584   3.458   6.503  13.243  0.2300  0.2521 -0.1363
 4454W        W19585   7.640   4.466   0.382 -0.1082  0.1102 -0.0932
 4455W        W19586  12.419   2.326  11.242 -0.0916 -0.3497 -0.0257
 4456W        W19587  13.367  17.680   3.216 -0.0356  0.1523 -0.0794
 4457W        W19588  17.246  11.394   3.499  0.0621 -0.2622  0.3716
 4458W        W19589   2.019   4.221   4.774  0.0803 -0.1039  0.1822
 4459W        W19590   1.367   9.907   1.346  0.0660  0.0988  0.1117
 4460W        W19591   4.967   4.098   5.830  0.1099 -0.0468 -0.0536
 4461W        W19592   6.669  13.326   3.436 -0.2069  0.0094  0.1396
 4462W        W19593  14.285  15.665  15.848 -0.1733  0.1027 -0.1130
 4463W        W19594   7.888  14.121   0.240  0.0922 -0.2069 -0.2881
 4464W        W19595   1.878  13.567   3.808  0.0087 -0.0788 -0.0845
 4465W        W19596   9.849  13.741   5.695 -0.0563 -0.0272  0.1205
 4466W        W19597   6.903  13.993   0.404 -0.1545  0.0896  0.0847
 4467W        W19598   7.142  17.532   5.288 -0.2329 -0.2905  0.0932
 4468W        W19599   4.742   4.381  11.051 -0.2020 -0.3469 -0.0967
 4469W        W19600  16.195   3.126   0.334 -0.0671 -0.1104 -0.3687
 4470W        W19601   6.390   9.552   2.935  0.1941 -0.2510 -0.0201
 4471W        W19602   0.631   9.352   4.042 -0.2458 -0.1863  0.1956
 4472W        W19603   1.838   5.936   1.510  0.1710 -0.2118 -0.1440
 4473W        W19604  11.763  15.015  15.343  0.1174  0.1818 -0.0079
 4474W        W19605   0.977   9.495   3.625  0.1477 -0.0215 -0.1151
 4475W        W19606   9.669   0.992   4.771  0.1741  0.0065 -0.1878
 4476W        W19607   9.153   9.446   1.903 -0.0831  0.1751  0.0860
 4477W        W19608   8.247   4.181   2.251 -0.1248 -0.1446  0.0465
 4478W        W19609   3.317  13.978   4.833 -0.1010 -0.2060  0.0720
 4479W        W19610  11.234  14.605   1.978  0.4599 -0.0412  0.2124
 4480W        W19611  11.185  14.633   3.683 -0.1105  0.3211  0.0814
 4481W        W19612  11.974   3.698   0.866 -0.0751 -0.1084  0.0552
 4482W        W19613   8.101   6.966  15.102  0.2191  0.2174 -0.1955
 4483W        W19614   9.191  13.687   5.340  0.1317  0.2312 -0.1553
 4484W        W19615   0.468   6.845   2.197  0.0234  0.0599 -0.1969
 4485W        W19616  17.440  15.761  10.334 -0.1496  0.0444  0.1497
 4486W        W19617   7.865   4.008   1.665  0.0398 -0.1059 -0.1584
 4487W        W19618  14.248   0.312   3.410  0.0265  0.1068 -0.0409
 4488W        W19619  14.112   1.658  11.437  0.2189 -0.1840  0.2536
 4489W        W19620  14.656  17.446   1.001  0.1347  0.0098 -0.3195
 4490W        W19621   2.390  10.297   4.269 -0.1980  0.1224  0.0917
 4491W        W19622   8.263  17.831   0.088  0.0892 -0.1710 -0.1575
 4492W        W19623   2.882   7.551   1.728 -0.1053 -0.0300 -0.1658
 4493W        W19624   9.129   1.100   0.716  0.0149  0.1242  0.0468
 4494W        W19625   4.692   6.644  12.207 -0.4362 -0.2376  0.2195
 4495W        W19626   1.223   0.859   2.671  0.0437  0.2796  0.2491
 4496W        W19627   3.460  13.194   3.239  0.0281 -0.1616  0.4197
 4497W        W19628   4.634  14.246   1.107 -0.1557  0.0227  0.0610
 4498W        W19629   2.241  13.722  15.042 -0.1397 -0.1551 -0.1896
 4499W        W19630  16.827  17.570   3.109 -0.2185 -0.0275 -0.0722
 4500W        W19631   1.475   4.845  12.286  0.0631  0.2148  0.0281
 4501W        W19632   6.278   1.440  15.142  0.3870 -0.1831  0.1252
 4502W        W19633   9.428  17.790   0.013  0.0965 -0.4352  0.1430
 4503W        W19634  14.928  11.089   4.244 -0.4141 -0.0985  0.2118
 4504W        W19635  12.290   4.643  11.541 -0.0703 -0.1732  0.0046
 4505W        W19636   9.411  14.014  12.649  0.1984  0.1442  0.3332
 4506W        W19637  13.030  15.422  14.577  0.1472  0.1526 -0.0081
 4507W        W19638  12.707   1.918   1.014 -0.0061  0.1843 -0.1021
 4508W        W19639   8.915  11.428  12.656 -0.0154  0.0295  0.2131
 4509W        W19640   7.660   6.273  14.511  0.0679  0.2694 -0.1727
 4510W        W19641  17.746  16.974   1.319 -0.1418 -0.2622 -0.1828
 4511W        W19642  14.387   7.844   0.705  0.1155  0.1207  0.0307
 4512W        W19643  11.612   8.115  11.389  0.3317  0.1227 -0.1133
 4513W        W19644   0.146  10.605  12.069 -0.2642 -0.4283  0.0848
 4514W        W19645   3.352  15.595  15.752  0.2906 -0.2209 -0.2232
 4515W        W19646  16.795   3.583  11.038 -0.0605  0.2898 -0.1835
 4516W        W19647   4.998  11.935   2.984  0.0523  0.1073  0.1952
 4517W        W19648  13.731  13.942   3.225  0.1837 -0.3787 -0.0066
 4518W        W19649   0.541   6.019   0.283  0.1164 -0.0938  0.1210
 4519W        W19650  12.246   2.875   1.431 -0.0489 -0.1547  0.2362
 4520W        W19651   0.506  15.519  13.688  0.0418 -0.1006  0.0674
 4521W        W19652   5.756   9.570   4.936  0.1899  0.1171 -0.0447
 4522W        W19653   1.596  17.506   3.909  0.0560  0.0372 -0.0955
 4523W        W19654   7.094  15.659  11.330 -0.0494  0.2552 -0.2050
 4524W        W19655   8.358  14.380   4.101  0.0030 -0.0420  0.0039
 4525W        W19656  15.840  13.461   2.935 -0.0590  0.2225  0.1404
 4526W        W19657   4.815   7.396   4.648  0.1059  0.0126  0.1433
 4527W        W19658  14.208   8.356   3.877  0.2491  0.1841 -0.2882
 4528W        W19659  15.509   7.882  11.704  0.2856  0.3413  0.1986
 4529W        W19660  15.585  14.837   1.946  0.1008 -0.3327 -0.0960
 4530W        W19661   5.610   3.100   0.661 -0.1548 -0.3335 -0.1381
 4531W        W19662  10.011   4.165  13.294  0.5674 -0.0969 -0.4267
 4532W        W19663  14.964   0.736  14.105  0.1725 -0.1893  0.0447
 4533W        W19664   4.524   6.418  13.356 -0.0035 -0.2409  0.2886
 4534W        W19665   6.478   1.086   0.161  0.2050 -0.0913 -0.2436
 4535W        W19666  15.264   1.067   1.899 -0.0518 -0.0810 -0.2994
 4536W        W19667   1.196  10.814   2.466  0.0016  0.0694  0.2724
 4537W        W19668   6.714   0.215  10.893  0.1988 -0.1992 -0.1003
 4538W        W19669   6.819   1.161   4.189  0.2224  0.1743  0.3533
 4539W        W19670  10.339  12.145   0.932  0.1458 -0.2441 -0.0702
 4540W        W19671   4.236  10.714   2.896  0.2021 -0.0994 -0.1436
 4541W        W19672  12.955   9.694   0.365  0.0630 -0.1770  0.1193
 4542W        W19673  16.735   6.052  15.916 -0.1958  0.0996 -0.0293
 4543W        W19674  10.023  17.730   1.767  0.1122  0.0263 -0.0008
 4544W        W19675   3.160   2.530   0.799 -0.1216  0.0659 -0.1086
 4545W        W19676   6.200  13.676  11.386 -0.0079 -0.1263 -0.0810
 4546W        W19677   9.542  13.758  13.812  0.1053 -0.0333 -0.3985
 4547W        W19678   0.450   5.168  12.555  0.2543  0.1918  0.1892
 4548W        W19679   5.634  11.513  10.853  0.2177 -0.2318 -0.0478
 4549W        W19680   4.201  10.138  10.216  0.0091  0.2303  0.4124
 4550W        W19681  12.705  12.014   5.221  0.0887 -0.1823  0.0576
 4551W        W19682   5.334   9.535  11.837 -0.1649 -0.2846  0.1760
 4552W        W19683  11.070  15.240  11.063  0.0233 -0.0051  0.0725
 4553W        W19684  17.029   1.323  14.447 -0.2921 -0.1350 -0.1178
 4554W        W19685   5.272   7.529  14.462 -0.0237 -0.1522 -0.0227
 4555W        W19686  15.103  18.060   5.169  0.1131 -0.0787  0.1690
 4556W        W19687   0.803   1.750   0.703 -0.2786 -0.0087 -0.1391
 4557W        W19688  16.435   4.383   5.335  0.0227 -0.1372 -0.2103
 4558W        W19689   1.405  17.017  13.243 -0.1042  0.2309 -0.0199
 4559W        W19690  11.457  16.648   2.964  0.2771 -0.1155 -0.2164
 4560W        W19691  17.160   2.515  13.046 -0.2427 -0.4558  0.3080
 4561W        W19692  17.100   0.586   5.189  0.1615  0.0246 -0.0024
 4562W        W19693   8.668   3.660   0.828  0.0647  0.1428 -0.3526
 4563W        W19694   1.835   5.190  12.004  0.4104  0.0920 -0.1840
 4564W        W19695  16.766   9.847  13.153  0.1703  0.0278  0.2377
 4565W        W19696   4.810  14.633   3.599 -0.1177 -0.2034  0.0410
 4566W        W19697   0.091   7.238  14.258 -0.0634 -0.0212 -0.2260
 4567W        W19698  17.242  17.443   3.399 -0.2839 -0.1746 -0.1430
 4568W        W19699  10.073   2.769  13.500 -0.2212 -0.2598  0.1403
 4569W        W19700  12.275  16.693   5.791  0.2972 -0.0333  0.2641
 4570W        W19701  13.742   5.137   2.337 -0.1051 -0.1595  0.3272
 4571W        W19702  17.068  12.825  15.327  0.1208 -0.0214 -0.1112
 4572W        W19703   0.836   7.513  15.384 -0.1918  0.1034  0.1663
 4573W        W19704   5.885  10.721  11.758  0.2227  0.0674  0.3336
 4574W        W19705   5.169  10.790   5.226 -0.0635 -0.0011 -0.2822
 4575W        W19706  17.067   4.193   4.507  0.0083 -0.1171  0.0617
 4576W        W19707   0.490  10.515  14.163 -0.0193 -0.1979 -0.0060
 4577W        W19708  13.313  14.452  14.310 -0.1332  0.0195  0.1836
 4578W        W19709  14.611   7.113   5.943  0.2078  0.0269 -0.2408
 4579W        W19710   3.191  11.254  11.346 -0.0026  0.1710 -0.4577
 4580W        W19711  14.585   8.767  14.215 -0.0895 -0.0888 -0.0596
 4581W        W19712  10.653   0.205   5.411  0.0527 -0.1805 -0.0855
 4582W        W19713  11.488   5.207   1.993 -0.1569  0.2336  0.0127
 4583W        W19714  11.478   2.584   1.132 -0.1298 -0.1687 -0.0808
 4584W        W19715   8.169   7.208   1.796  0.3351 -0.4280 -0.2228
 4585W        W19716   6.407   2.856   2.818  0.1257  0.0355  0.0362
 4586W        W19717   8.038  10.496   0.934 -0.2181 -0.0263 -0.0410
 4587W        W19718  17.933  16.300  14.708  0.0390 -0.2006  0.1078
 4588W        W19719   5.468  15.336   2.512  0.0645 -0.0682  0.0947
 4589W        W19720   9.665   0.445  15.419 -0.0385 -0.0845  0.2565
 4590W        W19721   8.931  15.378  11.343 -0.0037  0.0538  0.0846
 4591W        W19722   4.807  13.968  12.685  0.0853  0.1872 -0.0687
 4592W        W19723   3.502  16.244  14.164 -0.1994 -0.0639  0.0193
 4593W        W19724   5.096   7.782  13.579  0.0093 -0.1126 -0.0135
 4594W        W19725   6.884   8.003  11.214  0.0985 -0.0961 -0.1612
 4595W        W19726  14.896   8.058   4.391  0.0618  0.1831  0.2335
 4596W        W19727   1.373  11.640   5.087  0.0161  0.1177  0.0530
 4597W        W19728  14.582   0.331   0.768  0.2282 -0.0847  0.0751
 4598W        W19729   4.760  16.489  11.636 -0.0168 -0.1355  0.0461
 4599W        W19730   3.892  17.509   1.704 -0.2123  0.2229 -0.3844
 4600W        W19731   1.656  10.468   3.488 -0.3957 -0.1121 -0.0870
 4601W        W19732   7.684  14.871   9.783 -0.1685 -0.1992 -0.3502
 4602W        W19733  10.172  16.566   4.607  0.1657  0.1551 -0.1600
 4603W        W19734   7.676  12.260  15.723  0.1416 -0.3864  0.1509
 4604W        W19735   7.644  10.035   5.309 -0.1497  0.0298  0.0032
 4605W        W19736   5.277  10.756  13.056  0.0585  0.1914 -0.0253
 4606W        W19737  15.277   3.033   4.487  0.1737 -0.2141 -0.3051
 4607W        W19738  11.168   4.448   2.811  0.3380 -0.3155 -0.0429
 4608W        W19739  16.521   6.838  15.287 -0.0760  0.0570  0.0597
 4609W        W19740   8.949   9.850  15.915  0.1412 -0.1090  0.1745
 4610W        W19741   0.048   2.341  14.198  0.0666  0.0001  0.1531
 4611W        W19742  11.764   6.145  15.106  0.0212  0.4359 -0.1309
 4612W        W19743   1.558   7.457   0.598 -0.0629 -0.0454  0.2081
 4613W        W19744   7.227   9.886   5.216  0.1737 -0.0808 -0.2182
 4614W        W19745  15.272  17.769   2.174 -0.1477  0.3321  0.1422
 4615W        W19746  14.094   1.774   1.357  0.0235  0.0548 -0.2182
 4616W        W19747  13.015  11.119   3.844 -0.3355  0.2276  0.2722
 4617W        W19748   2.636  17.693   1.061  0.2206  0.0699  0.1089
 4618W        W19749   5.826  10.521   4.634 -0.1126  0.0577 -0.2063
 4619W        W19750  11.605   7.648  12.807  0.0250  0.0918 -0.1432
 4620W        W19751   5.114   7.086  14.258 -0.1473  0.1759  0.1035
 4621W        W19752   2.468   8.038  10.412 -0.1927  0.0575 -0.0324
 4622W        W19753   1.144   3.639  12.449 -0.1812  0.2304 -0.0855
 4623W        W19754  17.062   2.620   4.097 -0.0961 -0.1475  0.0248
 4624W        W19755  11.238  12.649  15.134 -0.1657 -0.1195  0.1567
 4625W        W19756  17.835   6.545  15.263 -0.0722 -0.0277  0.0903
 4626W        W19757  14.709  10.770  11.452  0.3738  0.1036 -0.5482
 4627W        W19758   2.936   1.045  12.587  0.1611  0.4134  0.0950
 4628W        W19759  13.190   8.919   4.699  0.1060  0.0172 -0.2396
 4629W        W19760   6.752  12.224   0.656 -0.0325 -0.1526 -0.3056
 4630W        W19761  12.694  15.571   0.955  0.0560  0.1262 -0.2635
 4631W        W19762   2.069  17.946   0.277  0.0761 -0.4223  0.2504
 4632W        W19763  14.183   0.820   1.323 -0.2373  0.2593  0.2684
 4633W        W19764  13.501  13.655  11.230  0.1244 -0.1515  0.1893
 4634W        W19765   3.398   4.626  15.120 -0.2990  0.1259 -0.0709
 4635W        W19766   1.951   8.550   2.297  0.1349  0.1470 -0.0875
 4636W        W19767  17.359   4.688  12.196  0.1230 -0.2667  0.2413
 4637W        W19768  17.435  10.710  12.346 -0.3815 -0.2542 -0.0191
 4638W        W19769   2.283  16.317  12.210  0.2444  0.0907  0.0574
 4639W        W19770  14.893  17.714  15.135  0.2264  0.0103  0.0408
 4640W        W19771  15.853   5.886  11.414  0.1012 -0.2817 -0.1808
 4641W        W19772  12.355   9.949   1.759  0.0160  0.1492  0.0001
 4642W        W19773   1.413  11.125  14.137 -0.1198 -0.0763  0.0419
 4643W        W19774  11.489   5.148  16.125  0.2115 -0.1556  0.1134
 4644W        W19775   8.316  11.538  14.051 -0.0308 -0.0468  0.0909
 4645W        W19776  11.026   4.897   1.107 -0.5226 -0.1890  0.0104
 4646W        W19777   5.284   0.920  12.426  0.2251  0.0239 -0.2509
 4647W        W19778   8.517   2.144  13.281  0.1962  0.0190 -0.1751
 4648W        W19779   7.587   4.443   1.707  0.0272  0.1952 -0.0387
 4649W        W19780   2.675   1.051  10.818 -0.2862 -0.0740 -0.0486
 4650W        W19781   0.191  15.188   5.553 -0.1436  0.0484  0.2607
 4651W        W19782  16.299   4.181  11.883 -0.1411 -0.0995  0.1498
 4652W        W19783  15.689  17.013   4.626  0.2456 -0.1257  0.1414
 4653W        W19784   3.163   1.017  15.772  0.2256  0.0234 -0.1031
 4654W        W19785   2.785   4.009   0.999  0.2302  0.1709  0.0952
 4655W        W19786  12.766   4.724   3.699 -0.3162 -0.0521  0.1651
 4656W        W19787  14.368   6.487   2.570 -0.1096  0.0478 -0.0538
 4657W        W19788   6.404  13.781   1.918 -0.3515  0.0210  0.0812
 4658W        W19789   7.387   3.384   2.825 -0.0808 -0.2018  0.4032
 4659W        W19790   6.734   4.379  14.319  0.1138  0.0108  0.0163
 4660W        W19791   3.494  14.447   2.793 -0.0658  0.1912 -0.2331
 4661W        W19792   4.726  14.960  15.511 -0.0131  0.0280 -0.2625
 4662W        W19793   9.239  14.038  13.079 -0.1398 -0.2038 -0.0103
 4663W        W19794  14.951   9.608   4.611  0.1260 -0.0153  0.0307
 4664W        W19795  14.605   3.661   0.491 -0.0698  0.0045 -0.1247
 4665W        W19796   3.436  10.311   5.024  0.0381  0.1062 -0.0820
 4666W        W19797   0.722   2.900  14.345 -0.0992 -0.0464  0.4565
 4667W        W19798  14.975   4.199   2.672  0.1410 -0.4345  0.1682
 4668W        W19799   2.560   7.068   0.308  0.4368  0.0638 -0.1603
 4669W        W19800   4.794   5.549  14.965 -0.3030  0.0630  0.1576
 4670W        W19801   5.475  12.696  11.979  0.0011 -0.2044 -0.0531
 4671W        W19802   5.862   0.362  12.390  0.0012 -0.2497  0.0528
 4672W        W19803  14.859  14.325  10.393 -0.0849 -0.0463  0.4326
 4673W        W19804  16.055  12.475  15.795 -0.2837  0.0937 -0.2725
 4674W        W19805   4.009   4.532  15.465  0.0652 -0.2857 -0.1092
 4675W        W19806  10.843  16.752   4.387  0.0834  0.2097  0.0891
 4676W        W19807  10.743  12.541  10.472  0.1637  0.1838 -0.2185
 4677W        W19808   0.754   0.182  16.019  0.0379  0.0307  0.0148
 4678W        W19809   2.621  11.600  12.319 -0.2052  0.1601  0.0923
 4679W        W19810   9.319   6.399   4.218  0.0177 -0.3518  0.2095
 4680W        W19811  16.641  14.262  12.523 -0.1424 -0.2046  0.1318
 4681W        W19812  17.233  10.750   6.280 -0.0041  0.0626  0.0560
 4682W        W19813   8.062   9.982   0.509 -0.4928 -0.3720  0.0807
 4683W        W19814  15.983   6.362   5.280 -0.0959  0.0091  0.3162
 4684W        W19815  11.156   1.083  15.518  0.0546 -0.2106  0.2419
 4685W        W19816  13.700  11.238   3.110  0.2905 -0.0103 -0.0271
 4686W        W19817   3.480   1.581  11.141 -0.0908 -0.0195 -0.1721
 4687W        W19818  10.050   1.125  13.768 -0.2780  0.0757  0.2477
 4688W        W19819  17.394  12.916   2.398  0.2903 -0.0267 -0.1006
 4689W        W19820   6.092   9.946   4.083 -0.0044  0.3072 -0.0978
 4690W        W19821   4.626  11.241  15.356 -0.1309 -0.2619 -0.1158
 4691W        W19822   3.816  10.089  13.426  0.1816 -0.2340  0.0855
 4692W        W19823   7.109  14.529   5.662  0.0046 -0.3459 -0.0350
 4693W        W19824   4.377   2.993   1.639 -0.2847 -0.0378 -0.0789
 4694W        W19825   0.383   7.666   3.831  0.1733 -0.0660 -0.0889
 4695W        W19826   4.440   2.946   4.243 -0.2808 -0.0944  0.0646
 4696W        W19827   5.634  12.354  10.039 -0.0717 -0.0997  0.2566
 4697W        W19828   2.318   8.934  13.605 -0.0963 -0.2001  0.2897
 4698W        W19829   1.502  10.769  11.139  0.1987  0.1514  0.1812
 4699W        W19830  10.491   5.715   0.535 -0.4037 -0.2720 -0.2017
 4700W        W19831  11.528   0.786   3.449  0.1814 -0.1387 -0.1182
 4701W        W19832   5.581   2.733   0.299 -0.1415  0.1287  0.0043
 4702W        W19833  14.573  17.189   0.511 -0.1991 -0.0440  0.1178
 4703W        W19834   8.483  13.325  15.674  0.1472  0.2115 -0.0816
 4704W        W19835  11.350   4.166  12.905  0.0612  0.0039 -0.2283
 4705W        W19836   6.431  14.712  14.515 -0.0256  0.2648 -0.1966
 4706W        W19837   7.107  12.367  13.780  0.1207  0.0682  0.0022
 4707W        W19838  12.278   1.839  15.850 -0.1968 -0.1921 -0.0562
 4708W        W19839   0.166   3.809   4.144 -0.1600 -0.0578  0.2795
 4709W        W19840   7.768   5.437   4.381 -0.1695 -0.1314 -0.3080
 4710W        W19841   4.938   2.908   1.709  0.1706 -0.0002 -0.1799
 4711W        W19842   2.590  10.182  14.727 -0.1089  0.1486  0.3750
 4712W        W19843   6.915  15.431   6.198  0.3309 -0.5338  0.3385
 4713W        W19844  10.222  11.721  13.220  0.0928  0.3077 -0.0619
 4714W        W19845  17.566  16.854   2.880  0.0081  0.1632  0.0670
 4715W        W19846   5.874   0.439   1.705 -0.1565 -0.3058 -0.0893
 4716W        W19847   6.502  11.026  15.979 -0.0184 -0.0536 -0.0847
 4717W        W19848   6.964  10.330   1.995 -0.0455 -0.1033 -0.1793
 4718W        W19849  10.668   5.927  13.666 -0.0524 -0.0908  0.2808
 4719W        W19850  13.208   5.781  14.910  0.1350  0.0416 -0.0989
 4720W        W19851  13.969  14.698   2.690 -0.1312 -0.0628  0.0859
 4721W        W19852   0.665  15.761   4.671  0.1482 -0.0366 -0.1186
 4722W        W19853   6.141   7.087   2.477  0.0767  0.0696  0.1194
 4723W        W19854   3.666   5.513  15.296 -0.1807 -0.0091  0.1041
 4724W        W19855   8.342  10.549  13.338  0.2559 -0.0251 -0.0761
 4725W        W19856   1.477   1.038  12.743 -0.0586  0.1617  0.1486
 4726W        W19857   2.612   6.053  14.283 -0.2776 -0.0612  0.1883
 4727W        W19858  17.120   3.078   4.407 -0.2547 -0.0107  0.4723
 4728W        W19859  12.071  10.419  16.125  0.0096 -0.1170  0.0067
 4729W        W19860   5.986   0.614  13.918 -0.1401  0.0034 -0.0711
 4730W        W19861  14.341  11.894   1.981  0.2407 -0.0332  0.1670
 4731W        W19862   7.211  13.669  10.053 -0.1864 -0.1741  0.1646
 4732W        W19863  16.266  13.287  14.882  0.3041  0.0072 -0.0477
 4733W        W19864  15.387  12.511   4.305  0.0942  0.1723  0.3174
 4734W        W19865   9.638  13.255  14.769 -0.1064  0.0029  0.0967
 4735W        W19866  13.554  14.165  14.746 -0.0952 -0.0263  0.3781
 4736W        W19867  14.623   7.885  12.827  0.0703  0.0891  0.0944
 4737W        W19868   5.165   3.980  15.442  0.1637  0.3299 -0.3759
 4738W        W19869  12.036  11.156  12.369  0.3087  0.3276  0.0508
 4739W        W19870  10.081  12.876   3.721 -0.2801  0.2081 -0.3977
 4740W        W19871   1.067   6.524   3.918 -0.0971  0.0346 -0.3353
 4741W        W19872   4.418  10.223  14.148 -0.1320 -0.2802 -0.0538
 4742W        W19873   4.044  13.405   3.968  0.0496 -0.2787  0.1158
 4743W        W19874  16.791   7.574  15.274  0.0066  0.2581  0.3930
 4744W        W19875   5.853   0.735   0.801 -0.2915 -0.1507 -0.1403
 4745W        W19876   5.114   0.511   4.818 -0.1726 -0.1928  0.2286
 4746W        W19877   7.445  10.321  13.141 -0.1825  0.0873 -0.1844
 4747W        W19878  17.111  13.495  10.037  0.0272 -0.2173 -0.1415
 4748W        W19879  10.952   6.115   6.208 -0.0148 -0.0813  0.1485
 4749W        W19880  16.613  13.915   0.186  0.0513  0.1729 -0.0407
 4750W        W19881  16.700  15.998   4.021 -0.2333  0.2412  0.1982
 4751W        W19882   4.452   4.630   4.496 -0.1147 -0.0450  0.2568
 4752W        W19883  17.381  17.771   0.039 -0.0508  0.2104  0.2102
 4753W        W19884   1.391  17.808   3.493 -0.0513 -0.0336 -0.2287
 4754W        W19885   1.227  13.350   1.974 -0.0758  0.0071  0.0812
 4755W        W19886  12.940  16.780   3.284  0.0150 -0.4036  0.2715
 4756W        W19887   5.471   4.024   5.738  0.1109 -0.3033  0.2416
 4757W        W19888  13.383  17.923  12.237 -0.2398  0.0728 -0.1849
 4758W        W19889   5.435   0.986  14.810 -0.0483  0.1367  0.3623
 4759W        W19890   4.052   6.887   0.623 -0.1353  0.1093  0.0158
 4760W        W19891   8.863   8.347   2.646 -0.1760 -0.1134 -0.0335
 4761W        W19892  15.069   9.141  12.754  0.2066  0.0960 -0.1326
 4762W        W19893   9.150  14.697   4.230 -0.2063  0.0291  0.3425
 4763W        W19894   2.800  17.545  11.666  0.2914 -0.3887 -0.1963
 4764W        W19895  11.031   3.111  13.503 -0.1361  0.1240 -0.3187
 4765W        W19896  14.070  13.649  14.624  0.3351 -0.1377 -0.1174
 4766W        W19897   6.459   4.805  14.481  0.0301  0.0953 -0.1317
 4767W        W19898  10.724   4.234   4.983  0.3087 -0.0328 -0.0392
 4768W        W19899   8.307   5.005  13.913  0.0752  0.2068  0.0862
 4769W        W19900   9.506  10.047   3.521 -0.2090  0.2107 -0.0999
 4770W        W19901   5.039  17.260   4.444 -0.0348  0.0557  0.0698
 4771W        W19902  17.208  10.874  15.276  0.2229 -0.0386 -0.0422
 4772W        W19903  11.729   3.398   2.747 -0.0399 -0.0850  0.1610
 4773W        W19904  13.505  15.185   4.296  0.2703 -0.0340  0.1374
 4774W        W19905  10.021   3.417   3.470 -0.0322 -0.2724 -0.2479
 4775W        W19906  16.144  13.027  12.233  0.4772  0.1626 -0.0683
 4776W        W19907   6.292   4.319  15.140  0.1203  0.4289  0.0344
 4777W        W19908   4.771   2.989  15.634  0.0013  0.3206 -0.2111
 4778W        W19909   3.967  13.048   5.641  0.1262 -0.1222  0.2888
 4779W        W19910  17.043  11.523  12.672 -0.0293 -0.1268  0.1815
 4780W        W19911   0.731   9.023  12.004  0.0021  0.1234  0.0374
 4781W        W19912  10.746  10.276  12.254 -0.1339 -0.0697  0.1128
 4782W        W19913   1.042   5.301  15.821 -0.2857  0.0218 -0.0767
 4783W        W19914   1.969  12.236  13.583  0.2117 -0.2523 -0.0855
 4784W        W19915   0.366  11.909  15.786 -0.0464  0.2652 -0.2433
 4785W        W19916  11.894   6.520  11.371 -0.2565  0.0435  0.0866
 4786W        W19917  16.747   0.835  14.694  0.2602 -0.0267 -0.2215
 4787W        W19918   6.445  14.025   0.640  0.0249  0.2074  0.1394
 4788W        W19919  15.891   9.442  13.377  0.2571 -0.1792 -0.2782
 4789W        W19920   4.210   1.429   0.279 -0.1323  0.2606  0.2184
 4790W        W19921  14.088  11.357  14.709 -0.2905 -0.0515 -0.0928
 4791W        W19922   8.468  13.282   4.891  0.0156 -0.2181 -0.1714
 4792W        W19923   5.787  10.253   0.251 -0.2356 -0.1204 -0.1867
 4793W        W19924   0.319  10.308  14.594 -0.2491  0.5694 -0.1671
 4794W        W19925   7.835   3.282  12.996 -0.0566  0.0824  0.4010
 4795W        W19926   2.409  17.848  11.506 -0.2165 -0.0005 -0.0762
 4796W        W19927   6.176   6.989   1.000 -0.0796  0.0317  0.0703
 4797W        W19928   9.874  16.301  14.394  0.0450  0.2918 -0.0225
 4798W        W19929   0.545   4.942   4.918  0.1085  0.0573  0.1271
 4799W        W19930  12.862  13.095  11.239  0.1819  0.2250 -0.0451
 4800W        W19931   9.992   1.424  12.180  0.0896 -0.3997 -0.0473
 4801W        W19932  14.941   8.376   5.916  0.2066  0.1824 -0.5012
 4802W        W19933  14.882   6.379  11.864 -0.2323 -0.3858  0.1084
 4803W        W19934  17.479  14.392  10.318  0.2940 -0.1438 -0.2272
 4804W        W19935  17.617  11.371  12.871  0.2576  0.3847 -0.3291
 4805W        W19936  16.595   9.148   4.763  0.2125 -0.0049  0.1329
 4806W        W19937  12.527  10.052  12.022 -0.2821 -0.0269 -0.1417
 4807W        W19938   9.020  17.516  14.418  0.1884  0.0154 -0.3872
 4808W        W19939   2.532  11.312  16.211  0.2160  0.2345  0.1367
 4809W        W19940  13.459   9.359  14.318  0.0729  0.3406  0.3178
 4810W        W19941   2.512  17.032  11.185  0.2854  0.1259  0.2332
 4811W        W19942  15.531  17.977   0.990  0.4054 -0.2215 -0.2583
 4812W        W19943   2.559   8.449  14.260  0.0871  0.1921 -0.1240
 4813W        W19944   2.328  11.411  14.319  0.0867  0.1563 -0.1894
 4814W        W19945   4.110   3.687  13.371 -0.0385  0.0083  0.1689
 4815W        W19946  13.316  16.764  14.299  0.2878 -0.0609 -0.3291
 4816W        W19947   2.350   7.497  12.560  0.1320  0.0519  0.1959
 4817W        W19948  16.306   5.138   3.288 -0.4077  0.0122 -0.1156
 4818W        W19949  12.892   4.051   2.965 -0.3850  0.0676 -0.4449
 4819W        W19950  11.955  11.375   0.933  0.2634  0.0214 -0.0817
 4820W        W19951   6.073   7.490   5.336  0.0744 -0.0738 -0.2068
 4821W        W19952   0.108   9.984  14.933  0.0326 -0.2638 -0.2050
 4822W        W19953  16.424  16.272   0.003  0.3077 -0.0448  0.3886
 4823W        W19954   3.482   9.142  16.153 -0.1601 -0.1084 -0.0970
 4824W        W19955   0.222   0.590   0.977 -0.0722  0.0741  0.1755
 4825W        W19956   0.492   7.868  16.073 -0.2835 -0.1687 -0.0153
 4826W        W19957   8.303  14.373   0.004  0.0134 -0.1653  0.0107
 4827W        W19958   5.389   6.831  11.218 -0.1603 -0.2540 -0.0831
 4828W        W19959   7.473   6.960   2.155  0.0284  0.0885  0.2359
 4829W        W19960  13.005  14.986  11.524  0.0241 -0.0047 -0.3539
 4830W        W19961  16.871   4.373  13.951  0.1667 -0.1067  0.1132
 4831W        W19962  10.583  13.623  13.975 -0.2232  0.0110 -0.0924
 4832W        W19963  13.338  14.349  12.248 -0.0852  0.1027 -0.0229
 4833W        W19964  12.279  13.163   0.595 -0.0844  0.2290 -0.1560
 4834W        W19965   0.967  11.320   0.324 -0.0966 -0.0917 -0.0567
 4835W        W19966  11.232  12.438  14.499  0.0130  0.1972 -0.2968
 4836W        W19967  13.012   9.043  15.260  0.0078  0.3219 -0.3106
 4837W        W19968   2.047   2.922   1.397  0.0385 -0.1051  0.1540
 4838W        W19969  17.540  15.284   5.477 -0.1777  0.4896  0.1226
 4839W        W19970  14.703  17.456  15.926  0.2970  0.1559 -0.0886
 4840W        W19971   9.218   6.582  12.103 -0.1576 -0.0798  0.2660
 4841W        W19972   0.312   9.960  15.438 -0.1242 -0.0277 -0.2952
 4842W        W19973   2.711  18.082  11.815 -0.0365  0.0743 -0.1023
 4843W        W19974  15.753  11.599   4.064  0.0769  0.0144  0.2303
 4844W        W19975   5.036  17.969  14.670 -0.0530  0.3430 -0.0882
 4845W        W19976   7.022   7.961   3.139  0.2451  0.1774  0.1624
 4846W        W19977   2.683   8.744  15.734  0.1976  0.1343 -0.0382
 4847W        W19978   7.973  14.552   5.287 -0.2101 -0.0902  0.1204
 4848W        W19979  13.131   5.085  14.654  0.3081  0.1370 -0.2051
 4849W        W19980  16.354  16.849  13.978  0.1845 -0.2440  0.2668
 4850W        W19981   4.469  17.713   5.085 -0.1586  0.2166 -0.3831
 4851W        W19982   9.116   9.915  14.883  0.0356 -0.1833 -0.0793
 4852W        W19983   1.119  10.915  12.510 -0.1486 -0.1538 -0.2415
 4853W        W19984  10.408   6.677   1.407  0.0979  0.0319 -0.4105
 4854W        W19985  17.866   3.843   2.151 -0.3062 -0.0090  0.1053
 4855W        W19986  17.444  17.511  12.915  0.0103 -0.0366 -0.4089
 4856W        W19987   4.865   3.065  14.300 -0.1059 -0.2433  0.3493
 4857W        W19988   7.350  13.757  15.036 -0.1540  0.1144  0.2690
 4858W        W19989  15.871  11.120   4.166  0.2570 -0.0183 -0.2430
 4859W        W19990   0.498  13.579   4.801 -0.0916  0.0515 -0.1484
 4860W        W19991  12.557  16.403   4.137 -0.1979  0.0481  0.1846
 4861W        W19992   4.124  14.662   2.058  0.2284  0.1325 -0.0099
 4862W        W19993   5.418   1.268   3.825 -0.0329  0.4451  0.2189
 4863W        W19994  13.374  14.606  10.772  0.0310 -0.1563 -0.0667
 4864W        W19995  16.894   2.215   4.884 -0.0997  0.0008  0.3556
 4865W        W19996   8.357   3.484  13.277  0.3606 -0.1911 -0.0534
 4866W        W19997  17.124  11.614  14.476  0.4427 -0.0849  0.0202
 4867W        W19998   5.903   3.258  15.186  0.0042 -0.0208 -0.1032
 4868W        W19999  16.636   0.763  11.875 -0.2064 -0.1157  0.1487
 4869W        W20000   9.264  16.670  12.447 -0.2156 -0.2558  0.2421
 4870W        W20001  18.035   4.049   2.639  0.1438 -0.0483 -0.1708
 4871W        W20002   0.177  12.139   2.386  0.3345  0.1658  0.0092
 4872W        W20003   9.028  17.664   1.471 -0.0910  0.0895 -0.1512
 4873W        W20004   8.407  10.450  12.103 -0.1895 -0.1221  0.2877
 4874W        W20005  11.905   0.785  14.136 -0.1852  0.0953 -0.1231
 4875W        W20006   8.403  12.706  12.773  0.2069  0.3368  0.1243
 4876W        W20007   0.927   4.409  14.073  0.0014 -0.1161 -0.4324
 4877W        W20008   0.343   8.202  14.740  0.2082 -0.0425  0.1829
 4878W        W20009  13.296  11.948  14.692  0.2277 -0.2665  0.0506
 4879W        W20010  15.168  13.193   2.477  0.2444 -0.0381  0.3259
 4880W        W20011   6.310  10.480   1.280  0.3933  0.4155 -0.0228
 4881W        W20012  15.293  12.582   3.736  0.1371  0.1937 -0.1572
 4882W        W20013   2.316   1.998   2.214 -0.0085 -0.3616  0.1785
 4883W        W20014   0.747  16.043  12.758 -0.0293 -0.0362 -0.0566
 4884W        W20015   3.981  11.137  11.874  0.1166 -0.0437 -0.1024
 4885W        W20016   1.949  10.776   6.094 -0.1178 -0.1314 -0.4044
 4886W        W20017   7.249   0.781  13.289  0.1236 -0.0645  0.1194
 4887W        W20018   9.077  15.040  15.551  0.0637 -0.0176  0.1505
 4888W        W20019   3.496   9.078   1.137  0.1356  0.0378 -0.0143
 4889W        W20020   6.172   9.898  15.887  0.3991 -0.0592  0.1800
 4890W        W20021  17.007   0.559  10.641  0.1026 -0.1323  0.0778
 4891W        W20022   9.862  15.876   2.379  0.5281  0.2411 -0.2529
 4892W        W20023  11.052  13.207   3.762  0.1099  0.2074  0.2204
 4893W        W20024  15.690   4.675   4.800 -0.0648  0.1352 -0.1159
 4894W        W20025  15.692   8.411   3.817  0.2938 -0.1676  0.1582
 4895W        W20026  17.425   2.343   2.103  0.1162  0.2132  0.1279
 4896W        W20027  11.151   2.864   2.317  0.0904  0.2167  0.4008
 4897W        W20028  15.261  16.351   5.044 -0.1123  0.0479 -0.0381
 4898W        W20029   7.895   0.232   2.501  0.0487 -0.1494 -0.1319
 4899W        W20030   2.532  15.311   4.642  0.1549 -0.1651 -0.0744
 4900W        W20031   3.167  17.728  16.104  0.0087  0.0930  0.1613
 4901W        W20032   6.895  11.734  14.464 -0.0240  0.2116  0.2481
 4902W        W20033   2.749   9.072   3.173 -0.0851 -0.0460  0.1037
 4903W        W20034   5.355  16.066   4.098 -0.3844  0.1046 -0.2681
 4904W        W20035  15.668  14.636   5.071  0.0902  0.1868 -0.1206
 4905W        W20036  15.013   7.319  11.885 -0.0063  0.0113  0.0051
 4906W        W20037   3.469  12.526  14.996  0.2356 -0.0965 -0.1815
 4907W        W20038   9.746  10.828   0.669 -0.2361  0.0408  0.0969
 4908W        W20039  15.688   7.935   0.879  0.0568  0.2530 -0.1449
 4909W        W20040   0.290   5.683   1.188 -0.2553 -0.0393  0.0196
 4910W        W20041   0.767  14.732   1.999  0.0203  0.2762 -0.1161
 4911W        W20042   4.594   1.693   0.450  0.0985 -0.2297 -0.0329
 4912W        W20043   0.583  15.329   4.976  0.2229 -0.0665  0.2437
 4913W        W20044   8.500   9.588   2.909  0.2076  0.1644 -0.1078
 4914W        W20045  15.688  12.542  16.121 -0.1354 -0.1407  0.1398
 4915W        W20046  11.779   6.722  10.164 -0.1549 -0.0916 -0.1278
 4916W        W20047  10.507   7.617   0.184  0.1509  0.2287 -0.5398
 4917W        W20048   3.063  15.993  10.175  0.0316  0.2159  0.1683
 4918W        W20049   9.763   7.551  15.829 -0.0528  0.0732  0.1557
 4919W        W20050  16.857  15.667   5.100  0.0097  0.0673 -0.2637
 4920W        W20051  10.298   6.574  14.556 -0.3879  0.3936  0.0186
 4921W        W20052  10.534   8.664   0.375 -0.0069 -0.0104  0.3256
 4922W        W20053   6.397  14.358   5.282  0.0788 -0.1976 -0.0169
 4923W        W20054  17.755   3.683  15.795  0.0763  0.0025  0.0656
 4924W        W20055  13.471  14.317  13.365 -0.0842  0.1231  0.0909
 4925W        W20056  12.602   7.995  10.064 -0.1323 -0.1904 -0.1130
 4926W        W20057   0.787   0.260  10.574  0.0442  0.0578 -0.4956
 4927W        W20058   2.775   2.338  11.954  0.0763  0.1148  0.0214
 4928W        W20059   9.705  14.999   1.009  0.0204  0.1110  0.0372
 4929W        W20060  11.622  17.075   3.329  0.0193 -0.1648  0.2759
 4930W        W20061  10.079   5.758  10.410  0.0575 -0.3684 -0.0173
 4931W        W20062   0.576   0.882  12.070 -0.0216 -0.1217  0.0126
 4932W        W20063  15.492   9.794   2.558  0.0867 -0.1255 -0.2409
 4933W        W20064   8.635   1.538   1.890  0.0750  0.1288 -0.0873
 4934W        W20065  15.121  14.195  10.986  0.0335 -0.1595 -0.2925
 4935W        W20066  13.676  17.072  12.114  0.2182  0.1023  0.0026
 4936W        W20067   6.052   2.289   2.687 -0.3326 -0.3287 -0.0090
 4937W        W20068  15.017  12.781   0.361 -0.0631 -0.0560 -0.1233
 4938W        W20069   4.187  15.043  14.762 -0.0381  0.0962  0.1540
 4939W        W20070  11.061  11.722   4.692 -0.0362 -0.1016  0.1136
 4940W        W20071  17.740   6.490  13.579  0.0344  0.2737 -0.0003
 4941W        W20072   3.493   9.678   1.023  0.0374 -0.1711 -0.4706
 4942W        W20073   2.456   5.251   1.649  0.0671  0.0455  0.2339
 4943W        W20074  10.449  11.608  14.965  0.0258  0.2935  0.2732
 4944W        W20075   1.109   8.794   0.756 -0.0083 -0.1190  0.0150
 4945W        W20076   6.749   3.550   1.040  0.1012 -0.3048 -0.1963
 4946W        W20077   4.296  14.430  14.567  0.1588  0.2265 -0.1747
 4947W        W20078   7.782  17.537   2.019 -0.0910  0.2854  0.1863
 4948W        W20079   9.760  16.255   5.283  0.1352 -0.0157  0.2806
 4949W        W20080   2.367   7.737  12.139  0.1502  0.2622  0.0161
 4950W        W20081  10.289   7.786  11.454  0.0026 -0.2271 -0.0949
 4951W        W20082  13.905  17.188   9.728 -0.0642  0.3520 -0.2421
 4952W        W20083   3.280  10.940  13.013  0.1519  0.0396  0.3058
 4953W        W20084   1.186  10.243   0.937 -0.0794  0.0386  0.0071
 4954W        W20085   1.852   6.288  14.861 -0.2478  0.1056  0.1345
 4955W        W20086   9.152   1.616  12.559 -0.1130 -0.1665 -0.1531
 4956W        W20087  14.257   9.527  14.054  0.0070  0.1472 -0.0820
 4957W        W20088   8.679   1.142   2.510  0.0328 -0.0306  0.2788
 4958W        W20089   1.366  11.265   2.768 -0.4358 -0.0561  0.4126
 4959W        W20090  16.661  16.453   4.261  0.3708 -0.2255 -0.1583
 4960W        W20091  10.981  14.671   2.946 -0.0267 -0.0635  0.2147
 4961W        W20092   1.938   6.764   5.778  0.1834  0.0030 -0.0727
 4962W        W20093   4.438   5.533   3.337  0.0833 -0.1007  0.1794
 4963W        W20094  18.034   4.671   0.018  0.1652 -0.0717  0.1157
 4964W        W20095   3.794  15.102  11.952 -0.4007  0.1457 -0.2237
 4965W        W20096   9.719   2.657  14.949  0.0479  0.4604  0.0336
 4966W        W20097   6.297  13.534  10.117 -0.0376 -0.1518  0.1198
 4967W        W20098  12.408   6.830   1.927  0.0409 -0.0690 -0.2073
 4968W        W20099  16.592   1.342  13.877 -0.3963 -0.1777  0.1852
 4969W        W20100   9.420  10.225  14.694  0.3385  0.1478 -0.1788
 4970W        W20101  16.392   8.255   5.620  0.2184  0.0806 -0.2810
 4971W        W20102   4.640   9.703  15.640 -0.0812  0.1988 -0.3355
 4972W        W20103  17.557   4.225  12.083 -0.0141 -0.1120  0.0691
 4973W        W20104  15.029   8.242  12.497  0.1845  0.3585 -0.2973
 4974W        W20105  17.686  15.712   0.893 -0.0610 -0.1825 -0.1822
 4975W        W20106  10.114  14.474   4.601 -0.2818  0.1059  0.0006
 4976W        W20107  15.339   6.323   0.656 -0.0603  0.0956  0.0437
 4977W        W20108  17.524  15.953   4.641 -0.2190  0.1975 -0.2094
 4978W        W20109   5.029   7.790  15.222  0.1090  0.0776  0.1396
 4979W        W20110   4.238  15.562  14.459 -0.1412  0.3111  0.2255
 4980W        W20111  15.143  18.071  14.798 -0.0900 -0.1471  0.0146
 4981W        W20112   7.480   7.865  14.513 -0.1251 -0.1591  0.0832
 4982W        W20113   1.526   0.837   3.413  0.0297  0.5273 -0.1289
 4983W        W20114   3.012  11.548   3.581  0.0745  0.0908 -0.1637
 4984W        W20115  17.483   2.915   0.628 -0.0417 -0.1356  0.3994
 4985W        W20116  15.019   5.431  12.642  0.0381  0.0516  0.3837
 4986W        W20117   4.949  10.556   1.493  0.1308  0.1496 -0.2033
 4987W        W20118  14.430   6.134   0.283  0.1155  0.1405  0.0712
 4988W        W20119   4.542   2.750  12.844  0.1034 -0.3405 -0.2475
 4989W        W20120  15.035   0.543  13.603  0.1074  0.0827  0.1712
 4990W        W20121   9.009   4.641   4.227 -0.1167  0.2916  0.1178
 4991W        W20122  12.555   4.081  13.076 -0.0496 -0.0503  0.1421
 4992W        W20123   4.427   2.826   3.763 -0.1763  0.0878  0.0899
 4993W        W20124   5.592  17.678   5.695 -0.1304  0.0811  0.1479
 4994W        W20125  12.007   8.123   5.047  0.1102 -0.0213  0.1675
 4995W        W20126   5.778  16.250   5.745 -0.0612  0.0556  0.0290
 4996W        W20127  17.009  17.971   2.849  0.0591  0.2472  0.0697
 4997W        W20128   0.083   9.833  15.948  0.1258 -0.0857 -0.1309
 4998W        W20129   1.594   8.571   3.700  0.2359  0.1413  0.0439
 4999W        W20130  15.685  13.230  12.581  0.0309 -0.0278  0.1677
 5000W        W20131   7.689   7.599   1.854 -0.0918 -0.2673  0.1111
 5001W        W20132  11.135  14.906  14.604 -0.0057 -0.0868 -0.0642
 5002W        W20133  10.004  11.934   3.366 -0.0584 -0.1309  0.2472
 5003W        W20134   3.982   8.558   4.143  0.4438  0.0897 -0.0984
 5004W        W20135   8.061   9.435   6.200 -0.1787 -0.0985 -0.1121
 5005W        W20136  12.341   0.262   5.024  0.4024 -0.0604 -0.0225
 5006W        W20137  10.306   9.917  14.424 -0.2214 -0.0068  0.1360
 5007W        W20138  14.841   0.789  11.839 -0.1299  0.0648  0.0791
 5008W        W20139   1.808   9.249   0.883  0.1156 -0.1817  0.0743
 5009W        W20140   6.569  10.807  11.643  0.1230  0.2881 -0.1649
 5010W        W20141   8.681  13.865   2.555  0.2165  0.0319  0.0549
 5011W        W20142   8.669   1.003  14.095  0.1216 -0.0915  0.3656
 5012W        W20143   0.765  15.381   2.540 -0.0416 -0.1108 -0.0046
 5013W        W20144   1.488  18.060   5.351 -0.2790 -0.1847 -0.1102
 5014W        W20145   9.197  10.464   3.745 -0.1207 -0.3895  0.0768
 5015W        W20146   0.403   2.746   2.742  0.2765 -0.0983  0.0325
 5016W        W20147  17.938   7.355  11.522  0.1032  0.3229 -0.1561
 5017W        W20148   6.066   4.902  13.769 -0.3005 -0.4869 -0.2849
 5018W        W20149   2.325  10.284  13.914  0.0427 -0.3620  0.0188
 5019W        W20150  16.829   7.967   5.191  0.4556  0.0006 -0.0305
 5020W        W20151   9.174  11.931  11.263  0.0708  0.3231  0.1081
 5021W        W20152  12.650  15.265  15.297  0.1635  0.2516 -0.0679
 5022W        W20153   3.951  10.393   1.276  0.1613  0.2852  0.0382
 5023W        W20154   7.546   8.563   4.808 -0.0642 -0.0137  0.1921
 5024W        W20155   5.280  11.803   1.733  0.0368 -0.1610 -0.0353
 5025W        W20156   0.920  15.537  15.337 -0.0209  0.4256 -0.0974
 5026W        W20157   3.937   8.999   6.286  0.1869  0.1222 -0.2514
 5027W        W20158  16.046   7.555   2.143  0.1438  0.0931 -0.3876
 5028W        W20159  15.853   2.465  15.953  0.3884  0.3804 -0.2167
 5029W        W20160  14.210   6.250  15.824 -0.1065 -0.0237 -0.1835
 5030W        W20161   1.153  16.849   2.249  0.1741 -0.1980  0.0572
 5031W        W20162   4.547  10.075   4.410  0.0711 -0.0077 -0.0838
 5032W        W20163  11.552  10.826  10.862 -0.1387  0.4502 -0.1727
 5033W        W20164   9.678  10.038   3.021  0.0146 -0.2121  0.1274
 5034W        W20165  17.317  13.715   5.055  0.0937  0.0434 -0.0424
 5035W        W20166   3.554   2.148   0.972 -0.1253 -0.0573  0.0124
 5036W        W20167   0.507   3.461   4.036  0.0585 -0.2563  0.0380
 5037W        W20168  12.847   1.798   2.842 -0.0404  0.3826  0.2786
 5038W        W20169   1.163   2.436   3.523  0.3136 -0.0526 -0.2255
 5039W        W20170  13.424   1.588   2.264  0.2464  0.0819 -0.0421
 5040W        W20171   9.596  12.423   4.495  0.0348  0.0473 -0.0713
 5041W        W20172   0.156  17.636  16.193 -0.3831 -0.1591  0.0632
 5042W        W20173  17.602   6.290  14.889  0.0734 -0.1732  0.1896
 5043W        W20174   1.678   4.490   0.757 -0.0829  0.1747  0.0150
 5044W        W20175  15.543   4.153  11.391 -0.0509  0.0747  0.1191
 5045W        W20176  12.982  12.385   4.075  0.0224 -0.1148 -0.0102
 5046W        W20177  14.645   5.980  12.162 -0.0609 -0.0768  0.1156
 5047W        W20178  14.119   7.929  14.618 -0.2223  0.1260  0.2541
 5048W        W20179   8.748   5.294   2.917 -0.2538 -0.2814 -0.1693
 5049W        W20180  12.051   2.942   2.697 -0.1947 -0.0397  0.1444
 5050W        W20181  17.658   4.084  15.449  0.3667  0.3441 -0.1815
 5051W        W20182   9.741   5.184   0.728 -0.2377 -0.0906 -0.0665
 5052W        W20183  11.846   4.665   2.332  0.2249  0.1544  0.1418
 5053W        W20184   0.739   3.092   5.438  0.0334  0.0349  0.2326
 5054W        W20185   1.613  14.468  15.427  0.0851  0.4036  0.2414
 5055W        W20186  14.239   1.209  11.376  0.0162 -0.1636 -0.0065
 5056W        W20187   7.388   7.715  11.230  0.0896  0.0069  0.2442
 5057W        W20188   0.327  17.842   1.438  0.2342 -0.0267 -0.5008
 5058W        W20189   9.062   3.372   4.775 -0.1376  0.0043 -0.4012
 5059W        W20190   8.918   1.209  12.453  0.1475  0.2319 -0.0785
 5060W        W20191   2.585   7.752   1.352 -0.0346  0.0914 -0.0340
 5061W        W20192  17.790  12.844   5.156 -0.0975  0.3200 -0.2705
 5062W        W20193  14.785   4.128  11.915 -0.0113 -0.0924 -0.1508
 5063W        W20194  17.562   4.669   0.878  0.0452  0.1489 -0.2512
 5064W        W20195   8.224   1.164   3.462  0.0422 -0.0748 -0.3027
 5065W        W20196  14.570  14.320  16.179 -0.0931  0.0299  0.0289
 5066W        W20197   1.205   5.119   4.975  0.1598  0.2375 -0.1321
 5067W        W20198   0.973  12.865   0.248 -0.0937  0.2525 -0.1011
 5068W        W20199   9.345  15.465  12.925 -0.1627 -0.1081  0.2948
 5069W        W20200   3.506   3.228  15.304 -0.3097  0.1471  0.5143
 5070W        W20201  17.890  11.130   5.317  0.2039 -0.1036  0.0169
 5071W        W20202  11.254   7.728  12.061 -0.0019 -0.4846 -0.0463
 5072W        W20203  15.771  11.271   5.390  0.0711 -0.0651  0.1701
 5073W        W20204  16.780   0.628   1.779  0.1012  0.3035 -0.1917
 5074W        W20205   9.702   7.294   2.615 -0.3715  0.1243  0.0150
 5075W        W20206   4.088  12.115  10.730 -0.0695  0.0990  0.0027
 5076W        W20207   3.815   6.656  13.900 -0.0669 -0.2548  0.0814
 5077W        W20208   9.921   0.994  12.449  0.0919 -0.0306 -0.3261
 5078W        W20209   2.913   1.162   4.529  0.4880 -0.3236  0.0835
 5079W        W20210   7.790  11.333  12.965 -0.1682  0.1565  0.0523
 5080W        W20211   6.014   5.241  14.587  0.0893  0.1483  0.1320
 5081W        W20212   3.384   9.841  13.363  0.2391 -0.0808  0.2864
 5082W        W20213   9.613  16.224  15.295 -0.2339  0.0491  0.0768
 5083W        W20214   3.025   9.605   1.906  0.0614  0.1645  0.0152
 5084W        W20215   6.179  14.783  15.420 -0.0592 -0.0307  0.0694
 5085W        W20216   7.114  12.414  12.391 -0.1390  0.0568  0.0740
 5086W        W20217  14.436  10.174  14.473 -0.0904  0.1192 -0.1379
 5087W        W20218  15.674   0.325   3.463 -0.0381  0.0585  0.2033
 5088W        W20219  16.074   0.436  10.919  0.3398  0.3341  0.2901
 5089W        W20220  16.087  17.096   0.222  0.0342 -0.2622 -0.0536
 5090W        W20221  11.829  11.806  11.221 -0.0508  0.0260 -0.1925
 5091W        W20222   7.206  10.758   2.137 -0.1750  0.0055  0.0621
 5092W        W20223  13.335  15.642  14.911  0.1987  0.1480 -0.1233
 5093W        W20224   9.435   3.505  13.848  0.0441 -0.2031 -0.4861
 5094W        W20225   7.425   7.695  13.011 -0.0893  0.0508 -0.1141
 5095W        W20226   7.694  10.624   1.879  0.1717  0.0449 -0.2273
 5096W        W20227  16.606  13.330   5.645  0.0248 -0.1447  0.0969
 5097W        W20228  16.181  16.907   0.663 -0.0446  0.0732 -0.0031
 5098W        W20229  16.439   0.467  13.227  0.0384  0.0441  0.0732
 5099W        W20230   3.979   5.209  13.845  0.2505  0.2118  0.1547
 5100W        W20231   6.566  12.186   3.573  0.1252 -0.0838  0.2238
 5101W        W20232   2.428  12.525  12.922  0.2294  0.1545 -0.1436
 5102W        W20233   7.188  16.904  14.869  0.0407 -0.0391  0.0620
 5103W        W20234  12.278   1.004   0.905  0.0411  0.1260 -0.0007
 5104W        W20235   1.488   0.046  11.237  0.0241  0.1984 -0.0660
 5105W        W20236   8.891   0.083  13.801 -0.0514  0.2385 -0.0263
 5106W        W20237  18.072  12.675  16.053 -0.3282 -0.2784  0.0728
 5107W        W20238  17.447  15.291   4.419 -0.2658 -0.0216 -0.1298
 5108W        W20239  17.715   5.161   0.765  0.1011  0.0597 -0.4120
 5109W        W20240  11.376  12.031   0.525  0.1918 -0.2874 -0.1640
 5110W        W20241  10.086  10.115   3.340 -0.0672  0.0139  0.0733
 5111W        W20242  11.440   3.023  15.961 -0.0203  0.0002 -0.0780
 5112W        W20243  15.108  16.489  10.972 -0.1581  0.0615 -0.1368
 5113W        W20244  17.888   4.408   1.129  0.4358 -0.1657  0.1220
 5114W        W20245   1.022  11.177   3.160  0.0986 -0.1433 -0.0635
 5115W        W20246  13.401   0.911   0.846  0.1143 -0.0757  0.0116
 5116W        W20247  17.536   8.441   2.867 -0.0503  0.0865 -0.1923
 5117W        W20248   0.107   5.287   0.904  0.3311  0.0869  0.0519
 5118W        W20249   6.921   7.178   3.176  0.2782 -0.1436  0.1746
 5119W        W20250  15.431   7.349  12.923 -0.0547  0.0239 -0.1871
 5120W        W20251   4.431   3.658   2.666  0.0533  0.0614  0.0832
 5121W        W20252  11.323   0.001   1.552  0.0602  0.3399 -0.0439
 5122W        W20253   7.614   4.339   6.240 -0.3650  0.0355 -0.0814
 5123W        W20254   5.274   2.764   2.144  0.3445 -0.0581 -0.1411
 5124W        W20255  16.647   5.021   1.757 -0.0416 -0.2064 -0.3613
 5125W        W20256  17.944   4.637   1.633 -0.1253  0.0679 -0.1768
 5126W        W20257  15.888   9.708   4.227 -0.0478 -0.0633 -0.0921
 5127W        W20258   1.493   6.112   6.053  0.0646 -0.1868  0.3160
 5128W        W20259  10.242   0.495   0.585 -0.1260 -0.1488  0.0768
 5129W        W20260   9.510  17.787  15.724  0.0912 -0.0276 -0.1945
 5130W        W20261   2.422  14.160  15.187  0.3323 -0.2031 -0.0134
 5131W        W20262   4.525   4.742   6.346 -0.0278  0.2395  0.1366
 5132W        W20263  14.522   8.680   3.576 -0.0090 -0.0113  0.0906
 5133W        W20264  13.580  11.596   5.867  0.4594  0.3662  0.0236
 5134W        W20265  14.213   7.531   3.542  0.2021 -0.1504 -0.0227
 5135W        W20266  15.736   2.241   3.279 -0.4364 -0.4318  0.0460
 5136W        W20267  15.851   0.237   0.130 -0.2468 -0.3401  0.2989
 5137W        W20268   6.471  16.576  12.193  0.1924  0.0510 -0.4384
 5138W        W20269  11.213  15.480  15.943  0.4240  0.1136  0.2148
 5139W        W20270  13.385   5.587   5.499 -0.0361  0.2111 -0.2039
 5140W        W20271   7.226   1.869  15.186  0.0385  0.1183  0.2037
 5141W        W20272  17.835  15.426   2.505 -0.1364  0.0441  0.2659
 5142W        W20273   7.994   4.622  15.219 -0.0630 -0.0864  0.0902
 5143W        W20274  10.174  15.566  16.176 -0.1168 -0.0204 -0.1721
 5144W        W20275  10.138  11.339   0.260 -0.4764 -0.0479  0.1037
 5145W        W20276   4.366   0.532   2.939  0.1887  0.0423 -0.1449
 5146W        W20277  12.807  15.279  12.853  0.1111 -0.0102 -0.1339
 5147W        W20278  17.047   5.899  14.705 -0.1124 -0.3156  0.0068
 5148W        W20279   3.223   8.840  11.177 -0.0802 -0.3033  0.2985
 5149W        W20280  11.550   1.940  13.465  0.0295 -0.2808 -0.1729
 5150W        W20281  10.056   3.621   0.979 -0.2304 -0.4949 -0.1636
 5151W        W20282  16.892   4.724   5.260  0.2148 -0.0419  0.2822
 5152W        W20283   1.085   8.942  14.748 -0.0619  0.0599  0.4678
 5153W        W20284  11.917  16.609   3.190  0.2909 -0.1060  0.0337
 5154W        W20285   0.657   5.012   1.780 -0.0330  0.1116 -0.0130
 5155W        W20286  13.702  16.226   5.092 -0.3115  0.0523 -0.0908
 5156W        W20287   6.995  16.090  13.223 -0.0058  0.0119  0.1494
 5157W        W20288   7.933   1.286   1.376  0.0584 -0.0907  0.1373
 5158W        W20289  10.975  11.555  14.777  0.2699 -0.1646  0.1697
 5159W        W20290   8.154   7.596   3.558  0.3130  0.3186  0.0021
 5160W        W20291   0.902  13.347  11.959  0.0382 -0.3399 -0.1239
 5161W        W20292   8.057   4.330   0.681  0.0492  0.2458  0.0378
 5162W        W20293   5.194  12.939  15.686 -0.1570 -0.4108  0.0087
 5163W        W20294  13.235   1.034  12.095 -0.3121  0.0826  0.0957
 5164W        W20295   6.884   7.034  11.543 -0.1871  0.0115 -0.1795
 5165W        W20296   9.389   1.677   1.345  0.1029 -0.1461 -0.0506
 5166W        W20297  10.108   2.356   0.395  0.0861 -0.0631 -0.0105
 5167W        W20298  16.090   7.851  14.159  0.0111 -0.3349  0.1510
 5168W        W20299   8.779   8.642  14.298 -0.0555 -0.1284 -0.1599
 5169W        W20300  13.644  11.125   5.686 -0.1777 -0.0299  0.0916
 5170W        W20301  12.228  14.516   4.706  0.2410  0.1103 -0.1739
 5171W        W20302   6.332   3.664   0.781 -0.0272 -0.2788 -0.2679
 5172W        W20303   0.506   2.778  12.166 -0.0716 -0.0549  0.3187
 5173W        W20304   3.654  13.346  15.191 -0.0024 -0.1351  0.4685
 5174W        W20305   5.561   5.746  11.481  0.0047  0.0625  0.1159
 5175W        W20306  16.176   0.426  15.397  0.3820  0.0068  0.3699
 5176W        W20307   3.056   1.777  12.901  0.1520  0.0064  0.0896
 5177W        W20308  13.817  13.562  13.465 -0.3110 -0.0085 -0.1050
 5178W        W20309   0.495   9.488  11.860 -0.1743 -0.0717  0.0628
 5179W        W20310  14.450   9.941  16.199 -0.1933 -0.1222  0.0232
 5180W        W20311  17.538   2.148  15.897 -0.3309 -0.0098 -0.0169
 5181W        W20312   9.436  14.597  13.654  0.0062 -0.1052 -0.2135
 5182W        W20313  17.884  16.794   4.661  0.1303  0.0594  0.0344
 5183W        W20314  14.902   6.652   4.061 -0.0623 -0.1235  0.1236
 5184W        W20315   7.639   2.587  13.521  0.0223  0.1452  0.2176
 5185W        W20316   1.770  12.565   2.365 -0.1736 -0.0828 -0.0525
 5186W        W20317  10.221  16.218   3.622 -0.1784 -0.0498 -0.1469
 5187W        W20318  17.833   6.292   5.003  0.0840 -0.0242  0.1775
 5188W        W20319   4.463   1.749  11.842 -0.0519  0.1695  0.1429
 5189W        W20320   3.357  11.532   4.244 -0.0064 -0.1888  0.3282
 5190W        W20321   0.411   0.696   5.070 -0.0391 -0.1397  0.0730
 5191W        W20322   6.038  12.768  10.878 -0.0462 -0.1143 -0.1087
 5192W        W20323   4.654   0.984   5.466 -0.1429 -0.2776 -0.1501
 5193W        W20324  12.319  14.179   2.441  0.1402  0.2602  0.2056
 5194W        W20325  12.371   2.121  14.909  0.1099  0.0759  0.1771
 5195W        W20326   5.129  11.805   2.462  0.0562  0.0919  0.2398
 5196W        W20327  17.992  17.529  13.006 -0.3578  0.1111 -0.0545
 5197W        W20328   3.273   9.993  14.860  0.0600  0.0599  0.3481
 5198W        W20329   3.610  17.759   3.829  0.1156 -0.1656 -0.3024
 5199W        W20330   2.191   7.279   4.436 -0.0187 -0.3223 -0.0153
 5200W        W20331   2.045  17.497  15.977 -0.1003  0.1980 -0.1606
 5201W        W20332   5.414  16.828   1.383  0.2942 -0.1058 -0.0706
 5202W        W20333  14.816  11.853  10.562  0.1564  0.1616  0.0710
 5203W        W20334   9.113   6.545   2.550 -0.1766 -0.0972  0.1037
 5204W        W20335   0.492  12.036   3.566 -0.2474  0.0470 -0.1454
 5205W        W20336  16.095   5.262   2.834 -0.1061 -0.3076  0.1094
 5206W        W20337   7.106  14.251   3.250 -0.0565 -0.1315 -0.0010
 5207W        W20338   3.586   5.165  12.061 -0.1490  0.0745  0.1648
 5208W        W20339   5.773  17.857  14.940 -0.0930  0.2941  0.1325
 5209W        W20340  12.939   8.481   0.871 -0.0194 -0.3096 -0.2509
 5210W        W20341   6.084   2.064   3.585 -0.1393 -0.1225  0.3325
 5211W        W20342   0.798   8.533   0.397 -0.0327  0.1000  0.0131
 5212W        W20343  15.098   7.795   0.195 -0.0065 -0.2128 -0.0223
 5213W        W20344  10.522   8.980   4.398  0.1702  0.1525  0.3055
 5214W        W20345  17.142  12.972  11.521 -0.0886 -0.1122 -0.0312
 5215W        W20346  14.761  14.773  13.385 -0.0777 -0.2563  0.2957
 5216W        W20347   8.979   2.538   4.342 -0.1204  0.0660 -0.1235
 5217W        W20348   0.411  17.312  13.800 -0.1929 -0.0471 -0.1858
 5218W        W20349   4.056  10.699  12.128  0.1002  0.0460  0.1922
 5219W        W20350   5.626   1.835   1.858 -0.2938 -0.4542 -0.0496
 5220W        W20351   3.979  16.221  12.646 -0.0771  0.0984 -0.1892
 5221W        W20352   4.038   7.126  15.762  0.0068 -0.0966  0.0015
 5222W        W20353  11.109   3.086   4.679 -0.0150  0.2891 -0.0166
 5223W        W20354   1.272   8.695   4.059  0.0560 -0.5093 -0.3161
 5224W        W20355  12.314   6.396  12.854  0.2969 -0.0934 -0.3291
 5225W        W20356   3.108   6.043  12.375 -0.0935 -0.1823  0.0466
 5226W        W20357  11.721  13.559  15.756  0.2243  0.0517 -0.0741
 5227W        W20358   2.047  15.095   4.230  0.0575  0.3680 -0.1789
 5228W        W20359  10.993   9.795  15.079 -0.1876 -0.1187 -0.0441
 5229W        W20360   0.643  13.282  13.345  0.0281  0.0939 -0.0594
 5230W        W20361   5.309  10.722   0.893 -0.0580  0.0562  0.2538
 5231W        W20362  13.990   3.577  15.109  0.0732  0.1519 -0.1922
 5232W        W20363   4.262  11.319   5.145 -0.2327  0.1012  0.3087
 5233W        W20364   0.308  13.685  13.166  0.1186 -0.1574 -0.0094
 5234W        W20365  10.181  15.520   2.515  0.2407  0.2642  0.0809
 5235W        W20366   3.885   2.139   5.413  0.1893  0.3010 -0.1700
 5236W        W20367  12.981  11.424  15.341 -0.2006 -0.0792  0.0807
 5237W        W20368  14.494  17.474   2.383  0.1742 -0.0866 -0.0866
 5238W        W20369   0.236  13.923  13.646  0.0917 -0.2668  0.0243
 5239W        W20370   5.555  13.319   5.268 -0.1503  0.0762 -0.1044
 5240W        W20371   4.218  14.045   4.434  0.0839  0.1118 -0.2584
 5241W        W20372  17.754   2.348   4.687  0.1323  0.2001 -0.0126
 5242W        W20373   5.974   1.385   4.596 -0.1873  0.0115  0.1537
 5243W        W20374  17.770   6.545   2.023  0.2281  0.0080  0.0320
 5244W        W20375  14.141  15.937   5.018  0.3199 -0.5794 -0.1652
 5245W        W20376  12.419   9.381   3.369 -0.2045  0.0970  0.1847
 5246W        W20377   7.672  17.278   3.306  0.0067 -0.0994  0.3053
 5247W        W20378   3.436   8.109  14.271 -0.0743 -0.1936  0.1946
 5248W        W20379   9.267   9.735   4.400  0.1674  0.0152 -0.4027
 5249W        W20380  10.200   0.736   2.751 -0.1304  0.4301 -0.1690
 5250W        W20381  16.889  14.047   6.263 -0.0697  0.1045 -0.2149
 5251W        W20382   9.352   8.573   2.730 -0.0849 -0.4275  0.0770
 5252W        W20383  17.506   5.313  14.289 -0.0365  0.4609  0.1081
 5253W        W20384   1.500   8.211   3.330 -0.3652  0.0274 -0.1532
 5254W        W20385   3.119  18.071   5.691 -0.1160  0.0360  0.1138
 5255W        W20386   2.846   7.502   0.427 -0.0628 -0.1818  0.0430
 5256W        W20387   9.593   1.434   2.110 -0.2104  0.2367 -0.0341
 5257W        W20388   9.947   1.003   9.955 -0.1560  0.2301  0.0413
 5258W        W20389   0.423  17.922   2.922 -0.3245 -0.1998  0.0298
 5259W        W20390   4.115  17.196   2.290 -0.0085 -0.0075 -0.2136
 5260W        W20391   5.903  17.021  11.643  0.1141  0.1302 -0.0825
 5261W        W20392   0.235  15.991  12.857 -0.0378 -0.3328  0.0017
 5262W        W20393   7.833   8.220   5.659  0.3665 -0.1333  0.1943
 5263W        W20394  15.656   1.122   3.725  0.1248 -0.0559 -0.0933
 5264W        W20395  15.003  17.344  13.163 -0.1307 -0.0208 -0.2567
 5265W        W20396  16.666   9.742  14.669  0.1891  0.1311  0.1798
 5266W        W20397   3.477  15.596  12.613 -0.0610  0.0861  0.0325
 5267W        W20398   9.479   4.625  12.397 -0.2771 -0.3153  0.0831
 5268W        W20399   8.489   9.074   3.378 -0.0647  0.0026 -0.1599
 5269W        W20400  12.480  13.566  13.663  0.1841  0.0791  0.0076
 5270W        W20401  12.099  11.339   2.400  0.0313  0.0554 -0.2263
 5271W        W20402  16.938   9.906  14.226  0.2543  0.2078  0.0732
 5272W        W20403   1.334  17.055  11.530  0.2461  0.0515  0.4251
 5273W        W20404  14.834  17.209  14.944  0.0419  0.1940 -0.3134
 5274W        W20405   5.168   9.720  13.672 -0.2693 -0.4490  0.2720
 5275W        W20406  12.476   9.820   4.286  0.2610  0.0070 -0.2080
 5276W        W20407  16.302  13.977   4.859  0.0120 -0.1699 -0.0461
 5277W        W20408  12.868  10.695  12.914 -0.0451  0.1204  0.0178
 5278W        W20409  17.687  14.094  15.333 -0.1242 -0.1051 -0.1098
 5279W        W20410  11.496   5.959  14.174 -0.0510  0.1215  0.2603
 5280W        W20411   5.501  17.539  13.062 -0.1207 -0.1476  0.0467
 5281W        W20412   1.833   9.454  14.649  0.1391 -0.1550  0.3302
 5282W        W20413  13.824  15.418   3.951 -0.0033 -0.2201  0.0076
 5283W        W20414   0.688   8.271  15.141  0.0456  0.0782  0.0945
 5284W        W20415  10.189   3.258  14.471  0.0245 -0.4368 -0.0117
 5285W        W20416  12.995  13.605  11.271  0.1989  0.1717 -0.3551
 5286W        W20417  14.934  11.845  14.375  0.3326  0.1541 -0.0568
 5287W        W20418  13.757  16.749  12.817 -0.2798 -0.0483  0.0577
 5288W        W20419  10.786   1.589   3.030 -0.2213  0.2979 -0.0348
 5289W        W20420   8.350  16.104   2.520 -0.2131 -0.0822  0.0030
 5290W        W20421   8.035   1.661   3.181  0.0268 -0.2003  0.3066
 5291W        W20422  12.330  13.343   1.047  0.0583 -0.2247 -0.2151
 5292W        W20423   3.390  14.214   3.591 -0.0009 -0.0883  0.0716
 5293W        W20424   0.693   5.689  15.237  0.1550 -0.3180 -0.2309
 5294W        W20425   3.068  15.178   1.176 -0.1106  0.0649 -0.1709
 5295W        W20426   6.981  11.680   2.608 -0.0193  0.1205 -0.0697
 5296W        W20427  11.754  15.965   3.990  0.2839 -0.1281 -0.1463
 5297W        W20428  12.742   1.050  10.833 -0.1044 -0.1946 -0.4728
 5298W        W20429   2.270  15.993   5.927  0.1598 -0.1790 -0.1785
 5299W        W20430   7.453  12.775   5.267 -0.0606  0.0978  0.1030
 5300W        W20431  11.599   2.363   5.718  0.0048 -0.3302 -0.0419
 5301W        W20432  17.003   0.374  11.553  0.2219  0.2015 -0.1004
 5302W        W20433   9.593  14.234   1.292  0.0697 -0.0377  0.3532
 5303W        W20434  10.126  12.859   0.130  0.1873  0.0600  0.0056
 5304W        W20435   7.753   4.166  15.770  0.1643  0.3207  0.1875
 5305W        W20436   5.079   6.854  11.713  0.2904 -0.1276 -0.1949
 5306W        W20437   5.954   6.819  11.085 -0.2013  0.0390 -0.0179
 5307W        W20438  15.575   0.065   3.027  0.0892  0.1182 -0.0414
 5308W        W20439   7.724  11.374   2.991  0.1573 -0.1143 -0.2859
 5309W        W20440  16.832  15.928   5.691  0.1409  0.1156  0.1240
 5310W        W20441   8.818   5.990  13.866 -0.1783  0.0486  0.1278
 5311W        W20442   5.285   3.085  14.053 -0.1081 -0.1418  0.4953
 5312W        W20443   7.589   9.895  11.234  0.0434 -0.2129 -0.3981
 5313W        W20444  11.820  14.711   5.306 -0.0234 -0.2923  0.1416
 5314W        W20445   5.478   1.643  15.464  0.0326  0.2947  0.0555
 5315W        W20446   2.284  15.327   1.600  0.1005 -0.0878  0.0413
 5316W        W20447  10.422   2.733  14.384 -0.0341  0.0498 -0.2158
 5317W        W20448   8.287   7.455  15.843 -0.4085  0.2391 -0.0278
 5318W        W20449   0.031   3.981  14.668 -0.2512  0.0705  0.1650
 5319W        W20450   3.997  14.086  13.824  0.1486  0.1178  0.0332
 5320W        W20451  17.981  15.417  16.237  0.0308  0.1543 -0.1819
 5321W        W20452   6.762  11.806   3.287 -0.3007  0.1350 -0.1117
 5322W        W20453  11.987   9.436  15.965  0.0579  0.0784  0.2174
 5323W        W20454  14.377   9.198  14.415 -0.0770  0.1823  0.1262
 5324W        W20455   1.246   1.903   0.504  0.3702  0.0216  0.0620
 5325W        W20456  11.235   3.232  15.477  0.0123  0.0223  0.0735
 5326W        W20457  12.796   8.183  11.962  0.0687 -0.1475 -0.3930
 5327W        W20458   3.320  18.091   1.516 -0.1862  0.2064  0.1335
 5328W        W20459  16.590   9.046  12.482  0.2453 -0.2438 -0.0055
 5329W        W20460   8.600   3.938  15.059 -0.3914  0.1946  0.0203
 5330W        W20461   2.027   1.544  14.748 -0.1503 -0.2191  0.0771
 5331W        W20462  11.717   8.908   2.050 -0.1526 -0.1156 -0.0141
 5332W        W20463  17.192  15.707  13.345  0.0061  0.1966 -0.0548
 5333W        W20464  11.626   3.283   3.606 -0.0859 -0.3106 -0.2844
 5334W        W20465  17.645   1.850  12.134  0.1438  0.0368  0.0330
 5335W        W20466  12.227  15.126   4.447  0.1766  0.1943 -0.1370
 5336W        W20467   3.879   3.212  12.019  0.1365  0.2684  0.1686
 5337W        W20468   4.977   4.367  14.423 -0.3187  0.0211 -0.0375
 5338W        W20469   8.131  15.961   0.975  0.0581  0.1785  0.0022
 5339W        W20470  14.527  14.835   1.864 -0.0783 -0.3189 -0.3029
 5340W        W20471   4.646   7.945  11.362 -0.1435  0.1026  0.1517
 5341W        W20472   0.094  12.603  10.801 -0.1935 -0.0835  0.0683
 5342W        W20473   8.432   1.245  14.455 -0.0055 -0.1335 -0.1298
 5343W        W20474  16.690   2.522  12.151  0.2145 -0.0262 -0.0743
 5344W        W20475  10.756   4.391   5.468  0.0982  0.5497  0.3521
 5345W        W20476   9.433  10.136   4.087  0.0552  0.1778 -0.2209
 5346W        W20477  13.203  16.934  12.005  0.2484  0.1915  0.2528
 5347W        W20478   9.477  17.931  13.564 -0.0658  0.1431 -0.2209
 5348W        W20479   5.581  12.003  16.219  0.0077 -0.0349  0.2347
 5349W        W20480  11.907  13.417  12.924  0.1340 -0.1361  0.0979
 5350W        W20481   0.781   1.209   3.428 -0.1140 -0.2145 -0.0367
 5351W        W20482  13.941   8.782  14.838 -0.1825 -0.1837 -0.0854
 5352W        W20483   0.580   8.732  14.897 -0.2742  0.3210 -0.3635
 5353W        W20484  17.078  12.732   0.623 -0.1601  0.1719 -0.2440
 5354W        W20485  11.942  12.070   3.763 -0.0571  0.1179 -0.3244
 5355W        W20486  13.363  10.868   3.078 -0.4096  0.2507  0.0336
 5356W        W20487   9.587   4.596  15.263 -0.1001  0.0314 -0.2898
 5357W        W20488   9.928   4.793  14.140 -0.0807 -0.0798  0.0048
 5358W        W20489  17.126  17.157  14.867 -0.2026 -0.1191 -0.2020
 5359W        W20490  15.535  14.174   5.361 -0.0089 -0.1031 -0.4565
 5360W        W20491   9.720   7.337   0.202 -0.1134 -0.2352  0.1645
 5361W        W20492  13.593  15.276   5.341  0.5287 -0.0513  0.0311
 5362W        W20493   0.930   5.045   0.857  0.0780  0.1159  0.0600
 5363W        W20494  10.845  10.896   2.957  0.0883 -0.1114  0.1066
 5364W        W20495  14.400  16.751  13.560 -0.0644 -0.0514 -0.0383
 5365W        W20496  12.712   8.856  11.368  0.0517  0.1913  0.1382
 5366W        W20497   0.817   7.214  10.909 -0.1131  0.1212 -0.0720
 5367W        W20498  13.255  11.185   1.193  0.2410 -0.4002 -0.0968
 5368W        W20499   5.450  12.512   2.430 -0.2310  0.6120 -0.0903
 5369W        W20500   7.607  11.767  11.673 -0.1888  0.0036  0.2551
 5370W        W20501  13.665   0.960  14.600 -0.0394  0.0086  0.0201
 5371W        W20502   7.799  10.042  12.832  0.1975  0.1269 -0.1108
 5372W        W20503  16.741   5.253  15.633  0.1589  0.1913  0.0334
 5373W        W20504   5.617  16.452   1.030 -0.1224  0.0411  0.0904
 5374W        W20505   0.397  12.898  15.178  0.2319 -0.2378 -0.0196
 5375W        W20506  12.805   5.279   0.517 -0.4316 -0.0935  0.0504
 5376W        W20507  15.487  14.593   3.470 -0.0813  0.1293 -0.1282
 5377W        W20508   4.090  18.085  15.160 -0.2862 -0.1527  0.0976
 5378W        W20509  17.405  10.623  13.614  0.2329  0.0864  0.2888
 5379W        W20510   9.978   8.157   4.338  0.0961  0.0222 -0.0241
 5380W        W20511   0.093   3.839   9.875  0.5514 -0.0820  0.0104
 5381W        W20512   5.021   5.579   4.134 -0.2599  0.5119  0.1316
 5382W        W20513  12.447  13.607   2.115  0.1397 -0.2148 -0.0618
 5383W        W20514   1.038  15.500   4.916 -0.0035  0.2454  0.0233
 5384W        W20515  17.362   6.116   1.687  0.1687 -0.0695  0.0279
 5385W        W20516   3.065   3.322   0.077  0.1642  0.0206  0.1470
 5386W        W20517   1.298  13.416  10.653 -0.0748 -0.0084 -0.0157
 5387W        W20518   2.704   7.560  11.232 -0.1654  0.4224  0.0714
 5388W        W20519   9.091  17.192  12.184 -0.0798  0.1186  0.0321
 5389W        W20520  10.050   2.125   3.119  0.0760  0.0989 -0.0578
 5390W        W20521  13.966   3.928   4.713 -0.0209 -0.0565  0.2933
 5391W        W20522  10.342  14.428   2.561  0.2249 -0.1202  0.1118
 5392W        W20523  13.367  16.795  15.581 -0.2398 -0.0254  0.1214
 5393W        W20524   1.867  14.432   0.608  0.0036 -0.0809  0.2858
 5394W        W20525   4.394  11.399   2.377 -0.0962  0.0739 -0.1368
 5395W        W20526  16.867  16.282   2.441  0.0246  0.1062 -0.0066
 5396W        W20527   6.562   9.055   2.340  0.2944  0.2161  0.0275
 5397W        W20528   9.586  13.672   0.338 -0.2297  0.1247 -0.2269
 5398W        W20529  13.385   1.060   1.924 -0.1671  0.2304  0.1112
 5399W        W20530   1.785   4.338  14.605 -0.2030  0.2854  0.0073
 5400W        W20531  13.121  13.760   0.474  0.0296  0.1138 -0.2340
 5401W        W20532   1.023  17.191   4.399 -0.1363  0.1422 -0.1501
 5402W        W20533   5.037  15.069  11.418 -0.0726 -0.1408  0.0465
 5403W        W20534   3.602  12.654  13.116  0.2194 -0.0812 -0.3564
 5404W        W20535   6.181   6.594  15.591  0.2167  0.1962 -0.4762
 5405W        W20536   6.719  11.246   4.784 -0.0129  0.1638 -0.1293
 5406W        W20537   2.626   6.311  11.807  0.0107 -0.0103 -0.0273
 5407W        W20538  13.788   6.954   4.791  0.0233 -0.2429 -0.0720
 5408W        W20539  16.532  11.576  16.078 -0.1763  0.1672 -0.4538
 5409W        W20540  15.505  18.001  16.155  0.0681  0.2040 -0.2384
 5410W        W20541  14.785   6.326  15.755  0.1816 -0.1231 -0.0798
 5411W        W20542   8.433   5.149   1.854  0.0040  0.2879 -0.2153
 5412W        W20543   4.446  11.769  15.617 -0.0710  0.0532  0.1532
 5413W        W20544   6.525   1.255   6.300  0.1514 -0.2192 -0.1847
 5414W        W20545   6.452  13.951   2.386  0.1129  0.0436  0.0685
 5415W        W20546  17.276  10.377   1.085  0.2877 -0.0615 -0.2394
 5416W        W20547  10.792   8.637   1.770 -0.0486 -0.1952 -0.2418
 5417W        W20548   9.398   9.121   3.305 -0.0812 -0.1766 -0.0897
 5418W        W20549  14.337   6.122   4.628  0.2374  0.2050 -0.0504
 5419W        W20550   6.079   5.211   0.538 -0.2339  0.1258 -0.1813
 5420W        W20551   5.476  10.002  15.405  0.0794 -0.0977 -0.3197
 5421W        W20552  15.367   6.526   5.695 -0.0046 -0.1207 -0.1042
 5422W        W20553  14.541   9.058   2.811 -0.1412  0.0438  0.0942
 5423W        W20554  14.232  17.485  12.571 -0.3287  0.1285  0.0011
 5424W        W20555   7.172  15.904   2.559  0.1993  0.0791 -0.1056
 5425W        W20556  13.687   0.879   1.208  0.1973 -0.2322 -0.0384
 5426W        W20557   5.707  14.748  13.809 -0.1699 -0.1051  0.0719
 5427W        W20558  11.665  12.225   1.448 -0.0297 -0.3293 -0.5251
 5428W        W20559  15.180   2.397  10.072 -0.2461  0.1417 -0.1993
 5429W        W20560  12.514   9.781  14.587  0.1640  0.0773 -0.0337
 5430W        W20561   4.549  13.443  15.507 -0.1215 -0.0582 -0.0399
 5431W        W20562   5.216   4.732   2.029 -0.0752 -0.1033 -0.0037
 5432W        W20563   5.593  17.576   0.529 -0.2588  0.0730 -0.0509
 5433W        W20564   1.526   7.237   1.272  0.2181  0.3860 -0.3954
 5434W        W20565  12.263  14.222  14.276  0.1844  0.0804 -0.3570
 5435W        W20566   9.228   0.587   2.632  0.3156  0.1273 -0.0780
 5436W        W20567  17.112   4.654   2.995  0.0208  0.0373  0.1030
 5437W        W20568  11.649   6.498  12.828  0.2248 -0.1685  0.0168
 5438W        W20569   8.353  10.834   1.207  0.0374 -0.2576 -0.1950
 5439W        W20570  16.593  10.531  11.872  0.1391  0.0785 -0.0060
 5440W        W20571  15.760   2.695  15.122 -0.4082  0.0096  0.1680
 5441W        W20572  15.722   8.173  13.857 -0.2706  0.3554 -0.2053
 5442W        W20573  17.911  12.667  13.438 -0.2965 -0.1501  0.0872
 5443W        W20574   3.971   2.242   5.899 -0.0563 -0.2231  0.0446
 5444W        W20575  11.270   1.074   2.455 -0.0338  0.1485  0.3654
 5445W        W20576   7.443   3.890  12.570  0.2519  0.1683  0.2270
 5446W        W20577  14.013  17.718   1.640 -0.2723  0.0081  0.3639
 5447W        W20578  16.183  17.781   4.129  0.1170  0.1783 -0.0600
 5448W        W20579  15.000  14.111  14.228  0.0060 -0.0527  0.1707
 5449W        W20580  15.629  15.885  15.160  0.2745 -0.2266  0.1984
 5450W        W20581  15.290  10.039  13.745  0.0708 -0.2739  0.1077
 5451W        W20582  14.534  10.368   3.989  0.0271  0.1447 -0.2041
 5452W        W20583  13.344  11.034  11.212 -0.0227 -0.1941 -0.0759
 5453W        W20584   8.521   1.907  14.514  0.0283  0.0241  0.1605
 5454W        W20585   5.960   3.522   2.262  0.0793 -0.0672 -0.2000
 5455W        W20586  17.160   3.192  14.274  0.0177 -0.1166  0.1099
 5456W        W20587   9.935  17.051  14.090  0.0847  0.3367 -0.2753
 5457W        W20588  16.366   8.935   4.305 -0.0240 -0.1580  0.3278
 5458W        W20589   0.530   1.196   1.133 -0.2797 -0.1593 -0.1842
 5459W        W20590  11.514  14.514   5.799  0.1061  0.1303  0.0299
 5460W        W20591  12.555  10.174  12.898  0.2646  0.1527 -0.1430
 5461W        W20592   3.711   5.857  15.699  0.0699  0.0429  0.0141
 5462W        W20593  15.443   7.086  12.038  0.1726  0.0399  0.3462
 5463W        W20594   8.568  17.572   4.928  0.2313 -0.0629 -0.0903
 5464W        W20595  13.106  17.482  10.167  0.1092 -0.1157 -0.2171
 5465W        W20596   8.675   1.668  11.505  0.0682  0.0038 -0.0027
 5466W        W20597  10.592  13.413  12.542 -0.0612  0.0420 -0.1714
 5467W        W20598   6.498   3.348  12.031 -0.2130 -0.0453 -0.2293
 5468W        W20599   4.618   2.592   1.363  0.1763  0.3233 -0.1686
 5469W        W20600   0.287  16.002  15.357 -0.0871  0.1544  0.2561
 5470W        W20601   6.972   0.709   0.772  0.0162  0.1088 -0.1250
 5471W        W20602   6.442  11.443  10.897  0.2219 -0.3062  0.2369
 5472W        W20603  16.072  16.390   3.543 -0.1626  0.0795 -0.2530
 5473W        W20604   3.657   0.096  15.372 -0.2398 -0.0045  0.2818
 5474W        W20605  13.967   0.493   9.987  0.2328  0.0550  0.0921
 5475W        W20606   6.542   0.552  12.795  0.0121  0.1235 -0.2738
 5476W        W20607   7.741   1.929   1.807  0.0414 -0.2872  0.2474
 5477W        W20608  17.450   1.971  10.625 -0.2729 -0.1886 -0.1204
 5478W        W20609  11.530  17.912   4.018 -0.0371  0.1919 -0.1297
 5479W        W20610  10.304   4.481   2.407  0.0216  0.0705  0.1584
 5480W        W20611   7.604   2.795  11.774 -0.0653 -0.0067  0.2349
 5481W        W20612   6.123   1.290  12.744 -0.0572 -0.0996  0.0460
 5482W        W20613   3.844   4.533   5.860 -0.0451 -0.3929 -0.0521
 5483W        W20614  15.838   5.189  14.810  0.0776  0.0253 -0.3770
 5484W        W20615  12.351   6.558  15.674  0.0318 -0.1257 -0.0998
 5485W        W20616   5.805  14.494  15.295  0.1844  0.3384 -0.1407
 5486W        W20617   3.421   6.760  11.953 -0.1356  0.1193  0.0044
 5487W        W20618   8.241   9.042   0.049  0.2039  0.2375  0.5708
 5488W        W20619   8.591   3.508   3.205 -0.0576  0.0155 -0.0065
 5489W        W20620  14.848  14.146  12.038  0.0414 -0.1736  0.0267
 5490W        W20621  12.743   4.547  14.177 -0.0496  0.0347  0.0499
 5491W        W20622  16.269  16.574  10.090 -0.0484 -0.1768  0.2668
 5492W        W20623   5.198   0.104  14.111 -0.2853 -0.1537 -0.0019
 5493W        W20624  18.004  15.016  13.555 -0.2627  0.0284 -0.0683
 5494W        W20625   6.271   3.290   0.235 -0.1238  0.0322 -0.1017
 5495W        W20626   8.837   9.012   0.660  0.0317  0.1250  0.0030
 5496W        W20627   2.403   8.542   2.507  0.1170  0.3706  0.1275
 5497W        W20628  16.261  12.150  16.142 -0.2150 -0.0902 -0.5248
 5498W        W20629   3.092  13.471  15.893  0.1266 -0.0971 -0.1006
 5499W        W20630   8.230   7.518  14.283  0.0284 -0.2431  0.2140
 5500W        W20631   6.696  17.038   1.557  0.0220 -0.0350 -0.0031
 5501W        W20632   0.554   0.031  10.957  0.3597  0.0434 -0.4956
 5502W        W20633   8.726  15.500  11.784  0.1954  0.1063 -0.3494
 5503W        W20634  11.779   7.887  14.650  0.2896 -0.0329 -0.2757
 5504W        W20635   4.930  13.978  12.096  0.1922  0.1870 -0.1351
 5505W        W20636   5.023  12.662   4.144  0.0013  0.0481 -0.2483
 5506W        W20637  15.928  13.910  13.063 -0.0983 -0.1625  0.0581
 5507W        W20638   7.607   4.304   0.873  0.1483  0.1276  0.1117
 5508W        W20639  14.993   4.750   5.753  0.1047 -0.0188  0.2931
 5509W        W20640   2.513  15.403  10.862 -0.2268 -0.0906 -0.1578
 5510W        W20641   0.406  12.398   0.651  0.2244 -0.2720 -0.1124
 5511W        W20642   2.657   9.899   4.994 -0.1336  0.0600 -0.2733
 5512W        W20643  16.470   5.018   2.316 -0.1071  0.3284  0.0996
 5513W        W20644   4.490   5.439  15.791  0.0997  0.1030 -0.0932
 5514W        W20645  17.502   5.492  16.016 -0.0308 -0.0049  0.0691
 5515W        W20646   5.066  13.660   1.622 -0.0531  0.1288 -0.0084
 5516W        W20647  16.316  13.597   1.301  0.0777 -0.2516 -0.3008
 5517W        W20648   3.212  10.893  11.006 -0.1453 -0.1604  0.1981
 5518W        W20649  11.877   3.099  11.373  0.2718 -0.2629 -0.0735
 5519W        W20650  16.104  15.534   4.041  0.1016  0.3536  0.2018
 5520W        W20651  14.631  13.284   2.244 -0.2140  0.2452  0.0487
 5521W        W20652   2.742  15.166   0.768  0.2788  0.0192 -0.0674
 5522W        W20653  13.459   3.428  10.522 -0.2135  0.2753 -0.0217
 5523W        W20654  17.080   3.455   5.254  0.0686 -0.3178 -0.2745
 5524W        W20655  10.113  13.839   3.481  0.1585 -0.0599  0.3852
 5525W        W20656  15.570   8.405   6.272 -0.1072  0.1528 -0.0171
 5526W        W20657   0.545  15.269  14.611  0.1763  0.2786  0.1054
 5527W        W20658   3.155   3.648   3.421  0.0963  0.4349 -0.0884
 5528W        W20659  13.180  14.913  13.950 -0.3375  0.0434 -0.0469
 5529W        W20660   9.796  17.019  11.269  0.1031 -0.0209  0.0726
 5530W        W20661  12.369   8.768  12.067  0.0527  0.1977  0.0360
 5531W        W20662  12.308   8.137   3.038 -0.0444  0.0361  0.0075
 5532W        W20663  14.096   1.734   1.843 -0.1135  0.1629 -0.0745
 5533W        W20664  13.104  13.034   3.077 -0.2198  0.1441  0.1233
 5534W        W20665   7.784  12.960   3.464 -0.1401  0.1651 -0.1841
 5535W        W20666  11.584   3.605   3.164  0.1338  0.2430 -0.2134
 5536W        W20667   9.172   0.648  14.537  0.1349 -0.0918  0.0356
 5537W        W20668  12.881   4.586  12.907  0.0493  0.1390 -0.2166
 5538W        W20669   5.270   7.569   0.001  0.1215  0.1928 -0.1959
 5539W        W20670  13.879   9.473   3.183 -0.0173  0.2701  0.0506
 5540W        W20671  11.963   1.613   5.206 -0.1667 -0.0149 -0.1352
 5541W        W20672   9.862   3.473  15.305  0.1735  0.0120 -0.1277
 5542W        W20673   0.645   0.750  13.847  0.1513  0.2738  0.2535
 5543W        W20674  15.146   4.978  12.777  0.2183  0.2061 -0.2401
 5544W        W20675   4.662   5.946   2.732  0.2554 -0.0561 -0.3103
 5545W        W20676  14.673  16.223  11.092  0.4166 -0.2195 -0.2226
 5546W        W20677   9.518  10.530  14.335  0.4135  0.0452  0.0144
 5547W        W20678  15.782   5.336  15.866 -0.2319  0.1490 -0.0017
 5548W        W20679  14.049  17.791   0.274  0.0145 -0.0007  0.0532
 5549W        W20680  16.025   0.475   3.011 -0.0667  0.0291 -0.1493
 5550W        W20681  13.597   8.910  14.470  0.0052  0.2512  0.0606
 5551W        W20682   5.962  14.535  15.809 -0.1416 -0.1858 -0.0230
 5552W        W20683  10.259   9.418   1.257 -0.3028  0.3404  0.2258
 5553W        W20684  10.736   9.108   1.081  0.0886  0.2638  0.0403
 5554W        W20685  11.626  13.138  16.023 -0.3916 -0.2142  0.1554
 5555W        W20686   8.081  12.993  11.393  0.1852 -0.3742 -0.1616
 5556W        W20687  17.775  10.185   3.538  0.0809 -0.0399  0.0158
 5557W        W20688   1.376  12.380   3.557 -0.2277  0.0315  0.2017
 5558W        W20689   5.622  16.970   0.886 -0.0896  0.2211  0.1642
 5559W        W20690   4.493   4.316  11.760 -0.0254  0.1675  0.2891
 5560W        W20691   6.991   9.140  12.143 -0.3671 -0.0820 -0.2640
 5561W        W20692   9.855  14.550   0.867  0.1915  0.0368 -0.1427
 5562W        W20693  12.798  10.207   1.768 -0.1089  0.3046 -0.3357
 5563W        W20694   1.939  18.059  15.959 -0.1545  0.5140 -0.1380
 5564W        W20695  11.276  17.784  13.193  0.1641  0.0794 -0.0153
 5565W        W20696   8.827  16.553  15.624  0.2463 -0.1889  0.1022
 5566W        W20697   2.695   7.557  14.601 -0.1708 -0.2794 -0.1394
 5567W        W20698   1.973  10.033   2.557 -0.0338 -0.0722  0.0953
 5568W        W20699  15.257  16.654  13.653  0.1458  0.0789  0.0534
 5569W        W20700  15.274  10.545  13.763 -0.0268  0.2174  0.0887
 5570W        W20701  16.989  10.186  14.675 -0.0090  0.1017  0.1483
 5571W        W20702   8.566   6.561  10.949  0.1372  0.1121 -0.0836
 5572W        W20703  17.284   0.891   0.817  0.1654  0.1514 -0.1814
 5573W        W20704  13.355  10.519   1.993 -0.1041 -0.0088  0.1671
 5574W        W20705   2.667   1.320  13.466  0.0433 -0.4798 -0.0032
 5575W        W20706   4.734   2.183  11.588  0.1393  0.2417  0.1559
 5576W        W20707   3.864  16.738   3.140 -0.0272  0.1506 -0.0545
 5577W        W20708   7.888   0.877  16.161 -0.0997 -0.1858  0.0940
 5578W        W20709  16.185   8.795   5.511 -0.0319 -0.0505  0.2716
 5579W        W20710   8.207   7.535  13.424  0.0980 -0.1189 -0.0540
 5580W        W20711   7.714  13.925  12.391 -0.1289 -0.3160 -0.2228
 5581W        W20712  10.915   1.662  12.843  0.1804 -0.0742  0.2813
 5582W        W20713  14.908   4.114   1.282  0.1884 -0.0852 -0.3071
 5583W        W20714   9.899   9.103   3.457 -0.1754 -0.1499  0.1020
 5584W        W20715  11.395  14.972   2.719 -0.0158 -0.0321 -0.0927
 5585W        W20716  12.934   0.930   1.693 -0.0748  0.2526 -0.0444
 5586W        W20717   3.341   8.435  13.285 -0.2143 -0.0623  0.2704
 5587W        W20718  11.891   3.612  16.031  0.1558  0.1296 -0.3441
 5588W        W20719   7.555  14.324   5.484  0.0717  0.0345 -0.1777
 5589W        W20720   0.176  17.406  15.518 -0.0627 -0.1509 -0.0412
 5590W        W20721  14.735  15.041   1.352 -0.1502 -0.2333 -0.0405
 5591W        W20722  14.194   7.277  11.813  0.0882 -0.0065 -0.1679
 5592W        W20723   4.816  14.967  12.693 -0.1647  0.1603 -0.1344
 5593W        W20724  17.307   7.750  16.169 -0.0944  0.2976 -0.1433
 5594W        W20725  12.184   2.835   4.134 -0.0233 -0.1093  0.0732
 5595W        W20726  12.582   5.862  13.709 -0.1318  0.0837  0.2302
 5596W        W20727   6.747  13.773  10.434  0.2330  0.2188  0.1663
 5597W        W20728   4.689   5.384  14.544 -0.3622  0.1914  0.1574
 5598W        W20729   3.285   9.371  11.337 -0.0303 -0.0244 -0.0504
 5599W        W20730  13.060   2.886   0.275  0.0966 -0.0372 -0.0207
 5600W        W20731   6.315  17.425  11.908 -0.3440  0.0813  0.3278
 5601W        W20732  12.523   1.883   1.501 -0.0592  0.1976  0.0670
 5602W        W20733  13.354  13.236  11.378 -0.0275 -0.1596 -0.3129
 5603W        W20734  17.914  17.151   0.505  0.0935  0.0262  0.2605
 5604W        W20735  12.673  16.095   6.011  0.0483 -0.0684  0.2784
 5605W        W20736   3.539   6.231   4.955  0.0542 -0.0436  0.0186
 5606W        W20737   9.708   3.809   0.693 -0.2393 -0.1328 -0.0085
 5607W        W20738   7.027  11.123   4.386 -0.0239  0.0331 -0.1131
 5608W        W20739  18.077   3.810   0.362  0.1474 -0.1903  0.1021
 5609W        W20740   8.899  15.082  15.100 -0.1368  0.1109  0.0572
 5610W        W20741  13.373   0.661   1.586  0.4099  0.0466  0.2394
 5611W        W20742  16.117   3.305   5.498 -0.2847 -0.1199 -0.1820
 5612W        W20743   5.260   3.023   2.587  0.1491 -0.1204 -0.1117
 5613W        W20744   7.075   8.684  15.065  0.0833  0.0069 -0.0118
 5614W        W20745  17.438  15.780   0.111  0.0988  0.1368  0.1314
 5615W        W20746   9.632   9.021  11.528  0.4158 -0.1941 -0.0060
 5616W        W20747   4.253   2.060  11.457 -0.3061  0.0729 -0.0692
 5617W        W20748   8.359  10.134   5.387 -0.2112  0.5138 -0.1260
 5618W        W20749  13.994   8.278  11.337  0.3042 -0.0824  0.1890
 5619W        W20750   7.440   8.437   1.357 -0.2249 -0.0322  0.2210
 5620W        W20751  12.782   9.126   3.883  0.0395 -0.1957  0.2654
 5621W        W20752  13.815   0.120   4.599  0.2960  0.1894  0.0577
 5622W        W20753  11.206   6.411  15.899  0.0803 -0.0047 -0.1101
 5623W        W20754  15.803   0.989   3.269  0.0110 -0.1578 -0.1850
 5624W        W20755  12.691   4.663  11.789 -0.0746  0.1647  0.0465
 5625W        W20756  17.592   3.963   1.236 -0.1126  0.0169 -0.0690
 5626W        W20757  11.022  13.778   4.232  0.1763 -0.0027 -0.1282
 5627W        W20758  10.136   8.939   2.739 -0.1120  0.1516 -0.0505
 5628W        W20759   9.672   2.968  12.528  0.0983 -0.0373 -0.1287
 5629W        W20760  10.628   7.619   4.101  0.0672  0.2482  0.0434
 5630W        W20761   8.430   0.425  11.841  0.3411 -0.0746  0.1038
 5631W        W20762   5.109  13.203  11.395 -0.2379  0.6924  0.0750
 5632W        W20763   1.850   2.948   2.206  0.1415 -0.4851  0.2797
 5633W        W20764   8.770  14.495  15.594  0.0679 -0.0052 -0.1269
 5634W        W20765   1.008  12.002  14.838  0.0943  0.2796  0.0352
 5635W        W20766   3.059  13.476   3.562  0.1864 -0.0495 -0.0070
 5636W        W20767   5.135   9.895  15.844  0.2824 -0.1423 -0.0695
 5637W        W20768  14.283   4.514  11.527 -0.1062 -0.1243 -0.0478
 5638W        W20769  13.352   7.684   5.539  0.0950 -0.3130  0.0586
 5639W        W20770  11.499   1.425   5.201 -0.0097 -0.0374 -0.0793
 5640W        W20771   8.104  17.863   2.807 -0.1221 -0.2682 -0.0398
 5641W        W20772   8.602  14.707   3.117 -0.2569  0.2579  0.1778
 5642W        W20773   7.316  12.858  13.841 -0.0964  0.2145 -0.1508
 5643W        W20774   4.834   0.449   3.079 -0.0472  0.0212  0.1277
 5644W        W20775  10.842   4.451   0.875  0.0064 -0.3375  0.0072
 5645W        W20776   6.570   6.118   2.069 -0.2989  0.0862  0.0697
 5646W        W20777   4.315  13.455  13.899 -0.1421  0.0523 -0.1246
 5647W        W20778   2.074  16.260   1.410  0.0649  0.0452  0.2937
 5648W        W20779   0.486   7.206  15.180 -0.3297  0.1376 -0.1353
 5649W        W20780  17.560   6.611   0.857  0.0071 -0.2095 -0.0159
 5650W        W20781  12.393  15.021  12.696 -0.1008 -0.1320 -0.3066
 5651W        W20782   3.874   7.298   1.816  0.2847  0.2364  0.1223
 5652W        W20783   2.407   7.261  13.434  0.3400 -0.0935  0.1574
 5653W        W20784   2.938   1.014  11.687  0.0490  0.3367 -0.1148
 5654W        W20785  12.835  17.480   1.057  0.0161 -0.0960 -0.0894
 5655W        W20786   2.744   7.974  11.499  0.0534 -0.1987 -0.4658
 5656W        W20787  10.974  16.734   2.709 -0.2703  0.1139 -0.0928
 5657W        W20788  10.024   5.359  15.199 -0.3506  0.0176  0.2434
 5658W        W20789  12.365   6.163   1.146 -0.0394  0.0615  0.2819
 5659W        W20790   2.608   8.712   5.022 -0.0734  0.0099  0.0970
 5660W        W20791   8.566  17.964   1.231 -0.0526 -0.3309  0.2560
 5661W        W20792   2.916  10.817  15.341  0.1968 -0.0250  0.2502
 5662W        W20793  11.018   1.637   4.899 -0.1223 -0.0483  0.0282
 5663W        W20794   5.330  14.219  13.992 -0.2086  0.0134 -0.1861
 5664W        W20795  11.729  10.828   3.592  0.0836 -0.1881 -0.0567
 5665W        W20796  15.812   2.791  12.881  0.1174  0.0366 -0.3372
 5666W        W20797   6.940  13.288   3.987  0.0575  0.2283 -0.0163
 5667W        W20798  16.559  12.332  11.525 -0.3445 -0.2308 -0.0855
 5668W        W20799   7.653   4.079  10.977 -0.1433  0.1084 -0.1608
 5669W        W20800   1.154   6.925  11.949  0.1563 -0.2040  0.1923
 5670W        W20801   0.507   7.036   5.831 -0.2960  0.0309 -0.2122
 5671W        W20802   3.006  12.979   2.254  0.1684  0.1574  0.1956
 5672W        W20803   6.756  10.033  11.190 -0.1297 -0.2263 -0.1246
 5673W        W20804  13.040   8.781   6.034  0.1397  0.2875  0.0484
 5674W        W20805  10.196  11.074  12.326 -0.1097  0.0528  0.0390
 5675W        W20806   5.107   7.876   3.670 -0.0382  0.1067 -0.2574
 5676W        W20807  13.682  18.098   3.292  0.1063  0.4259  0.0271
 5677W        W20808   6.508   2.411  11.025  0.1392  0.0346  0.1407
 5678W        W20809  17.374  12.800   1.183 -0.0660 -0.0281  0.1252
 5679W        W20810   0.424  12.133   5.532  0.2432 -0.2413 -0.1110
 5680W        W20811   9.295  12.125   2.232 -0.1409  0.0102 -0.1672
 5681W        W20812  15.563  17.676   3.116  0.1835  0.0825  0.0396
 5682W        W20813  15.539   9.858  14.165  0.2189  0.3141  0.2081
 5683W        W20814   2.641  10.316   0.957 -0.0423  0.0309  0.0445
 5684W        W20815  16.844  13.681   3.979  0.1052 -0.1016 -0.0364
 5685W        W20816   2.407   2.883   4.964  0.2286  0.0245 -0.1865
 5686W        W20817   4.815   5.659   5.059  0.1140 -0.0073  0.1261
 5687W        W20818  12.191   8.036   0.990 -0.0238  0.1174  0.1905
 5688W        W20819  16.304  16.492  12.798  0.0662  0.0426 -0.1838
 5689W        W20820  15.497   7.859   3.781 -0.0105  0.0340  0.2728
 5690W        W20821  10.818  15.775   4.356  0.2357  0.0155 -0.0573
 5691W        W20822  13.151  15.207  15.050  0.1053  0.0219  0.1707
 5692W        W20823   1.201   7.265   4.598  0.2179 -0.2454  0.3467
 5693W        W20824  13.036  16.499  13.951  0.2171 -0.2857 -0.1179
 5694W        W20825   2.916  12.289   5.857  0.3138 -0.1673 -0.0134
 5695W        W20826  12.681  17.148   0.582  0.0980  0.1325 -0.2159
 5696W        W20827   6.828  11.566  14.938 -0.1841 -0.2190  0.1236
 5697W        W20828  11.721  12.868  15.413 -0.1520 -0.1196  0.0635
 5698W        W20829  11.188   9.381  12.108  0.2836 -0.4407  0.0867
 5699W        W20830   0.574   7.141  14.289 -0.1363 -0.0366  0.1861
 5700W        W20831   8.534   6.697  12.728 -0.1930 -0.0527 -0.0859
 5701W        W20832   0.943  10.282  14.052  0.0702  0.0717  0.3532
 5702W        W20833   0.548   9.313  13.210  0.0031 -0.2738 -0.0979
 5703W        W20834   3.301   1.373   5.388  0.3612  0.2944 -0.0659
 5704W        W20835  15.251   2.451   1.184 -0.2482  0.1289  0.1175
 5705W        W20836   1.947   1.124   5.864  0.0099  0.2614  0.1888
 5706W        W20837  10.911   2.111  10.155 -0.0656 -0.1229 -0.4189
 5707W        W20838  17.454  17.283   3.929 -0.1379  0.2038  0.1383
 5708W        W20839   8.222  16.793   4.613  0.0325 -0.0901  0.3581
 5709W        W20840  11.651   0.296   2.719 -0.0826 -0.3600 -0.0271
 5710W        W20841   0.312  13.268   3.116 -0.0290 -0.1508 -0.4151
 5711W        W20842   3.587  14.128  13.448 -0.0788  0.0299  0.0892
 5712W        W20843  16.863   2.306  10.700  0.0107  0.0125  0.0163
 5713W        W20844  17.531   6.540   6.606  0.3193 -0.1326  0.5445
 5714W        W20845   8.741   5.585   2.520  0.2115  0.1155 -0.2696
 5715W        W20846   0.101  13.726   1.289 -0.2236  0.0078 -0.1849
 5716W        W20847  17.656  13.045   4.236 -0.0292 -0.0555  0.2326
 5717W        W20848   7.900  12.919   2.688 -0.2183  0.0104 -0.1296
 5718W        W20849   9.213   5.638   2.798 -0.0667 -0.0786  0.0059
 5719W        W20850   0.420   2.309  15.852  0.0182  0.3630 -0.0995
 5720W        W20851   1.393  17.942  16.127 -0.1555 -0.0282  0.0668
 5721W        W20852   4.077   7.358   0.873  0.0510  0.0746 -0.1238
 5722W        W20853  16.813   2.901   5.700 -0.2393  0.0340  0.1938
 5723W        W20854  12.194  13.635   4.368  0.2595 -0.0523 -0.2836
 5724W        W20855   3.599  10.183   0.832  0.0654 -0.1514  0.3132
 5725W        W20856   7.533   2.564  14.001  0.2685 -0.0049 -0.1917
 5726W        W20857   2.150   6.307   3.118  0.0763  0.0524  0.1487
 5727W        W20858   5.717   4.449  15.871 -0.1711 -0.2469  0.1790
 5728W        W20859  16.705  14.887  16.219  0.0515 -0.0291 -0.0413
 5729W        W20860  16.466  12.669  11.974  0.2041 -0.0793 -0.0885
 5730W        W20861   7.340   9.238  12.452  0.0603 -0.0229  0.0667
 5731W        W20862   9.895  14.411   0.351  0.1420 -0.0904 -0.3263
 5732W        W20863   7.668   8.096   4.645 -0.0343 -0.0259 -0.2693
 5733W        W20864   7.023   8.330   1.817  0.2882  0.0826 -0.2006
 5734W        W20865   2.688   0.129  15.370 -0.1279  0.0286 -0.2012
 5735W        W20866  10.394  17.573   2.534 -0.1333  0.0013 -0.1509
 5736W        W20867  10.996  12.285  10.826  0.0889  0.2359 -0.1168
 5737W        W20868   5.437  18.044  12.925 -0.1188  0.0474  0.0389
 5738W        W20869   4.897   4.026   5.305 -0.0420  0.0231  0.1777
 5739W        W20870   4.437   4.785  12.081 -0.2154 -0.0790 -0.0078
 5740W        W20871   4.343  10.793   0.680  0.1859  0.0516 -0.0056
 5741W        W20872   1.538   3.902  14.752 -0.0769  0.0552  0.1531
 5742W        W20873  12.135  10.741  14.570 -0.0625 -0.1166 -0.1455
 5743W        W20874  11.451   8.405  15.434  0.0518 -0.6534 -0.0803
 5744W        W20875  16.385   2.355   4.929 -0.1698 -0.0080  0.0416
 5745W        W20876  18.038   3.460  14.932 -0.2008  0.0459 -0.1329
 5746W        W20877   8.574  15.786  14.366 -0.1926 -0.0520 -0.1086
 5747W        W20878  14.214  10.431  12.140 -0.0462 -0.0339 -0.0685
 5748W        W20879   3.811   7.143  16.217  0.0030 -0.2202  0.4298
 5749W        W20880  16.906  16.237  11.615  0.1453 -0.1324 -0.0991
 5750W        W20881  14.820  12.088   2.204  0.0508 -0.0700  0.0580
 5751W        W20882  12.211  18.062   0.807 -0.3562 -0.0552 -0.1605
 5752W        W20883   5.426  14.978  14.730 -0.1001 -0.2783 -0.1221
 5753W        W20884   1.837  15.915  10.474  0.0996 -0.1005 -0.0895
 5754W        W20885   0.027  15.259  12.352  0.0253  0.0774 -0.1536
 5755W        W20886  14.108  15.021  14.162  0.0464 -0.0274 -0.2869
 5756W        W20887  16.089  16.809  11.364 -0.1053 -0.0429 -0.2977
 5757W        W20888   7.991   0.104   3.706  0.1684  0.0672 -0.0167
 5758W        W20889  15.264   0.870  11.379  0.3208 -0.0349  0.1129
 5759W        W20890  17.001   4.789  12.540  0.0481  0.0952 -0.3297
 5760W        W20891   0.220  17.353   5.459  0.0093 -0.2764 -0.2484
 5761W        W20892   2.348   4.495   4.969  0.0762 -0.1500 -0.4464
 5762W        W20893  14.817  18.064   4.698  0.0776 -0.2215  0.1187
 5763W        W20894   2.740  13.794   2.816 -0.2130  0.3107 -0.0072
 5764W        W20895   5.803  10.162  14.438 -0.1214 -0.0869  0.0251
 5765W        W20896  10.782   6.304   0.149  0.1625  0.1851  0.3507
 5766W        W20897  14.948  15.223   0.831 -0.1202  0.2089  0.0067
 5767W        W20898  16.933   4.294   3.364 -0.1381  0.0741  0.0315
 5768W        W20899  11.800   7.886  14.011 -0.0474  0.1793 -0.0601
 5769W        W20900  14.649  10.529   2.633  0.0926 -0.3177 -0.0124
 5770W        W20901   3.190  13.540  12.339 -0.0238 -0.0835 -0.2435
 5771W        W20902  16.238  12.690  15.324 -0.2661  0.0290 -0.2909
 5772W        W20903  16.724   8.553  11.642  0.1336  0.2116  0.0317
 5773W        W20904   6.255  16.519   3.140 -0.0049 -0.1615 -0.0354
 5774W        W20905   0.524  16.401  13.100  0.0556  0.0087  0.0503
 5775W        W20906  14.140   5.712   2.271 -0.2005  0.0584 -0.0918
 5776W        W20907   6.976   5.233  15.826 -0.0375  0.0219 -0.1235
 5777W        W20908  16.550  10.774   2.543 -0.0482  0.3193  0.2361
 5778W        W20909   8.213   1.168   0.749  0.3110  0.1717 -0.2184
 5779W        W20910   3.742   5.649   5.846  0.0328 -0.0989 -0.2087
 5780W        W20911  12.794   0.458   3.738  0.1442  0.0761 -0.1443
 5781W        W20912  14.978   4.702   2.786 -0.0049  0.3280 -0.3691
 5782W        W20913  14.096   3.039   4.633 -0.2215  0.0143  0.1104
 5783W        W20914   9.994   2.375  11.711  0.0209 -0.0816  0.4744
 5784W        W20915  17.200  12.449  12.320  0.3061  0.0506  0.1689
 5785W        W20916   4.516   8.602   3.202 -0.0937 -0.0171 -0.0525
 5786W        W20917  15.619   6.381   4.082 -0.2265  0.1159 -0.1053
 5787W        W20918   1.594   4.080   3.513  0.0296 -0.0614  0.0928
 5788W        W20919   6.622   8.606   4.705  0.0478 -0.0794  0.1046
 5789W        W20920   9.384   9.674   0.984  0.2920 -0.0796  0.1212
 5790W        W20921  15.227  14.584  11.336 -0.4236  0.2625  0.2610
 5791W        W20922   1.059   8.453   4.872 -0.1602 -0.0356  0.1109
 5792W        W20923  14.704  10.344  15.934 -0.1070  0.0947  0.2406
 5793W        W20924  14.519   2.283   0.005 -0.1852 -0.2651  0.1711
 5794W        W20925  11.462   0.205  12.459 -0.1802  0.1892  0.1476
 5795W        W20926   7.716   9.011   4.768  0.1650  0.0315 -0.2334
 5796W        W20927  11.230   8.904  15.486 -0.0724  0.0918  0.3748
 5797W        W20928  10.862   1.682   0.067 -0.0223  0.2213  0.1469
 5798W        W20929  13.999   9.418   2.013 -0.3079  0.3333 -0.0748
 5799W        W20930  10.683   3.958   3.393  0.0236  0.1196 -0.0299
 5800W        W20931   4.778   6.683  15.801  0.1781 -0.4209 -0.3079
 5801W        W20932   9.282   8.314  13.185 -0.1701  0.2092  0.0109
 5802W        W20933   3.603   5.643   6.317 -0.0652 -0.1183 -0.1569
 5803W        W20934  12.852   5.379   4.109 -0.0207 -0.0117 -0.1559
 5804W        W20935   3.621  15.273   3.787 -0.0920  0.0786 -0.1369
 5805W        W20936   7.553   2.159  11.648  0.0618 -0.1464  0.0355
 5806W        W20937   1.436   0.521  11.092  0.3458  0.0628  0.0042
 5807W        W20938   0.038   6.203   1.884 -0.0777  0.1327 -0.0422
 5808W        W20939  11.162   2.179  14.531  0.0436 -0.0337 -0.1505
 5809W        W20940   4.188   1.598  13.632 -0.0596  0.0176  0.0262
 5810W        W20941  10.356  14.093  12.205 -0.0720 -0.0417 -0.0790
 5811W        W20942  14.187   7.551   4.238  0.2479 -0.3446 -0.1342
 5812W        W20943  12.425   8.251  11.386  0.0068 -0.1400  0.0849
 5813W        W20944   2.517  14.047   5.010 -0.0228 -0.2139 -0.1803
 5814W        W20945   8.060  11.720   4.674 -0.1408 -0.1330 -0.0131
 5815W        W20946  14.449   0.977   2.992 -0.1993 -0.0784 -0.0166
 5816W        W20947  10.304   3.493  14.979  0.0603  0.0064 -0.1116
 5817W        W20948  13.115   3.133   1.597 -0.1190 -0.1019 -0.0270
 5818W        W20949  10.707   1.236  12.938  0.2120  0.0296 -0.0854
 5819W        W20950  10.558   5.026  13.722 -0.0025  0.1799  0.1397
 5820W        W20951  10.168   3.754  11.450 -0.2947  0.0925 -0.4672
 5821W        W20952   6.586  16.376  13.470 -0.1516 -0.0784  0.3744
 5822W        W20953  14.362   5.349  13.574  0.0638  0.2510  0.1545
 5823W        W20954  18.042  13.293  13.087 -0.1721 -0.1074 -0.1166
 5824W        W20955   2.056  15.701  13.705  0.0514  0.0633  0.0393
 5825W        W20956  16.976   1.855  10.714 -0.1480  0.3710 -0.3201
 5826W        W20957  15.191   3.939  12.369 -0.2907  0.0184  0.4014
 5827W        W20958  16.809   8.259  11.224  0.1142 -0.0839 -0.0704
 5828W        W20959   3.030   3.551  13.544  0.1367  0.3577  0.0226
 5829W        W20960   9.595   6.560   3.827  0.1507  0.1343 -0.2005
 5830W        W20961  10.626  16.761  11.346 -0.0688  0.0074 -0.2085
 5831W        W20962   1.154   8.436  15.414 -0.2891  0.0757  0.1602
 5832W        W20963  16.087   7.183  13.583  0.0177 -0.0277  0.0095
 5833W        W20964   1.462   6.724   1.124  0.1598  0.1971 -0.0458
 5834W        W20965  12.154   7.488   0.682 -0.2783  0.2342  0.0632
 5835W        W20966  16.185  14.112  11.295 -0.0543 -0.0817  0.1631
 5836W        W20967  11.755   0.913  15.396 -0.1838 -0.0194  0.2277
 5837W        W20968   6.958  16.312  13.772 -0.1225  0.1029  0.1997
 5838W        W20969   4.308  15.417   0.787 -0.0732 -0.1466 -0.0987
 5839W        W20970  14.342  11.513   2.328  0.2751 -0.0393 -0.1018
 5840W        W20971   6.635   5.234   0.426  0.1138 -0.1881  0.0280
 5841W        W20972  10.243  10.077  13.124 -0.1658  0.1443  0.1706
 5842W        W20973  13.565   7.261  15.694 -0.0838  0.0532 -0.0194
 5843W        W20974  17.481  10.125   0.673 -0.2330 -0.0394  0.0774
 5844W        W20975  17.346  16.016  11.715 -0.1489  0.0794 -0.3401
 5845W        W20976   8.623   9.239   1.547 -0.2930 -0.0445  0.1762
 5846W        W20977  16.075  14.185   4.112 -0.1979  0.1298  0.1543
 5847W        W20978  11.064  11.476  15.645  0.1313 -0.2570  0.1966
 5848W        W20979  12.155  12.165  12.462 -0.1501  0.1560 -0.1430
 5849W        W20980  17.537   0.717  12.671  0.1581  0.1861  0.1534
 5850W        W20981   5.900   9.541  10.925 -0.0164  0.1205  0.0394
 5851W        W20982   9.722  16.951  12.707 -0.1123  0.0017  0.0488
 5852W        W20983   4.558   2.364   5.595  0.4164 -0.3356  0.0667
 5853W        W20984  17.747   7.103   4.935 -0.0496 -0.0056 -0.3628
 5854W        W20985   0.595   9.789   1.937 -0.2431  0.1797  0.3052
 5855W        W20986   3.492   2.605   0.404  0.1297  0.0299 -0.1087
 5856W        W20987   0.964  14.887   4.612  0.2126  0.3170 -0.2601
 5857W        W20988   9.635   2.430   0.083  0.0759  0.1559  0.0005
 5858W        W20989   7.499  13.976   1.127  0.0796 -0.2179 -0.1063
 5859W        W20990   3.827   3.375   1.617  0.0372 -0.0471  0.0245
 5860W        W20991   4.156   3.710  12.822 -0.0192 -0.0323  0.1011
 5861W        W20992   0.080  16.504  15.528 -0.2085 -0.1103 -0.0894
 5862W        W20993  13.559   3.046   1.136 -0.1124  0.0781 -0.0932
 5863W        W20994  14.678  13.380   4.690  0.3682  0.1698  0.1763
 5864W        W20995  17.414  15.878  15.355 -0.0538 -0.0810 -0.1113
 5865W        W20996   8.480   6.831   4.603 -0.0723  0.1636  0.0249
 5866W        W20997   4.265   9.995   1.272  0.1454  0.0396 -0.0609
 5867W        W20998  11.275  14.838  12.625 -0.2990 -0.0597  0.2028
 5868W        W20999   4.791  13.422  12.559  0.1073 -0.2105 -0.4408
 5869W        W21000  13.726   1.717   3.156 -0.0344 -0.0722  0.1644
 5870W        W21001   9.175  14.941   0.239 -0.2462  0.1687  0.4356
 5871W        W21002  14.121  13.156  13.403  0.3054  0.3299 -0.1396
 5872W        W21003   5.855  11.218  12.064 -0.2258  0.0781 -0.2991
 5873W        W21004  12.350  14.567   5.254 -0.2036 -0.3051 -0.3390
 5874W        W21005   1.809   7.571   3.353 -0.2880  0.1681  0.0532
 5875W        W21006   1.379  17.198   1.951  0.0712 -0.1899  0.0385
 5876W        W21007  16.050  14.016  10.805 -0.0051  0.0110  0.0306
 5877W        W21008   7.766   5.249   4.917  0.1775 -0.0813  0.1248
 5878W        W21009   9.725   8.218  14.017 -0.0594  0.1580  0.1171
 5879W        W21010  14.095  15.013  14.708 -0.0182 -0.1131 -0.1906
 5880W        W21011  15.297  16.963   3.630  0.1916 -0.0052 -0.0106
 5881W        W21012   3.243  14.924  10.389 -0.2080  0.2789  0.0289
 5882W        W21013   3.954   5.491   5.362 -0.1473  0.0593 -0.1271
 5883W        W21014  12.127   4.109   1.256 -0.0025  0.0852  0.0610
 5884W        W21015   1.359   3.506   1.186 -0.1972 -0.2935 -0.0761
 5885W        W21016   4.602  14.129   3.594  0.1232  0.4175  0.0966
 5886W        W21017   1.020  11.798  14.379 -0.1707  0.2356 -0.0533
 5887W        W21018   4.650   4.228   4.775  0.0667 -0.1263  0.0584
 5888W        W21019   0.061   7.986   0.054 -0.2181 -0.1683  0.1529
 5889W        W21020   1.062   8.021  13.102  0.4014  0.1326 -0.0662
 5890W        W21021  16.679  11.755   1.270  0.1986 -0.0830  0.1098
 5891W        W21022   7.462   5.156  13.324  0.1069  0.1530  0.2001
 5892W        W21023  13.903  15.887   0.946  0.2626 -0.0776 -0.0296
 5893W        W21024   8.031  10.160  13.409 -0.1959 -0.2348 -0.1710
 5894W        W21025   7.512  11.673  12.370  0.1592  0.2432  0.0219
 5895W        W21026  16.510  11.108  13.413  0.0484  0.1243  0.0519
 5896W        W21027   7.351  13.551  10.482 -0.1104 -0.2503 -0.0826
 5897W        W21028   1.038  11.595  13.912  0.1366  0.0447  0.0699
 5898W        W21029  11.914   6.382  15.556  0.0189 -0.0420  0.0334
 5899W        W21030   8.602  10.186  16.078 -0.1764  0.2041  0.1576
 5900W        W21031  14.015  14.825   0.960  0.0891  0.2892  0.1105
 5901W        W21032   9.944  15.823  13.476 -0.0142 -0.0403  0.1240
 5902W        W21033   5.126   3.951  13.763 -0.0122  0.0560 -0.2031
 5903W        W21034  10.049   1.181  12.923 -0.1861 -0.2834 -0.2537
 5904W        W21035  14.367  13.535  12.655 -0.0662  0.1511  0.3127
 5905W        W21036  17.565   6.721  12.218  0.4157  0.0471  0.1232
 5906W        W21037  12.051   6.486  13.516 -0.0573 -0.0358  0.0876
 5907W        W21038  10.532  11.889  10.813 -0.3068  0.1458 -0.1999
 5908W        W21039   9.488   4.428   2.547 -0.0562 -0.1337  0.0643
 5909W        W21040  14.587   1.265  11.668 -0.1013 -0.0147 -0.0094
 5910W        W21041   7.526   0.295  11.879  0.4022  0.0338  0.1109
 5911W        W21042   9.787   1.882   4.182 -0.1144  0.1308 -0.0136
 5912W        W21043   4.110   7.201  12.686 -0.1484 -0.0995 -0.0082
 5913W        W21044   8.602   8.573   3.358 -0.1355  0.2278 -0.1892
 5914W        W21045  12.259   7.639  13.998 -0.0875  0.1104  0.2482
 5915W        W21046  15.633   1.338   2.790  0.2809 -0.1378 -0.0051
 5916W        W21047  14.341   3.847  15.419  0.0770  0.1369 -0.2803
 5917W        W21048  16.723   0.173  15.566 -0.1361  0.2490  0.0282
 5918W        W21049   8.384   9.543  12.133  0.0038  0.1242 -0.1332
 5919W        W21050   6.722   4.362   3.925  0.5091 -0.0510 -0.0063
 5920W        W21051  12.520   1.418  16.017  0.1088  0.0694 -0.1745
 5921W        W21052   5.286   0.225   3.264  0.0538 -0.1129  0.1579
 5922W        W21053   4.932  12.252   2.441  0.0338  0.1035 -0.2065
 5923W        W21054   0.952  10.528   1.972 -0.0305 -0.2969 -0.1874
 5924W        W21055  13.499  15.715   4.209 -0.2155  0.0496 -0.0596
 5925W        W21056   1.201  17.010   0.284 -0.0749  0.2473  0.0386
 5926W        W21057   1.495   6.454  13.782 -0.5599  0.4107 -0.0459
 5927W        W21058   1.153  10.036  11.555  0.0348 -0.3266 -0.0133
 5928W        W21059  12.793   0.839   3.413  0.1056  0.1345  0.2901
 5929W        W21060   4.911  11.520   1.205 -0.1683  0.0130  0.1119
 5930W        W21061   7.451  17.969  14.198  0.2571 -0.3456 -0.0121
 5931W        W21062  17.624  12.268   6.047 -0.3309 -0.0532 -0.3367
 5932W        W21063  16.251   5.235  12.685  0.1698 -0.3091  0.2470
 5933W        W21064   3.980   2.240   2.596 -0.3128 -0.0742  0.0444
 5934W        W21065   7.946  16.499   5.006  0.3522  0.3139  0.0799
 5935W        W21066   6.030   6.801  12.441  0.3400 -0.1745 -0.2062
 5936W        W21067   7.888   8.667   0.053 -0.2411  0.1044  0.1154
 5937W        W21068  15.443   6.234  13.650 -0.0808  0.1496 -0.0139
 5938W        W21069   1.072   5.739   5.961  0.3104  0.0526 -0.0393
 5939W        W21070   3.886  10.808   3.709 -0.2242 -0.0713 -0.1033
 5940W        W21071  14.195   7.939   6.024  0.1867  0.3001 -0.1335
 5941W        W21072   9.141   5.267   4.868 -0.0312 -0.2476  0.2875
 5942W        W21073   7.111   6.278   4.345 -0.0021 -0.2296  0.0874
 5943W        W21074   8.282  11.357  11.801  0.3368 -0.1147 -0.0678
 5944W        W21075  11.141   7.816   1.783 -0.1184  0.0432 -0.0503
 5945W        W21076   9.659  14.985   2.936 -0.0537 -0.1828 -0.0527
 5946W        W21077   7.696   2.951   3.637  0.3463 -0.2973 -0.0480
 5947W        W21078   8.460   5.887   3.892 -0.0254 -0.0457  0.0315
 5948W        W21079  10.472   1.512   2.252  0.0132  0.2003 -0.1093
 5949W        W21080  16.460   9.522   0.386 -0.0877  0.0185  0.0312
 5950W        W21081  14.552   1.638  11.206 -0.2239  0.1683  0.3100
 5951W        W21082   9.543  14.453  11.785  0.1251 -0.0326  0.3250
 5952W        W21083   9.183  10.342  15.190  0.0764  0.0222 -0.0199
 5953W        W21084  16.908   8.639  12.534 -0.1070 -0.2741 -0.0671
 5954W        W21085   9.506   6.844   4.794  0.1016 -0.0484 -0.1538
 5955W        W21086  13.088  17.893   4.167 -0.2867  0.1154 -0.0361
 5956W        W21087  15.448  16.127  16.044  0.0424  0.0687  0.1036
 5957W        W21088  15.720  12.628   3.509  0.0137  0.2499  0.3078
 5958W        W21089   1.138  12.580   5.595 -0.3555  0.0859  0.0854
 5959W        W21090  12.517   8.986   1.511 -0.0691 -0.3036 -0.1118
 5960W        W21091   2.579  14.140  11.971  0.1105 -0.2257  0.3399
 5961W        W21092  17.847   5.246   1.848  0.0982  0.1237  0.0194
 5962W        W21093  17.275  17.498  14.536 -0.0990 -0.2967  0.0499
 5963W        W21094   4.823   0.125  15.022 -0.0673  0.0143  0.0657
 5964W        W21095   4.087  10.185   2.696  0.2328  0.0203 -0.0346
 5965W        W21096   5.617  10.165  15.919  0.0001 -0.1077  0.3206
 5966W        W21097  16.200   6.868   4.563  0.0212  0.1184  0.1541
 5967W        W21098   2.923   3.187   2.754  0.1015  0.2194 -0.1390
 5968W        W21099  12.554   3.043  13.797  0.0708  0.2917  0.0808
 5969W        W21100   1.892   3.310  11.907  0.1562 -0.0842 -0.2225
 5970W        W21101  14.489   6.143  13.026 -0.1646 -0.1937  0.0069
 5971W        W21102  16.449   5.301   0.167  0.2756 -0.0945  0.0399
 5972W        W21103  13.446  10.151   4.935  0.0203  0.5170  0.2232
 5973W        W21104   5.711   3.392   1.814 -0.0523 -0.2813  0.1783
 5974W        W21105   2.128  17.677  10.543 -0.1641 -0.2895 -0.0608
 5975W        W21106   8.046  13.346   4.258  0.1034  0.0482 -0.3205
 5976W        W21107  11.772   3.075  13.091 -0.0605  0.0914  0.0328
 5977W        W21108   6.895   8.128   5.520 -0.1053 -0.0415  0.2717
 5978W        W21109   8.971  15.815  14.666 -0.0806  0.0876 -0.3101
 5979W        W21110  14.712   6.222   3.739  0.0437  0.0769 -0.1003
 5980W        W21111  16.841  13.862  15.947 -0.0924  0.0001 -0.0738
 5981W        W21112  15.375  15.766  13.836 -0.0573 -0.1721  0.1241
 5982W        W21113   9.269   0.159  15.523  0.3037  0.1326 -0.3683
 5983W        W21114  17.568  17.639  13.778 -0.0653 -0.0287  0.1582
 5984W        W21115   4.796   3.462  13.915  0.2703 -0.3317 -0.3280
 5985W        W21116   0.413  16.009   1.444 -0.2930 -0.4478 -0.1229
 5986W        W21117   7.089  14.398   5.164  0.0292  0.0510 -0.2391
 5987W        W21118  14.248  13.893   2.927 -0.3970 -0.2787 -0.0044
 5988W        W21119   7.478   9.615   0.973 -0.1014  0.1749 -0.0616
 5989W        W21120  10.621  10.663  15.343  0.0646 -0.1065  0.0069
 5990W        W21121   6.370  11.805  14.813  0.0912 -0.2979 -0.1372
 5991W        W21122  16.336  14.504  11.631 -0.5560 -0.0342 -0.1800
 5992W        W21123   5.205   6.886  15.385 -0.1154  0.0501 -0.1805
 5993W        W21124  11.231   9.979  15.484 -0.0050 -0.1046  0.0117
 5994W        W21125   5.380  12.508  13.801 -0.2367  0.3115 -0.0007
 5995W        W21126   3.755  13.799   4.092  0.4183 -0.3749  0.4685
 5996W        W21127  17.729  16.106  11.030 -0.2813  0.3490  0.1518
 5997W        W21128  15.536   5.772  16.001  0.0102 -0.2989 -0.0316
 5998W        W21129   9.496  11.640   5.702  0.0664  0.0282 -0.1938
 5999W        W21130  12.462   6.194  13.333  0.1084 -0.4119 -0.0988
 6000W        W21131  13.340  16.178   0.303 -0.1115 -0.3183 -0.0060
 6001W        W21132   5.664   3.538  12.871  0.2432 -0.0973 -0.2490
 6002W        W21133  16.896   7.132  15.414 -0.0461 -0.0936 -0.2934
 6003W        W21134  16.479   0.751  12.760 -0.1282  0.2890  0.0013
 6004W        W21135   7.010   5.225   4.407 -0.1385  0.1439  0.1369
 6005W        W21136   8.796  14.908  14.637  0.0346  0.0513 -0.3782
 6006W        W21137  16.905  17.436   1.709 -0.3567  0.1789 -0.1176
 6007W        W21138  10.785  12.668   4.851 -0.1245  0.1117 -0.1735
 6008W        W21139   5.654   6.191  13.732  0.0138  0.0847  0.2039
 6009W        W21140   5.267  16.020   2.305  0.1004  0.0547 -0.2293
 6010W        W21141  13.534  16.362  13.234 -0.1107 -0.1984 -0.1554
 6011W        W21142  11.193   9.010   1.150 -0.2787  0.0090  0.1049
 6012W        W21143   9.036   6.907  13.998  0.1970  0.0470  0.0543
 6013W        W21144  13.150  10.589   2.538 -0.0600 -0.1420  0.2064
 6014W        W21145  11.406  13.704   4.559 -0.2009 -0.2429  0.0066
 6015W        W21146   0.508  11.340  13.935  0.0521  0.2127 -0.0045
 6016W        W21147   8.330   9.200  14.672 -0.0139 -0.2023  0.2650
 6017W        W21148   3.546   9.372   1.666 -0.2036 -0.0078  0.0339
 6018W        W21149   4.256  16.222  16.002 -0.0280 -0.1203 -0.1951
 6019W        W21150  10.869  16.656  12.479 -0.0055 -0.4057 -0.0042
 6020W        W21151   9.696  13.676  12.369  0.1100  0.0063 -0.0512
 6021W        W21152  10.996   1.627  10.376  0.0045  0.4600  0.1516
 6022W        W21153   6.657   5.084   3.150  0.2212  0.1684 -0.0633
 6023W        W21154  16.621   0.634  15.178  0.4064  0.1986  0.2750
 6024W        W21155   8.316   6.845  13.195  0.2689  0.1093  0.2333
 6025W        W21156   8.344   1.088   5.073  0.0725  0.1553 -0.3504
 6026W        W21157   0.197  15.749  16.026  0.0927  0.0533  0.2957
 6027W        W21158   3.713   4.356  12.924  0.1273 -0.1412  0.0823
 6028W        W21159  15.636   7.430   2.564 -0.0573  0.0247 -0.2426
 6029W        W21160   0.727  10.419  11.751 -0.0775  0.2770 -0.0055
 6030W        W21161   9.016   0.559   1.052 -0.1446 -0.0286 -0.2525
 6031W        W21162  15.265   6.529   1.537  0.0390  0.1704 -0.0449
 6032W        W21163   6.105   1.427  13.249  0.2304 -0.2635  0.0008
 6033W        W21164  12.352   1.714  14.019  0.1177 -0.0038  0.0113
 6034W        W21165   0.579  13.288  15.398  0.1173 -0.1027  0.0077
 6035W        W21166  15.713  12.955   4.350 -0.1565  0.0715 -0.1705
 6036W        W21167   1.186   7.200  12.723 -0.3014 -0.5627  0.1810
 6037W        W21168   1.503   9.359  13.584 -0.0049 -0.1436 -0.1645
 6038W        W21169  14.202  16.629  13.981  0.2766 -0.0145  0.0309
 6039W        W21170   6.580  11.856   2.175 -0.1573 -0.1215  0.1727
 6040W        W21171  15.035   8.946  15.720  0.1363 -0.0462 -0.0560
 6041W        W21172  16.463  16.612   3.250  0.0132 -0.1086  0.0446
 6042W        W21173   7.424   2.171  14.330  0.3429  0.0308  0.2181
 6043W        W21174  14.658  16.833  13.091 -0.4331 -0.2569  0.0783
 6044W        W21175   3.950   2.427  13.344  0.0333 -0.1116 -0.0448
 6045W        W21176   4.524  15.822  11.954  0.1044  0.0565  0.1821
 6046W        W21177  12.200  14.405  13.490  0.4184  0.2224  0.1345
 6047W        W21178   7.999   5.487   0.502  0.0283 -0.0933  0.3323
 6048W        W21179   2.161   1.461  12.558 -0.2427 -0.2994  0.0648
 6049W        W21180   2.463   6.986  12.923 -0.1919  0.1862  0.1276
 6050W        W21181   9.838   2.358   2.745 -0.1285  0.0493 -0.0871
 6051W        W21182   9.886   4.386  12.834  0.1061  0.1586 -0.1327
 6052W        W21183   7.983   3.424   1.766 -0.0475  0.0152  0.1169
 6053W        W21184  10.786  13.227  11.026  0.2044 -0.0555 -0.1279
 6054W        W21185  16.301   9.755  12.924  0.0890 -0.0376 -0.0960
 6055W        W21186  10.608  13.870   0.267  0.0521  0.3365  0.1330
 6056W        W21187   0.729  15.172  12.960  0.0449  0.0647 -0.0754
 6057W        W21188  17.195  17.151   1.230  0.1521 -0.3671  0.0598
 6058W        W21189   0.045  16.398   4.516  0.0870  0.1711  0.0881
 6059W        W21190   2.293  16.314   4.507 -0.3042  0.3662 -0.0544
 6060W        W21191   5.692   3.380   4.438  0.1859  0.0835  0.4030
 6061W        W21192   5.440  18.002  11.176  0.0248 -0.2812 -0.3990
 6062W        W21193   5.893   5.330  16.129 -0.0002 -0.2224  0.2172
 6063W        W21194   2.080   6.346   0.142 -0.2105  0.0971  0.5347
 6064W        W21195   3.282   6.864  12.943  0.0680  0.0566  0.1276
 6065W        W21196   0.719   4.353   0.751  0.0396 -0.1308  0.0543
 6066W        W21197   0.327  11.478   1.924 -0.1294  0.0271  0.1101
 6067W        W21198   7.591   5.472   1.313  0.0700  0.4085 -0.1160
 6068W        W21199   8.137  10.537   1.550  0.0554  0.2787  0.3452
 6069W        W21200  10.471   1.485  12.013 -0.0567  0.0451  0.0672
 6070W        W21201  15.942   1.379  13.096  0.0372  0.1754  0.1070
 6071W        W21202   9.721  14.864   5.357 -0.0807 -0.1445  0.1998
 6072W        W21203  12.249  14.029  13.818 -0.0425 -0.2934 -0.0096
 6073W        W21204  12.461   7.701  15.396  0.1747 -0.1372 -0.1368
 6074W        W21205  17.389   1.672  14.277 -0.0927  0.1247 -0.1493
 6075W        W21206   0.007   8.246   2.867  0.0659 -0.1941  0.0478
 6076W        W21207   5.837   5.855   3.886 -0.1333  0.0375 -0.0249
 6077W        W21208  10.891   5.093   5.129 -0.2644  0.1070 -0.2259
 6078W        W21209   3.982   3.653  15.256 -0.2043 -0.0470 -0.1486
 6079W        W21210   8.928   2.711   2.774 -0.1362  0.3354 -0.1616
 6080W        W21211  14.220   0.212  11.376  0.2387  0.3230 -0.0114
 6081W        W21212   6.217   6.865  14.038 -0.1920 -0.2848  0.1145
 6082W        W21213   3.477   7.117   3.620  0.0127 -0.2586 -0.1379
 6083W        W21214   4.329   5.275  11.381 -0.0342 -0.2216  0.2844
 6084W        W21215   6.623   1.113   2.451 -0.0247 -0.0803 -0.4398
 6085W        W21216   5.433  10.619   1.476 -0.0058  0.3151 -0.1130
 6086W        W21217   4.222   0.907  13.886  0.0371 -0.2236  0.0811
 6087W        W21218   6.982   3.432  12.868  0.3421 -0.0003 -0.0209
 6088W        W21219   8.933  12.845   2.740 -0.1241  0.1764 -0.0609
 6089W        W21220   0.320   2.917   0.722 -0.3604 -0.2071  0.0256
 6090W        W21221   8.025   3.616   3.885 -0.0435  0.3209  0.0719
 6091W        W21222  15.342   6.767  14.131  0.1176 -0.0303  0.0740
 6092W        W21223   2.953   7.475   2.798 -0.0077  0.1208  0.1843
 6093W        W21224   5.805   1.337   5.029  0.0431  0.1623 -0.0749
 6094W        W21225   3.755   2.381   3.668  0.1788  0.1819  0.4640
 6095W        W21226   5.966  16.109  14.835 -0.1830 -0.3317  0.3440
 6096W        W21227   3.774   4.411  12.345  0.0522 -0.1093  0.0208
 6097W        W21228  11.724  12.620  10.622  0.0637  0.3945 -0.0463
 6098W        W21229   3.759  10.387  12.462  0.0902  0.1412 -0.2375
 6099W        W21230  14.372  12.147   5.583  0.0045  0.1744  0.0073
 6100W        W21231   5.713  12.228   3.722 -0.0592  0.1625 -0.0651
 6101W        W21232  11.954   0.584  15.760  0.1612  0.2040  0.1086
 6102W        W21233   9.405  11.236  13.924  0.0047  0.2478  0.1714
 6103W        W21234  13.142  12.608   2.898  0.0840  0.1161 -0.0827
 6104W        W21235   9.151  14.141  13.736  0.1381  0.1355 -0.0023
 6105W        W21236  12.086  11.579   3.013  0.2078  0.1626  0.0998
 6106W        W21237   6.300   0.901  13.571 -0.0560 -0.1655  0.0124
 6107W        W21238   7.589   9.877   1.395  0.2015 -0.3738 -0.0651
 6108W        W21239   3.596  11.681  13.226  0.1277  0.0949 -0.0991
 6109W        W21240  18.048   9.202   4.405 -0.0186 -0.2604 -0.0768
 6110W        W21241   6.275   2.817  11.321 -0.2338  0.1157 -0.0329
 6111W        W21242  13.681  14.698  15.896 -0.0393 -0.1349  0.0804
 6112W        W21243  16.234  13.473   4.563 -0.1207 -0.1769  0.0315
 6113W        W21244   5.263   8.415   5.383  0.3240 -0.1841  0.1942
 6114W        W21245   7.007  11.299   0.355 -0.0469  0.0188 -0.2594
 6115W        W21246   1.596   2.237   3.818 -0.0575  0.0570  0.1169
 6116W        W21247  11.260   1.585  13.198  0.2475 -0.0148  0.5340
 6117W        W21248  10.244  10.066   0.923  0.0377  0.1786  0.4170
 6118W        W21249   2.679   5.446  13.553  0.0227 -0.1354  0.0206
 6119W        W21250   4.346   2.735  13.336 -0.3577  0.0646 -0.2250
 6120W        W21251   9.402  14.538   2.265 -0.2881  0.5519 -0.0881
 6121W        W21252   4.697  13.736   2.789 -0.2058  0.0941 -0.0680
 6122W        W21253   4.381  17.308   4.218 -0.1510 -0.4703  0.2579
 6123W        W21254   7.851  17.587   4.348  0.0652  0.0865  0.3412
 6124W        W21255   1.332   1.054   2.120  0.4626  0.0143 -0.3008
 6125W        W21256  10.005  13.687   2.958  0.3064 -0.3315  0.6172
 6126W        W21257   8.234  13.266  14.890 -0.0415 -0.0404 -0.1254
 6127W        W21258   7.097  14.898   5.325  0.4695  0.1174  0.0227
 6128W        W21259   0.924  15.638   3.032 -0.5108  0.1964  0.3140
 6129W        W21260   3.599  15.605  12.063  0.0437  0.0923  0.0933
 6130W        W21261   4.261   4.927   0.235 -0.0657  0.5839  0.1021
 6131W        W21262   2.655   3.787   5.912 -0.0729  0.2071  0.0856
 6132W        W21263  17.355  10.440   4.670 -0.2839 -0.0545  0.0620
 6133W        W21264   4.070  14.024   2.890 -0.2120 -0.2365 -0.1502
 6134W        W21265  12.689   2.621   3.250 -0.1409  0.2533 -0.3365
 6135W        W21266   3.909  10.912  13.510  0.0227  0.2693 -0.1463
 6136W        W21267   7.900  10.525  11.891 -0.1959 -0.0472  0.0869
 6137W        W21268   2.077   0.046  15.374 -0.0705  0.0188  0.0733
 6138W        W21269  10.724   7.804  11.768 -0.0183 -0.1840 -0.2188
 6139W        W21270  17.922   9.795   4.455  0.0693 -0.0724 -0.1185
 6140W        W21271   4.000  12.008  12.647 -0.2540 -0.1208  0.0357
 6141W        W21272  10.903  15.162   2.992  0.3648  0.1706  0.0514
 6142W        W21273   3.353   1.158   4.938  0.1061  0.2338 -0.1498
 6143W        W21274   0.727  14.143  16.051  0.1215 -0.1583 -0.1080
 6144W        W21275  14.340   0.144   4.860  0.0785 -0.3324 -0.0691
 6145W        W21276   6.635   5.432   5.630 -0.1808  0.1151 -0.2321
 6146W        W21277  13.300  13.895   4.823 -0.3631 -0.0220 -0.0651
 6147W        W21278  14.362   1.939   4.941  0.0247 -0.4511 -0.0068
 6148W        W21279   4.149  16.947   3.546 -0.0583  0.1385  0.1271
 6149W        W21280  16.757   3.776  15.039 -0.0384 -0.0108  0.1677
 6150W        W21281   1.266  15.335  15.889  0.0711  0.0344  0.2541
 6151W        W21282  15.107   6.655  13.315 -0.1102 -0.1202 -0.5553
 6152W        W21283   6.835  11.763   0.321  0.3630  0.2362  0.1302
 6153W        W21284  17.535   1.628   3.050 -0.0435 -0.1023  0.0897
 6154W        W21285   2.772   5.840  15.339 -0.1784  0.0820  0.2354
 6155W        W21286   5.510  15.160   1.207  0.1537 -0.1973  0.1287
 6156W        W21287  16.243  16.905  10.476 -0.1278  0.0082  0.3056
 6157W        W21288  16.503  16.510   5.431  0.0680  0.2229 -0.0475
 6158W        W21289   3.183  16.208  10.583  0.0357  0.0397 -0.1087
 6159W        W21290  17.349  13.101   3.617  0.5184 -0.0711  0.2436
 6160W        W21291   0.024  16.101  15.773  0.0090 -0.0986 -0.1360
 6161W        W21292  17.421   9.858   0.244 -0.1991  0.0598 -0.4644
 6162W        W21293  11.439  16.029   1.463 -0.0728  0.3473 -0.0156
 6163W        W21294  14.156  11.200  12.575  0.2116  0.0364  0.2166
 6164W        W21295  14.651  17.184  10.833  0.1271  0.0659  0.0801
 6165W        W21296   5.814   8.604   2.631  0.1981  0.0027  0.1163
 6166W        W21297  16.182   6.878  13.989  0.1118 -0.2136 -0.4140
 6167W        W21298   2.768   2.714  11.614  0.3281  0.2086 -0.1243
 6168W        W21299  17.680   2.217   2.946 -0.0370 -0.1919 -0.3733
 6169W        W21300   2.339  11.671   4.829 -0.0693  0.2625  0.1425
 6170W        W21301  17.310   6.914   3.508 -0.1351  0.1368 -0.2692
 6171W        W21302   8.404  16.934   1.055  0.1234 -0.2957 -0.1432
 6172W        W21303  14.088  10.728   0.842  0.0876  0.0341  0.0238
 6173W        W21304  10.404  14.758   4.935  0.2071 -0.2916 -0.0649
 6174W        W21305   4.323   4.176   3.591  0.3017  0.1005  0.2388
 6175W        W21306   0.988   3.912  15.860  0.0203 -0.1573  0.1115
 6176W        W21307   8.000  11.577   4.160  0.3666  0.0019 -0.3850
 6177W        W21308   3.777   7.913  14.538 -0.0284  0.0278 -0.1077
 6178W        W21309  16.942   5.222   1.354  0.1096  0.2063 -0.0313
 6179W        W21310   8.103   0.617   4.312  0.0000  0.0126 -0.2256
 6180W        W21311  17.643   2.806   4.959 -0.2690 -0.0836  0.0207
 6181W        W21312   3.229   3.983   3.076 -0.2278 -0.5164  0.2549
 6182W        W21313  13.441   1.522   5.160  0.0702 -0.2398 -0.0317
 6183W        W21314   1.391   9.030  13.212 -0.3362  0.1200  0.3239
 6184W        W21315  12.690   0.995  16.247 -0.1599  0.0604 -0.0394
 6185W        W21316   2.500   6.511  10.853 -0.2683 -0.0355  0.0091
 6186W        W21317  13.587  15.128   2.568 -0.1396  0.1830  0.0002
 6187W        W21318   5.135  15.825   0.579 -0.2523  0.1041  0.0702
 6188W        W21319   2.244  14.756   1.576 -0.0738  0.2898  0.0321
 6189W        W21320  16.380   9.891   4.022 -0.1150 -0.1249  0.0537
 6190W        W21321   4.720  11.390   4.850 -0.0392 -0.2866 -0.2066
 6191W        W21322   1.699   9.749   4.186 -0.1942 -0.1375  0.0625
 6192W        W21323  10.173   8.300   0.965 -0.1330 -0.0279  0.2643
 6193W        W21324   8.353  15.221  11.400  0.1921 -0.0440  0.1084
 6194W        W21325  15.372   3.543   2.087 -0.2801  0.0117 -0.1975
 6195W        W21326  17.832   4.705   5.111 -0.0343  0.0326 -0.1335
 6196W        W21327  13.482   8.270   0.810 -0.0699  0.3316  0.1060
 6197W        W21328  11.125   3.365  12.486 -0.0496 -0.1955 -0.2789
 6198W        W21329  11.537   8.615   1.117 -0.1131  0.1235 -0.1613
 6199W        W21330   7.468   8.717  11.173 -0.1330 -0.4496 -0.0664
 6200W        W21331   4.444   2.072   4.674  0.0085 -0.0001 -0.2445
 6201W        W21332   5.902   5.783   4.366 -0.1750 -0.0685 -0.0435
 6202W        W21333   6.401  14.519  12.040 -0.3482  0.0370  0.2277
 6203W        W21334  15.908  11.459   6.252  0.2623  0.1115  0.0836
 6204W        W21335  15.772   5.618   2.578 -0.0865 -0.0155 -0.3703
 6205W        W21336   5.396   7.210   5.923  0.5730  0.0911  0.1359
 6206W        W21337   1.778  12.678   4.710  0.0758  0.0917  0.3491
 6207W        W21338  17.900   0.833   2.617  0.0180  0.0642 -0.2960
 6208W        W21339  13.310  16.152  13.662  0.0854 -0.0078  0.0530
 6209W        W21340   5.184  13.978   2.961  0.1431  0.1115  0.2155
 6210W        W21341   8.884   0.800  14.922 -0.3075  0.3742 -0.0190
 6211W        W21342  17.914   9.205   0.776 -0.1675 -0.0748  0.1557
 6212W        W21343   8.154  15.211  15.862 -0.0944  0.2472  0.2816
 6213W        W21344   6.174   9.031   2.678 -0.0089  0.1311  0.1793
 6214W        W21345   0.339   5.393   1.963 -0.0681 -0.0154 -0.0104
 6215W        W21346  10.959   4.698  15.308  0.1038  0.0581 -0.0909
 6216W        W21347  15.575   6.712  15.676 -0.0875 -0.3365  0.0409
 6217W        W21348   5.153   1.630  14.192 -0.1031 -0.0717 -0.2272
 6218W        W21349   9.860  14.540   2.506 -0.0770  0.0657  0.2588
 6219W        W21350  11.360   0.895   1.137 -0.1383 -0.2656 -0.1040
 6220W        W21351   4.425   1.051   4.880 -0.1089 -0.3349  0.1113
 6221W        W21352  10.472  15.435   1.060  0.5131  0.0743  0.0146
 6222W        W21353   7.420   4.512   2.835 -0.0139 -0.4106  0.0367
 6223W        W21354   6.339   6.163  14.327  0.1075 -0.3232  0.2029
 6224W        W21355  12.298   5.887  12.882  0.1357  0.0143  0.0628
 6225W        W21356  14.500   3.223   5.186  0.2388 -0.0720  0.1628
 6226W        W21357   2.741   0.169   3.620 -0.1831  0.0487 -0.0835
 6227W        W21358  15.713   3.914   3.004  0.0808 -0.0771  0.0273
 6228W        W21359  17.284   6.464   2.144  0.3174  0.0666 -0.2580
 6229W        W21360  15.130   9.253   4.165  0.0988 -0.1465  0.0872
 6230W        W21361  17.604  12.862  16.139  0.1889 -0.0694  0.2109
 6231W        W21362   6.594   1.871   2.630 -0.0673 -0.0311  0.2461
 6232W        W21363  17.986   8.200   1.693  0.0115 -0.0415 -0.0051
 6233W        W21364   7.766  12.112   0.008  0.4266  0.1518  0.2295
 6234W        W21365   5.898  11.925  13.247  0.0965  0.1227  0.1281
 6235W        W21366  12.676  12.443   2.709  0.0744 -0.2860 -0.1118
 6236W        W21367  15.350  15.150   4.367 -0.2187  0.3694 -0.3487
 6237W        W21368  11.605  12.343  14.945  0.1466 -0.2197  0.1510
 6238W        W21369   0.217  13.065  14.122 -0.0279 -0.0809  0.1366
 6239W        W21370  14.362  11.723  13.581 -0.1826  0.1772  0.1569
 6240W        W21371   8.305   0.302   4.038  0.1803 -0.0120 -0.0152
 6241W        W21372  14.007   3.864   5.257 -0.0270 -0.0098  0.4574
 6242W        W21373   6.565   2.221  12.474 -0.1700  0.0076  0.4388
 6243W        W21374  16.939   2.806   2.029 -0.2696  0.1306 -0.1242
 6244W        W21375   4.341   5.824  14.890 -0.0747  0.1248  0.1034
 6245W        W21376  16.780   4.186  12.608  0.1026 -0.3279  0.1414
 6246W        W21377  17.855  16.117  12.932 -0.0678  0.0204 -0.0338
 6247W        W21378   7.716   5.371   1.930  0.3502  0.0418  0.3988
 6248W        W21379   6.026  16.179  16.008  0.0644  0.0962 -0.3238
 6249W        W21380   1.285  13.463  14.577 -0.1917 -0.1065 -0.1396
 6250W        W21381  13.753   8.228   1.241 -0.1730  0.0676 -0.1782
 6251W        W21382   0.903   9.186   0.984 -0.3225 -0.3109 -0.1722
 6252W        W21383  11.557  10.014  14.638 -0.0026  0.2238 -0.2814
 6253W        W21384  17.574  16.179   1.205  0.2750 -0.1514 -0.0581
 6254W        W21385   0.042   1.761  11.261  0.0761 -0.1639  0.1380
 6255W        W21386  17.078   3.837   5.604 -0.1092 -0.0374 -0.3787
 6256W        W21387   5.961  11.611  15.120 -0.2756 -0.1204 -0.1723
 6257W        W21388   3.863  15.498  14.132  0.0548 -0.0217 -0.3476
 6258W        W21389  15.863   6.031  12.806 -0.0426 -0.0094 -0.0214
 6259W        W21390  10.686   4.952   3.671 -0.0959  0.0184 -0.0181
 6260W        W21391   2.423  10.517  13.124  0.0940  0.0301 -0.0223
 6261W        W21392  15.100  12.391   2.410 -0.0795  0.0158  0.1070
 6262W        W21393   0.691  14.126   4.947 -0.3218  0.0982  0.0771
 6263W        W21394  14.003  11.078  15.148  0.0438  0.1157 -0.2623
 6264W        W21395   5.539  11.137  14.891  0.1547  0.0890 -0.1685
 6265W        W21396  11.956  11.818  10.715  0.3721 -0.1775 -0.0617
 6266W        W21397   9.846   3.020   0.965  0.0111  0.0424  0.0089
 6267W        W21398   7.288   2.604  13.121  0.1519 -0.2139 -0.1645
 6268W        W21399  17.854   4.849   2.207  0.0990 -0.1278  0.1881
 6269W        W21400   1.613   8.201  12.798  0.0187  0.0993  0.0377
 6270W        W21401  12.838   4.792  13.383 -0.1831 -0.0444  0.0509
 6271W        W21402   2.992  10.261   2.481 -0.3166 -0.1596 -0.0757
 6272W        W21403   0.096   6.582  12.746  0.0365  0.0327  0.0846
 6273W        W21404   6.803  16.558   5.184 -0.2063 -0.2527 -0.1096
 6274W        W21405  17.885  16.899  15.524  0.0798  0.3102 -0.0795
 6275W        W21406  17.578   3.865   5.326  0.0834 -0.3084 -0.1961
 6276W        W21407   4.355   8.227   4.356 -0.2835  0.3940 -0.0830
 6277W        W21408   1.682   1.490   5.060 -0.2330 -0.1087 -0.0906
 6278W        W21409   3.514  17.279  10.939 -0.0679  0.0843 -0.0441
 6279W        W21410  13.702   6.061   1.845 -0.1749 -0.0063  0.0001
 6280W        W21411  12.655   9.875  12.473  0.3086 -0.1059  0.1003
 6281W        W21412  17.366   9.583   4.046  0.2095  0.0369 -0.1176
 6282W        W21413  17.408  11.066  11.915 -0.0460 -0.1464 -0.1113
 6283W        W21414  17.294  14.856   4.295  0.1845 -0.3169 -0.2501
 6284W        W21415   7.081   9.721   1.333 -0.1304  0.2863  0.0792
 6285W        W21416   5.064   0.226  11.247 -0.0935 -0.2090  0.1005
 6286W        W21417   3.791  11.300   4.935 -0.2217  0.0984 -0.1066
 6287W        W21418  15.970   5.844   3.570  0.0503 -0.1570  0.2139
 6288W        W21419  10.133  15.048  12.668 -0.0311 -0.1966 -0.0619
 6289W        W21420   2.545   0.864  14.257 -0.2018 -0.0225 -0.1142
 6290W        W21421  17.128   9.691  11.807 -0.0740 -0.1340  0.0821
 6291W        W21422  13.209  12.837  14.910  0.0432 -0.1383  0.1339
 6292W        W21423  12.240   1.158   2.804 -0.0733 -0.1358  0.0192
 6293W        W21424   2.289   4.582   1.813  0.4278 -0.1655 -0.0583
 6294W        W21425   8.395  10.033   2.685  0.1186 -0.2500  0.0873
 6295W        W21426  10.031  14.029   4.334  0.0441  0.0545  0.1272
 6296W        W21427   1.116  10.602  10.895  0.1867  0.0572 -0.1020
 6297W        W21428  11.944   2.459   1.313 -0.2087  0.0559 -0.3097
 6298W        W21429  17.965   8.473   1.242  0.1086 -0.0654  0.3786
 6299W        W21430  12.795  14.809   2.203  0.2308  0.4500 -0.3539
 6300W        W21431   5.988  10.893   3.323  0.1156 -0.0747  0.0900
 6301W        W21432   0.123   1.326  11.533 -0.2557  0.2390  0.1187
 6302W        W21433  12.656   0.149   3.384  0.2218 -0.0242 -0.1772
 6303W        W21434   3.606   3.442   3.459  0.0823  0.1112  0.1056
 6304W        W21435   3.047  10.188  14.402  0.0012 -0.1554  0.2587
 6305W        W21436  17.297   7.437   3.638 -0.0810  0.2547 -0.0463
 6306W        W21437   9.930   9.442   0.328  0.2465 -0.0323  0.0925
 6307W        W21438   8.672   3.891  15.567  0.0439 -0.2256 -0.2340
 6308W        W21439   3.963  18.086  12.340  0.1814  0.0320 -0.1154
 6309W        W21440  17.315  14.180  16.130  0.0119  0.3008 -0.0124
 6310W        W21441  12.451  13.468   2.635 -0.1495  0.2159  0.1397
 6311W        W21442   0.946   0.916   1.299 -0.1497  0.3879 -0.1623
 6312W        W21443  15.182  15.143   2.693 -0.0077 -0.0332 -0.3595
 6313W        W21444   6.509   1.663   5.470 -0.2734 -0.1624 -0.1785
 6314W        W21445  16.490  15.426   3.108 -0.0181  0.1411 -0.2514
 6315W        W21446   3.033  16.199  14.200 -0.3096 -0.0965  0.1056
 6316W        W21447  13.114  15.971  10.103  0.0550  0.1940 -0.0929
 6317W        W21448   5.857  15.698  15.190 -0.0751 -0.2058 -0.1474
 6318W        W21449  14.698   1.776   4.325 -0.2276  0.2479 -0.0840
 6319W        W21450   8.039  10.954  11.538 -0.0276 -0.0630  0.1402
 6320W        W21451  10.208   5.598   2.499  0.0922  0.4408  0.0901
 6321W        W21452  16.523  13.156   1.405 -0.0442  0.0499  0.0223
 6322W        W21453  10.951   2.966  10.425 -0.0138  0.2171  0.4388
 6323W        W21454   3.588   1.924  15.328  0.0626  0.0880  0.1324
 6324W        W21455  16.648   3.269  15.129 -0.2364  0.2500  0.0075
 6325W        W21456  10.088  18.102   3.612  0.0010 -0.2931  0.0652
 6326W        W21457   5.131  13.920  15.566  0.1067 -0.2801  0.3055
 6327W        W21458   8.065   0.191  12.081 -0.1906 -0.2918  0.0055
 6328W        W21459   7.277   2.286  13.679 -0.0680  0.1437 -0.2301
 6329W        W21460   5.587  13.394   4.380 -0.1316 -0.0325  0.1717
 6330W        W21461  12.019  16.951   5.379  0.1374 -0.1665 -0.1098
 6331W        W21462   1.993  14.922   5.167 -0.1677  0.3305  0.2445
 6332W        W21463   6.483   5.822   0.284 -0.4401  0.0046 -0.2064
 6333W        W21464  10.635   5.440  12.192 -0.0522 -0.0026 -0.1967
 6334W        W21465  14.777  13.184   2.815 -0.1495  0.2100  0.3246
 6335W        W21466   6.112  11.831  11.880 -0.0027 -0.0543 -0.0579
 6336W        W21467  17.426  11.510  15.635  0.0728  0.0828 -0.0466
 6337W        W21468  16.541   9.697  15.142 -0.1384  0.0814  0.2375
 6338W        W21469  16.969   6.426   1.735  0.2411  0.0627 -0.1819
 6339W        W21470  17.513  13.580  11.421  0.1168  0.1992 -0.1806
 6340W        W21471   2.977  15.728  14.454 -0.1828  0.4288  0.0587
 6341W        W21472   8.147   3.083  15.268 -0.0104  0.3197  0.2677
 6342W        W21473  12.548   8.711   5.978  0.0436 -0.1409  0.0093
 6343W        W21474  10.317  13.416  11.656 -0.0683  0.0560 -0.0720
 6344W        W21475   9.213  12.649   5.461 -0.1206 -0.2841  0.0999
 6345W        W21476  14.112   2.345  15.393 -0.2049  0.0084 -0.2471
 6346W        W21477   6.147   9.309  14.155 -0.1922  0.0195  0.0781
 6347W        W21478   9.054   6.303   1.142 -0.1802 -0.1688 -0.0332
 6348W        W21479   6.822  12.120   2.861  0.0118 -0.0246 -0.0997
 6349W        W21480  15.294   9.566   1.780 -0.2690 -0.0831  0.0220
 6350W        W21481  12.569   0.862   0.479 -0.1073  0.1754 -0.0732
 6351W        W21482  17.585  11.340  12.269  0.0873 -0.1400  0.0432
 6352W        W21483   4.295   2.559   0.870  0.3131 -0.1018  0.1246
 6353W        W21484   5.533   3.040  12.992  0.2161 -0.0952  0.2701
 6354W        W21485  16.295   4.771  13.455 -0.1499 -0.1001 -0.0667
 6355W        W21486   5.265   8.311   4.745 -0.0706  0.0881  0.2151
 6356W        W21487   6.600   0.781  12.196 -0.0041 -0.2982  0.1562
 6357W        W21488   6.906   2.400   3.830  0.0003  0.0237  0.0027
 6358W        W21489   4.928   3.418  11.289 -0.0125  0.1115  0.0728
 6359W        W21490  18.075  11.124   3.493  0.1404 -0.0168  0.4020
 6360W        W21491   6.446   8.412  13.281 -0.2618 -0.0606  0.1500
 6361W        W21492  14.619  10.848   0.900  0.2655 -0.3323 -0.1222
 6362W        W21493  11.062  14.308   4.211 -0.1414 -0.0664  0.1965
 6363W        W21494   3.946   5.064   5.062  0.2755  0.2259 -0.0687
 6364W        W21495   2.701   3.607   4.169 -0.1107 -0.0698 -0.1656
 6365W        W21496   6.320   2.647   5.620 -0.1334 -0.0108 -0.2901
 6366W        W21497   3.458  14.656  14.280 -0.2620 -0.2134 -0.1600
 6367W        W21498  15.506  14.984   0.879  0.3790  0.1262 -0.0916
 6368W        W21499   7.499   6.065  15.752 -0.0391 -0.0119 -0.1298
 6369W        W21500  16.144  10.592   1.588 -0.2333  0.0798 -0.3010
 6370W        W21501  15.024   4.513   0.903 -0.0596 -0.0748  0.3627
 6371W        W21502   8.669  16.861  10.725  0.0929  0.0131  0.0977
 6372W        W21503   2.245   2.035   0.369 -0.1184  0.2777  0.2423
 6373W        W21504   4.700  15.002   1.789  0.0141 -0.4745 -0.0786
 6374W        W21505  13.896   6.207  11.409 -0.2422  0.0360 -0.0254
 6375W        W21506   6.192   5.688  15.431 -0.0580 -0.1348  0.1042
 6376W        W21507  15.571  15.372   2.267  0.0742 -0.2208  0.1637
 6377W        W21508  16.170   6.532  15.082 -0.1611  0.2052  0.2089
 6378W        W21509  12.718  12.708  15.064  0.2349 -0.1128  0.2363
 6379W        W21510   6.769   2.425   3.334  0.0559 -0.0603  0.1843
 6380W        W21511  16.274   6.101  14.730 -0.0475 -0.0217 -0.0453
 6381W        W21512   1.521   2.791  10.731 -0.0098  0.2372  0.0420
 6382W        W21513   9.676   8.419   0.916  0.0210 -0.1164 -0.1060
 6383W        W21514  17.750   9.005   0.163 -0.1449 -0.0726 -0.0005
 6384W        W21515   7.741   6.269  16.191  0.0652  0.1134 -0.1648
 6385W        W21516   7.197  14.111   1.540 -0.1227  0.2420  0.0591
 6386W        W21517  16.363   6.871  11.307 -0.0147  0.2918  0.1002
 6387W        W21518   9.782  10.294  13.141 -0.0903  0.1782 -0.1224
 6388W        W21519   2.648   1.091   1.011  0.1838 -0.1421  0.0347
 6389W        W21520   4.938   2.656   2.616 -0.0711  0.1569 -0.0668
 6390W        W21521   2.803   9.104  11.344 -0.0727 -0.0263 -0.2171
 6391W        W21522  16.960  12.893  10.242 -0.0600 -0.1170 -0.1249
 6392W        W21523  15.948   4.341   4.495 -0.2147 -0.1935  0.2019
 6393W        W21524   4.412   1.938   5.951 -0.0327 -0.2067  0.1551
 6394W        W21525   4.335  16.083   5.118 -0.2154  0.2843 -0.2184
 6395W        W21526   8.716  14.413   3.539  0.0289  0.1684  0.2755
 6396W        W21527   2.963   3.130   5.429 -0.0162 -0.2833 -0.0642
 6397W        W21528   8.929   6.437  11.742  0.2243  0.1875  0.1635
 6398W        W21529   7.404   0.159  16.073  0.0586  0.1218  0.0543
 6399W        W21530  13.097  15.862  14.080  0.0496 -0.1379 -0.1894
 6400W        W21531   0.161   1.005   1.390 -0.3818  0.0417 -0.0336
 6401W        W21532  12.296   8.654  11.579  0.0838 -0.4424  0.1913
 6402W        W21533   1.432  15.268  14.821  0.0632  0.1670  0.1301
 6403W        W21534   5.682   6.048   3.419  0.3205  0.3698  0.1398
 6404W        W21535   3.149   3.509   0.784  0.0177 -0.0788 -0.2168
 6405W        W21536  11.057   7.216  11.977  0.2488 -0.3011  0.0999
 6406W        W21537   7.977   6.444   3.457  0.2157 -0.0374 -0.1264
 6407W        W21538   1.588  14.131  14.068  0.1993  0.0324  0.1326
 6408W        W21539   7.576  15.487  11.225  0.0218 -0.3591 -0.0924
 6409W        W21540   6.437   3.864  14.643 -0.0600 -0.0843  0.1326
 6410W        W21541  12.579  10.524   3.519  0.4769  0.0255  0.0604
 6411W        W21542  13.434   0.321   2.402 -0.3028  0.1798 -0.0582
 6412W        W21543   9.086  17.946  10.734  0.1786 -0.0853  0.0840
 6413W        W21544  17.220  15.788   6.040 -0.1605  0.0818 -0.1295
 6414W        W21545   1.012   3.430   4.610 -0.0567 -0.1652 -0.1615
 6415W        W21546   9.241  16.733  10.661 -0.1717  0.0557 -0.0583
 6416W        W21547  13.334   3.009   3.398 -0.0370 -0.1892  0.0707
 6417W        W21548  14.429   6.380  15.249  0.0790 -0.0460  0.2092
 6418W        W21549  16.965   0.020  12.233 -0.1159 -0.0734 -0.0338
 6419W        W21550   2.114  11.232   4.538 -0.3070  0.4186  0.0423
 6420W        W21551  14.951   0.666  10.926  0.1714 -0.5182  0.0030
 6421W        W21552  11.127   2.221  13.304  0.3766  0.2195 -0.2011
 6422W        W21553  14.136  16.743   1.190 -0.4211 -0.0255 -0.2105
 6423W        W21554   0.858   9.972  15.458  0.4823 -0.3812 -0.1412
 6424W        W21555  11.308  14.950   5.973  0.0246 -0.0604 -0.0047
 6425W        W21556  11.039   2.942  13.969 -0.0504 -0.1388  0.1350
 6426W        W21557   8.917   4.618  13.728  0.1703  0.1124  0.0946
 6427W        W21558  13.980   4.414  12.427 -0.1008  0.0571 -0.1546
 6428W        W21559  10.317  17.159   4.008 -0.2233  0.1862 -0.1911
 6429W        W21560   7.721  15.631   1.241 -0.2090 -0.0708 -0.1898
 6430W        W21561  11.987  16.487  14.040 -0.3027  0.1756  0.0764
 6431W        W21562  12.599   6.645   1.109 -0.1915  0.1048  0.0619
 6432W        W21563   6.698   3.763  11.304  0.1939 -0.2033 -0.0355
 6433W        W21564   1.266   8.090   5.988 -0.3701 -0.1748  0.3019
 6434W        W21565  13.468  10.676  14.870  0.3527  0.1875  0.0800
 6435W        W21566  15.233  13.795  15.686 -0.1350 -0.0494  0.1912
 6436W        W21567   2.863  13.119  14.704 -0.2056 -0.1155  0.2610
 6437W        W21568   8.516  16.047  12.658  0.0292 -0.1512  0.1257
 6438W        W21569   9.365  15.063   3.933  0.0661 -0.1634 -0.0404
 6439W        W21570  14.098   8.198   2.989  0.0400  0.1445 -0.1742
 6440W        W21571   3.883  13.653  16.214  0.1472 -0.2643  0.0481
 6441W        W21572   6.254   7.331  14.910 -0.1254  0.0120  0.1520
 6442W        W21573   5.801  16.029   0.628  0.0047 -0.2561  0.0292
 6443W        W21574  15.210   8.722   5.096 -0.0947 -0.1362  0.2051
 6444W        W21575   4.921   0.855   1.347 -0.0519 -0.0785  0.1541
 6445W        W21576   5.425  14.727  15.147  0.4525 -0.2577  0.1277
 6446W        W21577   1.316   9.954  14.000 -0.2376  0.3492  0.0941
 6447W        W21578   5.901   6.127  11.529  0.0802  0.0575  0.1445
 6448W        W21579   3.076  15.603  11.840 -0.3595 -0.1605  0.1638
 6449W        W21580  13.106   3.610  11.381  0.0654 -0.0328 -0.0097
 6450W        W21581   8.726  11.379   5.095 -0.3058 -0.1427  0.0110
 6451W        W21582   9.129  10.132  13.224  0.0531  0.1713 -0.1807
 6452W        W21583   6.172   3.463   3.251 -0.0959 -0.1277  0.0987
 6453W        W21584  13.004  12.589  11.866 -0.1878 -0.2318 -0.1332
 6454W        W21585  15.415   1.288   0.243  0.0155  0.1814  0.0161
 6455W        W21586  11.640   1.677   3.374 -0.0552 -0.1227  0.2636
 6456W        W21587  12.138  17.247   2.498 -0.0419  0.2897 -0.0384
 6457W        W21588   0.386   2.608  10.104 -0.1822 -0.0667 -0.1250
 6458W        W21589  13.459   2.251   5.671 -0.2282 -0.1464  0.1824
 6459W        W21590  10.807   8.580  13.604 -0.1491 -0.0634 -0.1563
 6460W        W21591  11.453  10.282   1.490 -0.1387  0.0005 -0.0793
 6461W        W21592  15.342  16.582   4.000 -0.2890 -0.1373 -0.1819
 6462W        W21593  15.152   4.329   1.738 -0.0411 -0.2485  0.0125
 6463W        W21594   2.540  14.440   5.793 -0.1379  0.4182  0.1488
 6464W        W21595   2.390  10.530  12.609  0.1016 -0.1535 -0.1564
 6465W        W21596  17.634   9.734   3.627 -0.4249  0.2013  0.3374
 6466W        W21597  14.723  15.539   1.160 -0.0162 -0.1262  0.0004
 6467W        W21598  11.461   0.643  15.764  0.0232  0.0429  0.1249
 6468W        W21599   3.744   4.914  14.720  0.0408 -0.3227 -0.3168
 6469W        W21600   9.198  13.165  11.726 -0.0364 -0.1491 -0.0578
 6470W        W21601   5.272   6.539  15.725  0.0981 -0.4406  0.2056
 6471W        W21602   9.486   8.677  12.934 -0.2398  0.3251 -0.3964
 6472W        W21603  16.927  13.099  14.070  0.1300 -0.0115 -0.1915
 6473W        W21604  16.408  15.218   5.847  0.1361 -0.0193 -0.1308
 6474W        W21605   3.163   9.072   0.310 -0.2027  0.4781  0.0195
 6475W        W21606   6.161   1.540  14.266  0.1154 -0.0193  0.2594
 6476W        W21607   7.692   4.783   3.779  0.1366  0.0947  0.0586
 6477W        W21608   2.422  17.929   1.473 -0.1710 -0.0581  0.0802
 6478W        W21609  11.161  13.779  15.242 -0.1073 -0.3018  0.1222
 6479W        W21610  13.400  10.263   2.843 -0.0424 -0.0853  0.0474
 6480W        W21611  15.201  13.898  13.670 -0.0354 -0.0110  0.0283
 6481W        W21612  13.954   2.310  15.891  0.3005 -0.1496 -0.0813
 6482W        W21613   3.652   1.149   3.120  0.0262 -0.2135  0.0978
 6483W        W21614  17.510  11.285   1.678 -0.0279 -0.0265  0.1814
 6484W        W21615   4.229  15.762  14.914 -0.0289 -0.2817 -0.2111
 6485W        W21616   6.772  12.868  13.708  0.0488  0.2032 -0.1442
 6486W        W21617   0.664  13.038   3.368  0.0885 -0.2102  0.0498
 6487W        W21618   6.476   2.745   4.613 -0.0701 -0.2358 -0.2278
 6488W        W21619  13.896  10.617  14.603  0.0712 -0.0017  0.0311
 6489W        W21620   8.992   6.783   4.936 -0.0932 -0.0375  0.1382
 6490W        W21621   1.051  16.274   2.900 -0.0462  0.0451 -0.0174
 6491W        W21622  12.530   3.852  11.887  0.2431  0.2969 -0.0342
 6492W        W21623   5.142  12.286   5.041  0.0514  0.0435  0.1825
 6493W        W21624   3.381  17.775  13.030  0.1716  0.2787 -0.2172
 6494W        W21625   4.227   3.170   5.366  0.1570  0.2789  0.0544
 6495W        W21626  16.048   8.598  16.007 -0.0246 -0.0630 -0.1510
 6496W        W21627  16.991  13.154   4.725 -0.1739 -0.2789 -0.2617
 6497W        W21628   6.280  10.862  14.691  0.2363  0.1704 -0.2551
 6498W        W21629   0.802   3.849  10.769 -0.1541 -0.2031 -0.0085
 6499W        W21630   7.366  14.833  12.907 -0.3531 -0.0461 -0.4045
 6500W        W21631  12.405   8.866   2.518  0.2096  0.1595  0.1954
 6501W        W21632  12.062   5.606  11.869  0.1460  0.0149  0.2543
 6502W        W21633  12.069   6.887  14.450  0.0389 -0.1254  0.3607
 6503W        W21634  16.924  14.005   4.354  0.2541  0.0482  0.1100
 6504W        W21635   8.928   7.146  12.260 -0.2387 -0.0109 -0.0986
 6505W        W21636  12.900   8.246  15.517  0.1162 -0.0322  0.0156
 6506W        W21637  17.779   0.968  12.221  0.2855 -0.0584  0.3900
 6507W        W21638   3.115  16.799  12.493 -0.0680 -0.2002  0.1514
 6508W        W21639   4.447   9.064  14.185 -0.3557 -0.0389  0.1473
 6509W        W21640  13.669  13.364   5.415 -0.1037 -0.0270 -0.0763
 6510W        W21641  17.624   6.088   2.148 -0.0649 -0.1732  0.0866
 6511W        W21642   7.389   9.237  15.571 -0.0652 -0.0998  0.1141
 6512W        W21643  12.018  17.299  12.117  0.0877  0.2142 -0.1794
 6513W        W21644   3.663   8.606  13.614  0.0901  0.0990  0.1760
 6514W        W21645  14.248   3.815   3.943 -0.2067  0.4642 -0.1460
 6515W        W21646  10.609  11.448   2.130 -0.0154  0.0509  0.1561
 6516W        W21647   1.074   6.112   0.260  0.0641 -0.0031 -0.1214
 6517W        W21648   4.895   6.172  15.653 -0.1564  0.0335  0.1733
 6518W        W21649   2.213   4.062   5.761 -0.0765  0.0139  0.2524
 6519W        W21650   7.473   4.224   3.217 -0.1091 -0.4891 -0.2537
 6520W        W21651   4.871  16.133   2.682 -0.5080 -0.2074  0.0528
 6521W        W21652   3.167  17.371  12.890  0.0449 -0.0383  0.1100
 6522W        W21653   6.667   8.040   0.586  0.0206  0.1265 -0.0449
 6523W        W21654   6.830   3.181  13.804 -0.0395 -0.2164  0.0785
 6524W        W21655   7.183   7.570   3.595  0.0382 -0.2136 -0.1685
 6525W        W21656  11.345  10.278   3.400 -0.0817 -0.1902  0.1620
 6526W        W21657   4.784   7.010   5.687 -0.3174  0.1368  0.0852
 6527W        W21658  17.161   2.816   3.192 -0.0905  0.3692  0.1202
 6528W        W21659  17.775  17.451  11.629 -0.0560  0.3526 -0.3136
 6529W        W21660   8.585   6.384   1.354 -0.0619  0.1101 -0.2487
 6530W        W21661   0.654  10.066   4.459 -0.0028  0.1110 -0.0052
 6531W        W21662  16.779   9.737   5.907 -0.2478  0.1477  0.1792
 6532W        W21663   1.301   0.125  14.257 -0.1456 -0.1644  0.0822
 6533W        W21664   3.809   1.347   0.588  0.0436 -0.1587  0.1289
 6534W        W21665  17.612   7.920  15.680 -0.4199  0.0264  0.2549
 6535W        W21666  11.080   9.999   1.345  0.0354  0.1245 -0.0278
 6536W        W21667   4.701  13.008  15.691  0.0527 -0.1529  0.1655
 6537W        W21668   5.030   5.579   0.249 -0.0364  0.0232  0.1678
 6538W        W21669  14.339  14.758  11.595 -0.0032 -0.0291  0.1324
 6539W        W21670   2.363   4.456  11.656 -0.3451 -0.1669  0.0005
 6540W        W21671  16.154   7.437  12.211  0.0623  0.2264 -0.1571
 6541W        W21672  12.794  11.877  10.928  0.1458  0.0624  0.0779
 6542W        W21673   2.411  14.590   9.771 -0.2778 -0.3231  0.2709
 6543W        W21674  10.530   4.557  15.568  0.1010 -0.1057 -0.1006
 6544W        W21675  10.289  15.147  11.881  0.0017  0.1761 -0.1646
 6545W        W21676   4.771  17.271   0.658 -0.0766  0.0070  0.0163
 6546W        W21677  16.671   0.840  16.188 -0.1126 -0.0399 -0.0589
 6547W        W21678  15.576   3.288  11.107  0.0500 -0.1225  0.5953
 6548W        W21679  14.630   8.645   0.049 -0.3323  0.0168  0.2615
 6549W        W21680  11.517  13.906   4.997 -0.0719 -0.4622  0.1491
 6550W        W21681  13.941   8.264  13.544 -0.1291 -0.0629 -0.3205
 6551W        W21682   4.072  14.312   0.282 -0.1963 -0.2360 -0.0942
 6552W        W21683   8.502  16.152  11.351 -0.0734 -0.0763 -0.3567
 6553W        W21684   7.879  11.362   3.677  0.4531 -0.0540  0.2728
 6554W        W21685   2.621  16.835   1.400  0.2086  0.0679 -0.2216
 6555W        W21686  11.076   9.581   3.100  0.0737  0.2680 -0.0516
 6556W        W21687   9.567  15.792   4.514  0.2553 -0.0463  0.0435
 6557W        W21688  17.739  15.472   0.436  0.1521 -0.0730  0.2199
 6558W        W21689  12.603   2.108   5.934 -0.0913  0.1560  0.0465
 6559W        W21690   6.977   5.343   0.061  0.1616  0.1345 -0.0803
 6560W        W21691   6.685   6.579  15.855 -0.0581  0.0306  0.0962
 6561W        W21692  12.891  11.534  12.706 -0.0760  0.0598 -0.2514
 6562W        W21693  11.629   4.526   4.260 -0.0290 -0.1791  0.3187
 6563W        W21694  16.897   3.452  14.689 -0.2084  0.2020 -0.2022
 6564W        W21695  12.951  14.427   3.459  0.0128 -0.2207  0.1666
 6565W        W21696   4.273  16.742   4.392 -0.3156  0.0843  0.1601
 6566W        W21697   3.451  13.867  15.834  0.0756  0.1752  0.1522
 6567W        W21698   8.408  13.831  12.601  0.1716  0.2128 -0.2529
 6568W        W21699   5.632   2.808  16.063 -0.3373 -0.0680 -0.0577
 6569W        W21700   0.170   3.428   4.658 -0.3317  0.0905 -0.1149
 6570W        W21701  14.622  15.365  12.947 -0.1664  0.1651 -0.0601
 6571W        W21702   3.291  16.913  15.421  0.2946 -0.0202  0.2658
 6572W        W21703  12.796  13.205   5.768  0.2425  0.3000 -0.0076
 6573W        W21704   9.005  10.029  14.351 -0.0724 -0.1289  0.1487
 6574W        W21705  11.622  17.818   1.324 -0.1367 -0.1441 -0.0809
 6575W        W21706   1.431  10.753   6.215  0.1520 -0.2458  0.2529
 6576W        W21707  12.907   7.850   0.170  0.1475 -0.2644 -0.1166
 6577W        W21708   0.732  13.615  12.883  0.1314  0.3222 -0.2121
 6578W        W21709   7.340   0.665   0.419  0.0718  0.1382 -0.0189
 6579W        W21710  12.071   6.907  12.016 -0.3608 -0.1152 -0.1578
 6580W        W21711  13.421   8.758   1.388 -0.0817 -0.0129  0.0087
 6581W        W21712  10.411   2.053  14.025  0.3861 -0.3222 -0.0723
 6582W        W21713   5.819   4.515   1.585  0.1230 -0.1963 -0.0622
 6583W        W21714   6.430   4.945   0.809  0.1031 -0.1105 -0.1325
 6584W        W21715   3.128   1.064   1.767  0.0695 -0.2272  0.0994
 6585W        W21716  11.113  11.914   4.257 -0.1935 -0.0450  0.0674
 6586W        W21717  10.324  12.028  12.094 -0.0084 -0.2190  0.0185
 6587W        W21718  15.429   2.018   1.056 -0.3247  0.2911 -0.1251
 6588W        W21719   0.037   9.682  14.045  0.1045 -0.0419  0.0511
 6589W        W21720  13.403  16.027   3.205  0.1287  0.0750 -0.0934
 6590W        W21721   7.415  12.620  14.291  0.1077 -0.1224  0.0968
 6591W        W21722   1.015   5.389   1.816  0.1565  0.2184  0.0130
 6592W        W21723   4.303   1.802   4.272 -0.2013 -0.3357  0.2681
 6593W        W21724   1.198   3.714  11.057 -0.2033  0.2324  0.0265
 6594W        W21725  13.985   2.134   5.719  0.2039  0.1846  0.0572
 6595W        W21726  17.646   2.467  14.088 -0.0238 -0.0873  0.0558
 6596W        W21727   7.107   3.511   0.614 -0.0665  0.0261 -0.0481
 6597W        W21728  15.016  10.870  12.752 -0.0049  0.0132 -0.3219
 6598W        W21729   3.128   3.458   2.347 -0.0163  0.1447  0.0964
 6599W        W21730   5.698   9.444  13.671 -0.0280  0.0433 -0.0059
 6600W        W21731   2.145   7.747  16.017  0.0952  0.3261  0.1414
 6601W        W21732  15.125  13.652   3.909 -0.2251 -0.1277  0.1787
 6602W        W21733  17.135   6.414  14.697  0.0414  0.0342 -0.0418
 6603W        W21734   0.451   9.908   5.185  0.0519  0.2567 -0.2001
 6604W        W21735   1.196  14.823  14.758 -0.1307 -0.1967 -0.0033
 6605W        W21736  13.985  12.163   1.743  0.2011  0.4072 -0.0896
 6606W        W21737  16.421  15.500  12.818  0.1021  0.0808  0.2157
 6607W        W21738   1.771   8.956  14.692  0.0033  0.1342  0.2289
 6608W        W21739   6.329  17.973   2.581  0.0318 -0.1221 -0.0182
 6609W        W21740   1.541   9.119  16.168 -0.3001 -0.4578  0.4122
 6610W        W21741   9.541  16.622   4.971  0.0826 -0.2351 -0.0796
 6611W        W21742  16.815  17.533   1.179 -0.2417 -0.0008  0.0830
 6612W        W21743  11.691   7.163   2.589  0.0569 -0.0899 -0.1849
 6613W        W21744   9.571  14.120   0.039 -0.3180  0.1211  0.0269
 6614W        W21745   6.753  15.137  10.909 -0.1311 -0.3469  0.2004
 6615W        W21746   6.978   8.867  13.935  0.2930  0.0001  0.2374
 6616W        W21747   4.302  14.428  12.526 -0.0984 -0.3158 -0.0064
 6617W        W21748   6.168   0.792  12.530  0.2404 -0.2697 -0.1704
 6618W        W21749   5.180  16.041   5.845 -0.0602 -0.2055  0.3831
 6619W        W21750  16.024  10.658   4.488 -0.2807  0.0794 -0.0428
 6620W        W21751  17.289   6.954  14.359 -0.0968 -0.1511 -0.0034
 6621W        W21752  10.570  11.616   0.228  0.2498  0.0513 -0.2762
 6622W        W21753  15.660  14.007  15.483  0.0852  0.1669 -0.0331
 6623W        W21754   9.265   2.481   0.386 -0.1270 -0.0393 -0.1851
 6624W        W21755  16.828  16.500  15.993 -0.2545 -0.0555 -0.0244
 6625W        W21756  14.033  10.946   4.648  0.1535 -0.0158  0.0877
 6626W        W21757  15.373   5.181  12.338  0.3002 -0.2592  0.1428
 6627W        W21758   5.132   4.324   2.408 -0.0846 -0.0487 -0.3267
 6628W        W21759  13.550   0.806   2.314 -0.0821 -0.2409 -0.0416
 6629W        W21760  14.817  13.851  15.964  0.0083 -0.1396  0.3163
 6630W        W21761   3.187  13.620   2.846  0.1074  0.3300 -0.0542
 6631W        W21762   7.332  16.169   0.612  0.0117  0.1541  0.0959
 6632W        W21763  12.916   5.085  16.235  0.1332  0.0856 -0.0188
 6633W        W21764   1.805   8.253   4.587  0.0212 -0.3098 -0.1628
 6634W        W21765  12.299   5.221   0.540  0.1319 -0.1112 -0.0125
 6635W        W21766   1.160   5.664  15.461  0.0899 -0.1879 -0.6384
 6636W        W21767  16.518  10.178  14.350  0.2040 -0.0808 -0.2502
 6637W        W21768  14.535   2.202   5.686  0.0626 -0.1705 -0.0676
 6638W        W21769   7.987   6.379  13.624 -0.2138 -0.0002  0.2515
 6639W        W21770  15.960  17.609  14.842  0.0754  0.2507  0.2134
 6640W        W21771  16.176  15.867  11.840  0.0794  0.2446  0.4094
 6641W        W21772   1.891  17.095  13.317 -0.0175 -0.3201 -0.1125
 6642W        W21773   5.775   4.602   4.867 -0.1947  0.1499  0.0463
 6643W        W21774   6.550   8.591  15.996 -0.0231  0.4131 -0.2378
 6644W        W21775  12.611   0.776  13.083  0.1492 -0.1167 -0.0112
 6645W        W21776   1.337  15.554  12.452  0.3280  0.0585  0.5805
 6646W        W21777   8.579  13.524  14.631 -0.4437 -0.0829 -0.0913
 6647W        W21778  14.659   0.912   1.966 -0.0051 -0.1486 -0.1439
 6648W        W21779   9.600   8.969  12.068  0.1906 -0.1145 -0.0345
 6649W        W21780   6.059   3.928   4.170  0.0558  0.3118  0.1994
 6650W        W21781   9.798   7.175   5.074 -0.0178  0.4425 -0.4417
 6651W        W21782   7.339   8.038  13.429  0.0371 -0.1091 -0.1038
 6652W        W21783   0.900  17.944  14.204  0.3577  0.0847  0.1381
 6653W        W21784   3.714  14.790   0.639 -0.1233  0.1093  0.0987
 6654W        W21785   6.289  12.097   5.981 -0.0187 -0.2493  0.0412
 6655W        W21786  12.621  16.363   5.571 -0.0337 -0.0682  0.0695
 6656W        W21787   7.200   4.300  14.576  0.0541  0.0639  0.3873
 6657W        W21788   2.141   0.501   1.013 -0.1291 -0.2285  0.1346
 6658W        W21789  10.937   8.966  10.955  0.1068  0.2491  0.3500
 6659W        W21790   7.808   3.580  15.597 -0.1470  0.0214 -0.1323
 6660W        W21791  10.420   7.078   4.357  0.1978 -0.2696  0.0518
 6661W        W21792   6.827  13.771   1.507  0.0274 -0.2642 -0.3168
 6662W        W21793   1.126  12.562  16.083 -0.0253  0.3105  0.0060
 6663W        W21794   4.354  12.670   1.793  0.0055  0.1828 -0.0291
 6664W        W21795   8.424   4.891  15.150  0.1790  0.2512 -0.1438
 6665W        W21796   4.231  14.037  11.263  0.1327  0.5423 -0.1110
 6666W        W21797   6.122   9.862   1.325  0.0025 -0.1168  0.0357
 6667W        W21798  12.867  13.165   0.987 -0.0898 -0.1768 -0.0382
 6668W        W21799  10.820   3.188   2.469  0.0473  0.1078 -0.1783
 6669W        W21800   5.569   0.208   2.050  0.1356 -0.0424 -0.0530
 6670W        W21801  16.817   9.799  10.497 -0.0733  0.0288  0.0619
 6671W        W21802  16.539   5.954   2.199 -0.2651  0.0174 -0.0045
 6672W        W21803   4.525   4.369   2.368  0.0823  0.1141  0.0501
 6673W        W21804   4.864  18.049  11.635  0.0134 -0.1041 -0.0018
 6674W        W21805   2.993  11.293  12.088  0.1241  0.3170 -0.1650
 6675W        W21806   2.326   7.909  13.790  0.0506 -0.1641  0.2357
 6676W        W21807   1.346  16.141  10.331 -0.1993  0.0451  0.2620
 6677W        W21808   6.872  12.453   3.946 -0.1926  0.1197 -0.2516
 6678W        W21809   1.595   6.163  16.044  0.0319 -0.1323 -0.0752
 6679W        W21810   1.534   1.958  12.141  0.0844 -0.1361 -0.0182
 6680W        W21811  17.519   4.832  12.698  0.1080  0.3017 -0.0408
 6681W        W21812  12.286   0.994  13.842  0.0255  0.0940 -0.1369
 6682W        W21813   2.543  15.126  15.338 -0.0252 -0.0869 -0.1610
 6683W        W21814  17.791   3.359  10.939 -0.1285  0.4861 -0.1142
 6684W        W21815   0.798  17.740  12.878 -0.1871 -0.0748 -0.2683
 6685W        W21816   9.864   6.818  14.806 -0.0207  0.0255  0.4897
 6686W        W21817  12.579   0.569  15.973 -0.1329 -0.1991  0.2876
 6687W        W21818  13.054  17.524   0.559  0.0945  0.3643 -0.0700
 6688W        W21819  12.134   0.671   0.040 -0.0972 -0.1394 -0.1987
 6689W        W21820   9.844   0.054   2.179 -0.0525  0.1221  0.1153
 6690W        W21821   6.885   6.722   4.424 -0.1278 -0.1202 -0.3133
 6691W        W21822   7.817  18.064  16.116  0.1856 -0.0180 -0.2024
 6692W        W21823   7.181   5.528  13.659 -0.2247 -0.1936  0.3572
 6693W        W21824  14.640   8.836   0.509 -0.1646 -0.0403  0.0004
 6694W        W21825   3.349   8.054   5.560  0.1446  0.0694 -0.1928
 6695W        W21826   8.019  12.415   4.351  0.1920 -0.1734  0.2356
 6696W        W21827   4.690   6.598  15.149 -0.0203  0.0883 -0.2122
 6697W        W21828  16.584   3.150  13.429  0.0465  0.0472 -0.0544
 6698W        W21829  12.132   7.590   4.223  0.3743  0.0250  0.0637
 6699W        W21830  10.505  10.921   2.229 -0.2166 -0.1079  0.3628
 6700W        W21831   3.501  16.875   4.243 -0.0924  0.0774  0.0223
 6701W        W21832   5.656  16.927  13.690  0.1185  0.1349 -0.0441
 6702W        W21833   6.306   1.344  13.817  0.3765 -0.2104  0.0521
 6703W        W21834   4.962  17.121  14.283 -0.0348 -0.0493 -0.1628
 6704W        W21835  11.622  10.361  11.157 -0.0480  0.0288 -0.0081
 6705W        W21836  10.878   9.232  14.965  0.0987 -0.0757  0.0455
 6706W        W21837   8.698  17.918   1.764 -0.1636 -0.0118  0.0403
 6707W        W21838   9.458   6.344   4.737  0.0233 -0.0374  0.0404
 6708W        W21839  14.627   1.146   4.680 -0.2177 -0.0904  0.1246
 6709W        W21840   0.332  10.413   1.431 -0.1880 -0.1198  0.3268
 6710W        W21841  10.232   0.997  15.557  0.0596  0.0697  0.1355
 6711W        W21842  11.187  12.863  11.370 -0.0367  0.4699  0.0339
 6712W        W21843  17.193   5.081  15.875 -0.1052 -0.1433  0.3046
 6713W        W21844   6.329  13.439  15.827  0.0930  0.1847  0.0457
 6714W        W21845   1.384  17.644  11.195  0.0352 -0.0197  0.1437
 6715W        W21846  12.207   2.862   6.142 -0.0923  0.2639 -0.0649
 6716W        W21847   9.604  15.472   1.293 -0.1042  0.0270  0.2142
 6717W        W21848  17.718   7.895  15.012  0.1018  0.2255 -0.1172
 6718W        W21849  17.513   2.926   2.807  0.1754  0.0015 -0.0387
 6719W        W21850   1.048  14.749   1.611  0.2338  0.0448  0.4882
 6720W        W21851   5.596  10.131   0.810 -0.0190 -0.3806  0.1532
 6721W        W21852  13.844  11.739   4.975 -0.0087  0.2339  0.3165
 6722W        W21853  13.731   2.583   2.288  0.1857  0.1609 -0.1357
 6723W        W21854   1.895   1.257  12.913 -0.0118  0.0737 -0.0603
 6724W        W21855   2.386   5.995   3.457  0.3432  0.1613  0.1425
 6725W        W21856   5.429  10.022  14.125 -0.0989 -0.0990  0.2263
 6726W        W21857   7.788   0.494  12.986  0.2162 -0.2744  0.2623
 6727W        W21858  17.010   0.184   1.978  0.1318 -0.1043 -0.0668
 6728W        W21859   9.579   4.357   1.341 -0.2348  0.2726 -0.0927
 6729W        W21860   6.954   0.771   5.440 -0.1659 -0.2381  0.1035
 6730W        W21861   5.977   3.636  13.273 -0.1164  0.1455  0.0015
 6731W        W21862   4.329  11.317  14.315 -0.0765 -0.2468 -0.1726
 6732W        W21863   1.230  17.318   3.658  0.0409  0.0454 -0.2403
 6733W        W21864   8.524   1.889   0.950  0.4041 -0.0799 -0.1431
 6734W        W21865   1.115   8.976  13.633 -0.0987 -0.0492 -0.6302
 6735W        W21866  13.961   8.830   3.745  0.1461 -0.2363 -0.0214
 6736W        W21867   1.470   3.153   1.974  0.1517 -0.0721  0.0521
 6737W        W21868  17.128   4.605  15.984 -0.1085  0.0103 -0.2153
 6738W        W21869   4.411   4.319  14.457 -0.4605 -0.2000  0.2218
 6739W        W21870  10.810   8.264   2.622  0.1670  0.2786 -0.0499
 6740W        W21871   4.957  17.846  13.011 -0.1874 -0.1381 -0.3159
 6741W        W21872  10.321  17.015  11.712  0.0662 -0.1124 -0.1348
 6742W        W21873  11.875   6.749   5.363  0.1722  0.1490  0.2046
 6743W        W21874  14.282   5.054  15.158  0.0628  0.1127 -0.1230
 6744W        W21875   1.030   3.284  15.996  0.0978 -0.0616 -0.0823
 6745W        W21876   2.231   3.432  15.227 -0.0558 -0.1415 -0.0243
 6746W        W21877   9.339   3.643  14.929  0.3449 -0.1318  0.1371
 6747W        W21878   3.862   8.970  13.288  0.0268 -0.1997  0.0354
 6748W        W21879   0.105   5.949  14.590 -0.1189 -0.0670  0.1938
 6749W        W21880  14.442   6.658   3.864 -0.0246  0.0378  0.0671
 6750W        W21881   8.238   8.518   2.070 -0.1377  0.2703 -0.1470
 6751W        W21882   8.922   2.243  14.944 -0.3397  0.4388 -0.1590
 6752W        W21883   9.310  11.813  14.678  0.1384 -0.1552  0.0299
 6753W        W21884  15.553   7.187  13.392 -0.0328 -0.1232  0.1195
 6754W        W21885   4.483  17.504  13.916 -0.1135  0.0059 -0.1773
 6755W        W21886  11.930  13.237   2.620 -0.2219  0.0427  0.1123
 6756W        W21887  11.994   6.768  13.103 -0.1063 -0.1345 -0.0046
 6757W        W21888   6.432  11.290   1.924 -0.2072 -0.1330 -0.0245
 6758W        W21889   3.817   6.004  10.243  0.0296  0.0743  0.2673
 6759W        W21890  11.303   8.933   4.082 -0.3493 -0.0663 -0.2244
 6760W        W21891  10.744  14.387   2.039  0.0796  0.0135 -0.1744
 6761W        W21892  13.310   1.521  12.037  0.1579  0.2347  0.1728
 6762W        W21893  10.221   4.234   3.282 -0.1560 -0.1700 -0.0315
 6763W        W21894  14.482   8.813  14.731 -0.2199 -0.0314 -0.4590
 6764W        W21895  14.066   4.077  11.481  0.3229 -0.3729  0.0166
 6765W        W21896   5.237   8.358  15.587  0.1482 -0.2851  0.0836
 6766W        W21897   6.466   3.338  11.507  0.0220 -0.2807 -0.2629
 6767W        W21898  12.215   5.589   2.523 -0.0776 -0.0447  0.1212
 6768W        W21899  15.157  11.222  15.025 -0.1050  0.0981  0.0208
 6769W        W21900   7.989   9.615  11.475  0.0234  0.0133  0.3305
 6770W        W21901   1.809   5.471   0.392 -0.0876 -0.2984  0.0972
 6771W        W21902  12.330  16.608  12.823  0.0306  0.2659  0.0651
 6772W        W21903   8.815  17.110   0.650  0.0355  0.1703 -0.1315
 6773W        W21904  17.912   8.613   3.149 -0.1638 -0.1472  0.3820
 6774W        W21905  12.138   7.010   5.696 -0.1568  0.0963  0.3229
 6775W        W21906  10.599  12.803   2.017 -0.2245 -0.1012 -0.0118
 6776W        W21907   7.883  11.529   1.674 -0.1600  0.0142 -0.1023
 6777W        W21908   0.701   0.462   2.534 -0.0757 -0.1893 -0.0060
 6778W        W21909   1.371  11.987  12.399 -0.2307 -0.1150 -0.0773
 6779W        W21910   0.864  16.661   2.581  0.1090  0.0544  0.0764
 6780W        W21911   4.917   6.281   3.002 -0.2514 -0.1214 -0.1885
 6781W        W21912  13.230  15.855  10.558  0.0139 -0.1077 -0.0159
 6782W        W21913   7.296   3.533   5.290 -0.0372 -0.3447  0.2941
 6783W        W21914   6.190   2.348   4.744 -0.0501  0.0466  0.1774
 6784W        W21915  15.765   4.013  10.079  0.0378 -0.2603 -0.2720
 6785W        W21916   6.143  15.879   0.173 -0.1685 -0.2486 -0.2871
 6786W        W21917   2.385   4.250  14.029 -0.0132 -0.1735  0.0492
 6787W        W21918  16.856  12.344  14.256  0.0806  0.1005 -0.2295
 6788W        W21919  15.202   7.550   2.332  0.2140 -0.2000  0.3261
 6789W        W21920  14.068   8.773  14.345 -0.0136 -0.3325 -0.1039
 6790W        W21921   2.599   1.489  15.505 -0.1767  0.2127 -0.1034
 6791W        W21922  13.886  13.257  14.367 -0.1951 -0.0114  0.2112
 6792W        W21923  16.209  13.176  15.426  0.0551  0.0789 -0.1201
 6793W        W21924  10.965   6.674  11.618 -0.1191 -0.0692 -0.1737
 6794W        W21925  13.571   3.548   1.302  0.2065  0.0289 -0.0771
 6795W        W21926  14.451   3.903  16.143 -0.1415 -0.0743  0.1595
 6796W        W21927   5.446   2.251  14.620  0.0697 -0.3326 -0.0467
 6797W        W21928   5.048   2.301   5.366  0.0183 -0.0559  0.0433
 6798W        W21929   8.463   6.322   2.208  0.1129 -0.2454  0.0530
 6799W        W21930  12.599   6.711  13.640  0.1446 -0.0116 -0.2059
 6800W        W21931  13.426   7.518  11.442 -0.1885 -0.0246 -0.0317
 6801W        W21932   9.739   5.852  12.214 -0.5783  0.1523 -0.0415
 6802W        W21933  12.268   3.968  15.887 -0.2014  0.1187  0.2220
 6803W        W21934   3.049   6.428   4.924 -0.1439 -0.0851  0.2710
 6804W        W21935  17.794  13.280   6.108  0.0138 -0.0676 -0.0924
 6805W        W21936  11.011  12.636   0.278 -0.0580  0.3469 -0.0037
 6806W        W21937   7.559  11.068   3.423  0.0148  0.0225  0.2696
 6807W        W21938   5.818   3.323   4.975  0.0182 -0.0024  0.2170
 6808W        W21939  14.371  10.547  13.218  0.0801  0.0418  0.0252
 6809W        W21940   1.925   4.660  11.952  0.5642 -0.0446 -0.2340
 6810W        W21941  13.591  14.827   3.906 -0.1679  0.1455 -0.1722
 6811W        W21942   5.296  15.587   4.883  0.0131 -0.2404  0.0254
 6812W        W21943  15.833  15.092  15.630 -0.2324 -0.0462  0.1432
 6813W        W21944   9.339  10.365   2.243  0.0609  0.2490 -0.0387
 6814W        W21945   5.052   8.891   0.679 -0.0487 -0.2755 -0.2821
 6815W        W21946   6.305   9.109   3.173 -0.0468  0.0540  0.0972
 6816W        W21947  10.841   9.780   0.515 -0.2512  0.1586 -0.0276
 6817W        W21948   2.115   6.355   0.675 -0.0261 -0.1363  0.0626
 6818W        W21949   4.355   0.984  12.979 -0.1235 -0.1338  0.0332
 6819W        W21950   9.567  10.901   5.287 -0.1833 -0.1332  0.0728
 6820W        W21951   2.659  17.451   1.519 -0.0908 -0.1336  0.2143
 6821W        W21952   7.623   9.363   4.438 -0.1809  0.2466 -0.2813
 6822W        W21953  13.199   2.410   0.521  0.2477 -0.0535  0.0394
 6823W        W21954  11.735   0.278   2.182 -0.1713 -0.2106 -0.1135
 6824W        W21955   8.774   1.321   5.258  0.2356  0.0388  0.1015
 6825W        W21956  10.309   8.075   0.000 -0.1377  0.4804  0.0530
 6826W        W21957   6.821   0.902   3.543  0.0078  0.0466 -0.1882
 6827W        W21958   9.749  15.719  11.158 -0.1971  0.1637 -0.1563
 6828W        W21959  10.572   3.030  13.650 -0.1356  0.0577 -0.1160
 6829W        W21960   1.685   2.637  15.558 -0.1037  0.1089 -0.0980
 6830W        W21961   2.444   8.566   4.011  0.0241 -0.0739  0.2376
 6831W        W21962   4.301   3.314   3.063  0.3057 -0.1514  0.0321
 6832W        W21963   8.082   4.536  15.868  0.2894 -0.1990  0.2540
 6833W        W21964  16.036   0.136   5.037  0.1069  0.0905 -0.0226
 6834W        W21965  16.498   4.387   4.478  0.0228 -0.1818 -0.0016
 6835W        W21966  15.472  15.953   4.770 -0.1357  0.1314  0.0672
 6836W        W21967   7.482  16.375  15.515 -0.2809  0.1309 -0.3248
 6837W        W21968  14.405   2.899  14.619  0.0216 -0.2261 -0.2145
 6838W        W21969  17.605   5.389   3.234 -0.0418  0.0077  0.2218
 6839W        W21970  13.082  15.809   3.548  0.3600 -0.3008 -0.2191
 6840W        W21971   5.262  17.360   2.801 -0.0606  0.1726  0.3234
 6841W        W21972  17.743   7.455  13.475  0.0438  0.0107 -0.0235
 6842W        W21973   4.901   6.309   0.732  0.2331  0.0807  0.0574
 6843W        W21974   1.000  11.336  13.485  0.0374 -0.2897 -0.0451
 6844W        W21975  11.638   2.881   0.277 -0.2364  0.1045  0.0231
 6845W        W21976   6.961   9.719  12.827 -0.0723  0.0075 -0.0870
 6846W        W21977   4.010   9.794   0.900 -0.2449 -0.0883 -0.0096
 6847W        W21978  10.099  14.915  10.214  0.1607  0.0548  0.0079
 6848W        W21979   6.242   2.531  13.111  0.0413 -0.1880 -0.0314
 6849W        W21980  13.337   4.331   2.947 -0.1369 -0.2976  0.1043
 6850W        W21981   3.601  13.674  11.964 -0.2937  0.0623  0.2661
 6851W        W21982   1.326   1.834  11.136  0.1983  0.0392 -0.1673
 6852W        W21983  11.826  11.157   4.437  0.1528 -0.2118  0.0751
 6853W        W21984   3.628  16.010  12.376 -0.0122  0.0892  0.4366
 6854W        W21985   2.011   6.223   4.147 -0.2334  0.1866  0.0553
 6855W        W21986  10.030  13.357  12.526  0.1409  0.0014 -0.2617
 6856W        W21987   9.382   2.962   2.395 -0.1052 -0.0511  0.0823
 6857W        W21988   4.213  13.734  15.755  0.2281  0.0430  0.0597
 6858W        W21989  13.069   5.112   3.740  0.0287  0.2297 -0.2382
 6859W        W21990  12.414   3.267   4.393 -0.0788  0.0451 -0.0885
 6860W        W21991   2.825   3.861  15.354 -0.2643  0.1216 -0.0215
 6861W        W21992   6.862  14.810   1.319  0.1408 -0.1167  0.0770
 6862W        W21993   2.292  13.875  12.346  0.2726  0.0556  0.0144
 6863W        W21994  10.535   2.792   1.595 -0.2683  0.3515 -0.4291
 6864W        W21995  16.769  13.744  15.455 -0.0040  0.1633  0.0616
 6865W        W21996  15.073   8.587   3.757 -0.1028  0.2036 -0.1139
 6866W        W21997  13.160  13.189  10.794  0.0902 -0.4153 -0.0139
 6867W        W21998  11.638  14.490   3.484 -0.0317 -0.0321 -0.0040
 6868W        W21999   1.691  10.914   2.421 -0.0501  0.0814  0.0989
 6869W        W22000  15.886   4.310  13.050 -0.3516 -0.1387  0.0872
 6870W        W22001   6.257  15.163   3.174 -0.3380 -0.3122  0.0078
 6871W        W22002   3.115  18.030   4.382  0.0577  0.0305 -0.0457
 6872W        W22003  16.638  12.829   4.319  0.2024 -0.0895 -0.0452
 6873W        W22004  10.431  12.937   2.535 -0.1804 -0.1118  0.1619
 6874W        W22005  16.300   9.611   3.097  0.0297  0.0227 -0.1029
 6875W        W22006   2.589   4.117   2.650 -0.0885  0.0593  0.2181
 6876W        W22007   1.991   1.502   4.220  0.2361  0.0301  0.0336
 6877W        W22008  15.606  12.590  15.417 -0.2151  0.2643  0.0532
 6878W        W22009   6.015  13.538   3.956  0.2442 -0.0900 -0.3919
 6879W        W22010   2.498  12.435   0.658  0.1424  0.0640 -0.2044
 6880W        W22011   9.389   0.930  14.927 -0.2510  0.0499  0.0038
 6881W        W22012  13.862   1.187  13.241  0.3336 -0.2589  0.2103
 6882W        W22013  15.545   4.159   2.009 -0.1751  0.1552  0.0075
 6883W        W22014  10.912   5.607   2.222  0.0242  0.2823 -0.0629
 6884W        W22015  12.482   8.516   1.132  0.0392 -0.0612 -0.0801
 6885W        W22016  14.392   6.174  11.208  0.2217  0.0735  0.1243
 6886W        W22017  14.985   1.994   3.706  0.1015  0.1006  0.1575
 6887W        W22018   1.280  10.348   2.279 -0.1006  0.1221 -0.1275
 6888W        W22019   8.616   4.801   2.849  0.0330 -0.0211 -0.0033
 6889W        W22020  15.933  13.584  14.368  0.1954  0.3339  0.0511
 6890W        W22021  17.609  10.445   2.563  0.3630 -0.3095  0.0534
 6891W        W22022  14.452   2.281  12.607  0.0153 -0.0074  0.2652
 6892W        W22023   4.257   9.036   3.301 -0.0865  0.1121  0.0280
 6893W        W22024  16.229  12.163  11.873 -0.2971  0.1022  0.1559
 6894W        W22025  12.029   0.100  13.287  0.0741 -0.0115 -0.2568
 6895W        W22026  10.820   8.631  11.762  0.3589 -0.3210  0.1551
 6896W        W22027   5.089  14.395  13.370  0.1296  0.0433 -0.0915
 6897W        W22028  17.969   9.592   2.121  0.1936 -0.3042  0.0255
 6898W        W22029   1.166  10.538  14.846 -0.0851 -0.1334 -0.0835
 6899W        W22030  15.425   7.148   1.375  0.3129 -0.1912 -0.0312
 6900W        W22031  12.360   4.994  14.284 -0.0129 -0.3462 -0.1094
 6901W        W22032  17.876  15.969   4.305  0.0751  0.2182  0.0214
 6902W        W22033  16.208  15.042  12.823  0.1285  0.1211 -0.0426
 6903W        W22034   8.023   7.159   4.609  0.1056  0.3288 -0.0107
 6904W        W22035  16.062   9.812   5.697 -0.0324  0.3294  0.0046
 6905W        W22036  13.077  13.400  16.019 -0.1633 -0.0256  0.0013
 6906W        W22037  11.344  13.887  13.447 -0.1486 -0.4827 -0.3428
 6907W        W22038  15.746  11.995   2.353 -0.4902 -0.0064 -0.0224
 6908W        W22039   4.337  17.797   1.865 -0.3254  0.2513  0.1029
 6909W        W22040   0.126   8.730   0.953  0.2312 -0.0452  0.3936
 6910W        W22041  15.376   0.914  15.101  0.0083 -0.2539  0.0857
 6911W        W22042  16.387   7.661  11.736 -0.1228 -0.0425 -0.1442
 6912W        W22043   7.048  11.945   4.563  0.0943 -0.0790 -0.0610
 6913W        W22044  14.416  10.389   3.105  0.0592  0.0307 -0.0591
 6914W        W22045   4.808  16.834   4.402  0.1611 -0.1006 -0.1040
 6915W        W22046   8.150   0.161   0.997 -0.3461 -0.1472 -0.0298
 6916W        W22047  16.820   1.227   4.402 -0.0980 -0.2449  0.5136
 6917W        W22048   4.712  15.833  10.893 -0.3152 -0.0001 -0.1900
 6918W        W22049   7.583   9.492  15.953  0.1879 -0.2551 -0.0669
 6919W        W22050   9.073   3.906   3.529 -0.2256  0.2255  0.1087
 6920W        W22051   6.269  17.162   1.237 -0.0979  0.0806 -0.1638
 6921W        W22052  11.770   3.368   0.500  0.1026  0.0465  0.1195
 6922W        W22053  12.937   6.628   5.234  0.0667  0.0379  0.2858
 6923W        W22054   8.976   8.441  11.758  0.2113  0.1938  0.2234
 6924W        W22055  11.753  10.212   2.522  0.2601 -0.2105  0.1056
 6925W        W22056  11.047  14.272  11.028  0.0307  0.0708 -0.0841
 6926W        W22057  10.333   2.889   2.810  0.0621  0.3425 -0.1463
 6927W        W22058   6.636  11.179  15.467 -0.4067  0.2199  0.2541
 6928W        W22059  15.731  15.634   5.195  0.1636 -0.0197  0.0242
 6929W        W22060   6.400   9.546  13.662 -0.0703  0.0266  0.0317
 6930W        W22061   8.823   7.631   4.224 -0.1428  0.2158 -0.0629
 6931W        W22062   6.642  12.640  14.770  0.1746 -0.2028 -0.1761
 6932W        W22063   0.290  11.014  11.326 -0.2025 -0.0796  0.3955
 6933W        W22064   5.306   4.374  11.983 -0.4112  0.0530 -0.1361
 6934W        W22065   5.267   3.610   0.248 -0.0829  0.0911  0.2861
 6935W        W22066   7.188   9.590   2.801 -0.0253  0.0720 -0.3435
 6936W        W22067   8.170  13.248   1.158  0.0060  0.2137  0.2100
 6937W        W22068   4.285   1.235   0.739 -0.4703 -0.0034  0.2019
 6938W        W22069  14.783  17.667   3.338 -0.1647 -0.2436 -0.2207
 6939W        W22070  15.039  14.012   0.117  0.1949  0.2433 -0.0078
 6940W        W22071   2.030   3.304  15.909 -0.2781  0.0563 -0.1336
 6941W        W22072  11.850  16.901  12.500  0.3314  0.0679  0.1256
 6942W        W22073   9.752  16.481   3.569 -0.0813 -0.1730 -0.0622
 6943W        W22074  14.589  14.997  11.943  0.0493  0.2717 -0.3445
 6944W        W22075  13.779   2.923  12.935 -0.1632 -0.0227 -0.3058
 6945W        W22076   6.045   8.721   3.159 -0.0497  0.1702  0.2241
 6946W        W22077  11.336   2.699  14.714  0.1151  0.1022 -0.0129
 6947W        W22078   7.227  15.255  11.002  0.0681 -0.0458 -0.0163
 6948W        W22079   7.132   6.472   5.318  0.2847  0.2383  0.1371
 6949W        W22080  12.536   5.707  12.335 -0.0795  0.0243  0.0934
 6950W        W22081  14.144   5.338  11.775  0.1484  0.1010  0.1413
 6951W        W22082   2.638   4.150   0.553 -0.3580 -0.2954 -0.0058
 6952W        W22083   7.744  10.060   3.334 -0.0708 -0.0048  0.1669
 6953W        W22084   4.611   5.987  13.828  0.0694 -0.0549 -0.3971
 6954W        W22085  13.345   2.045  11.308 -0.0307  0.1470  0.0875
 6955W        W22086  10.082   8.624  14.248  0.0605 -0.0259  0.1876
 6956W        W22087  15.494  17.207  12.805 -0.1420 -0.0048  0.0791
 6957W        W22088   3.436   7.622  10.673  0.0322 -0.2079  0.1355
 6958W        W22089  12.263   0.985  15.874  0.0491  0.0293  0.0403
 6959W        W22090  13.016  16.448  14.660  0.0969 -0.0763  0.0976
 6960W        W22091   6.875  11.341  11.499  0.2912  0.0609  0.0126
 6961W        W22092   7.458   8.998  14.680  0.1126 -0.1514  0.0097
 6962W        W22093  17.032  15.634  11.543  0.3594 -0.0715  0.0736
 6963W        W22094  11.922  14.024  15.795  0.1717 -0.0949  0.1068
 6964W        W22095  16.651  16.824   3.653 -0.3436 -0.1701 -0.0906
 6965W        W22096   6.724  10.544  11.231  0.0402 -0.2086  0.3236
 6966W        W22097   4.495  13.098   0.100 -0.2151  0.0036 -0.0680
 6967W        W22098  12.601   4.182   5.035  0.1607 -0.0742 -0.1874
 6968W        W22099   0.996   6.053  15.088  0.0109 -0.0338  0.1215
 6969W        W22100  15.127   7.136   3.201 -0.0732  0.0590 -0.1343
 6970W        W22101  17.613  13.569   3.305 -0.4477  0.3023 -0.1114
 6971W        W22102   9.105  14.838   3.025  0.1189  0.1131  0.2494
 6972W        W22103  10.660  12.231  11.331  0.2742  0.0639 -0.1944
 6973W        W22104  10.218   1.889   1.969 -0.0522 -0.0545  0.0277
 6974W        W22105   1.286  11.136   0.755  0.2009  0.2794  0.3700
 6975W        W22106   1.977  10.041   0.284  0.1147  0.2457  0.0844
 6976W        W22107   1.798   7.699   0.232 -0.1782 -0.0884  0.1823
 6977W        W22108   2.861   0.158   2.108  0.0475  0.1818  0.3908
 6978W        W22109  16.663  15.660  13.265 -0.1811 -0.2893  0.1807
 6979W        W22110  12.391   5.925  14.218  0.1534  0.2120  0.3481
 6980W        W22111  11.019   5.745   4.350 -0.0524  0.0466 -0.0945
 6981W        W22112   8.137   3.397  13.748 -0.1625  0.3204  0.0372
 6982W        W22113   2.693   3.228   5.913 -0.0504  0.0657 -0.0687
 6983W        W22114  12.980  12.616  15.869 -0.0102  0.1310 -0.2012
 6984W        W22115   8.822  15.684  15.970  0.0632 -0.0565  0.0670
 6985W        W22116   3.078   0.514   3.858 -0.1457 -0.0742 -0.0182
 6986W        W22117  12.730  13.903   2.604 -0.3038 -0.2320  0.1352
 6987W        W22118   9.519   0.111   4.818 -0.2124  0.0880 -0.2576
 6988W        W22119   6.282   1.195  12.210  0.0182  0.0780  0.0470
 6989W        W22120   3.543  13.792   1.934 -0.0902  0.2079  0.1697
 6990W        W22121  12.445   7.322   2.191 -0.0417  0.2838 -0.1957
 6991W        W22122   9.942  10.925   2.330 -0.1829  0.1857  0.2396
 6992W        W22123   9.698   0.344  13.127  0.0915  0.1291  0.2247
 6993W        W22124  10.627   3.098  11.875  0.2024  0.1009 -0.0269
 6994W        W22125   5.376   5.301  15.705  0.1342 -0.0249 -0.2254
 6995W        W22126   6.829  13.882   4.350  0.1331 -0.2304  0.1213
 6996W        W22127   1.988  10.565  11.916 -0.0130 -0.0318 -0.0788
 6997W        W22128   7.670   8.620   5.910  0.2405  0.3228  0.1382
 6998W        W22129   7.620   1.324  12.687  0.0375  0.1297  0.0889
 6999W        W22130  17.589   1.612  14.740  0.1006 -0.1000  0.0289
 7000W        W22131   7.639  12.360  15.125 -0.0281 -0.3069 -0.0329
 7001W        W22132   6.212   1.077   2.085 -0.1167 -0.1713 -0.3662
 7002W        W22133   0.047  17.220   4.823  0.1489 -0.0125  0.1533
 7003W        W22134  13.856   1.375   1.448 -0.0682 -0.2270 -0.0592
 7004W        W22135   5.388   7.968   0.760  0.0914 -0.3594 -0.0526
 7005W        W22136   9.596   8.709   3.457 -0.2712  0.2391 -0.1455
 7006W        W22137   1.223   9.614  15.859  0.2465  0.0544 -0.1400
 7007W        W22138   4.928  11.769  12.683  0.0249  0.1723  0.2912
 7008W        W22139  11.944  14.255  11.272  0.1466  0.2527 -0.4061
 7009W        W22140  15.497  17.176  14.118 -0.1692  0.1610 -0.1496
 7010W        W22141   8.876   2.737  15.839 -0.0617 -0.0110  0.1354
 7011W        W22142   9.707  17.029   3.528 -0.2055 -0.0692  0.1532
 7012W        W22143  16.592  12.224   4.978  0.0767  0.0469  0.2769
 7013W        W22144  16.763   6.681  14.292  0.0784  0.0428 -0.2294
 7014W        W22145  17.696   9.572  13.172  0.0474  0.0768  0.1089
 7015W        W22146   5.349  16.813   4.413  0.2419  0.0287  0.1000
 7016W        W22147   0.191  15.919  14.832 -0.2816  0.2814 -0.1515
 7017W        W22148  16.472   6.258   1.725 -0.1966 -0.3399 -0.1679
 7018W        W22149   5.927   3.738   5.808 -0.2306 -0.0391 -0.0866
 7019W        W22150   0.021   0.758   3.060 -0.0033  0.4544 -0.0876
 7020W        W22151   6.110   6.288  11.087  0.2281 -0.0024  0.1977
 7021W        W22152  14.763  11.995  16.082  0.2037 -0.0233 -0.1051
 7022W        W22153   9.679   0.074  16.041  0.4451 -0.0005  0.1821
 7023W        W22154  13.277   0.228  14.229 -0.2593 -0.2548 -0.3251
 7024W        W22155   3.685   3.704  11.784  0.1807  0.0571 -0.2376
 7025W        W22156  11.447   5.739  12.540  0.0316 -0.2940 -0.2069
 7026W        W22157   3.815  11.020   0.338  0.1314 -0.4649  0.4639
 7027W        W22158   0.329   4.570  12.740 -0.0769 -0.0583 -0.0081
 7028W        W22159  12.976   7.797   3.963  0.1033  0.2732  0.0963
 7029W        W22160  12.611  14.709   1.731  0.0621 -0.0213  0.1256
 7030W        W22161  17.931   3.329  13.842 -0.0602  0.0630 -0.0835
 7031W        W22162  17.532  10.514  15.476  0.0194 -0.2374 -0.1458
 7032W        W22163   3.859   1.663   2.333 -0.2262  0.2859 -0.1674
 7033W        W22164  13.450  15.502  15.429 -0.1826 -0.3035  0.0561
 7034W        W22165   7.004   0.935   0.221 -0.1075 -0.2122  0.1933
 7035W        W22166  16.504   0.713   2.721  0.1437 -0.0286  0.2776
 7036W        W22167  17.071   0.519  12.120  0.1154  0.3334 -0.1382
 7037W        W22168  10.886   5.435  12.959 -0.0477  0.1155 -0.1352
 7038W        W22169   4.488   2.176   2.552  0.1097 -0.0548 -0.3203
 7039W        W22170  13.638   9.052  15.994 -0.1125  0.1149 -0.0499
 7040W        W22171  13.652  12.909  14.028  0.1534 -0.1006  0.0447
 7041W        W22172  11.341   4.561  14.543  0.0545  0.1013  0.2630
 7042W        W22173   0.168   9.646  13.175 -0.0548  0.3114 -0.1338
 7043W        W22174  17.498   5.393   5.839  0.1877  0.0567  0.0230
 7044W        W22175   8.858   3.726  14.186  0.1192  0.0252  0.1052
 7045W        W22176  10.707   3.582   3.735  0.0792 -0.0086  0.1176
 7046W        W22177   3.982   7.801   1.665 -0.0232 -0.0769 -0.1463
 7047W        W22178   6.927  17.038   1.065  0.4463 -0.1393  0.4089
 7048W        W22179  15.531   8.098  14.302 -0.0480  0.1814 -0.3038
 7049W        W22180   6.625  16.398   4.171 -0.0249  0.0342 -0.0724
 7050W        W22181  11.997  13.383   2.178 -0.3048 -0.1550  0.0818
 7051W        W22182   2.864   0.329  13.441 -0.2532 -0.0196 -0.2093
 7052W        W22183  11.151  11.729   5.270  0.1835 -0.0503 -0.0474
 7053W        W22184   1.052  16.742  15.300  0.1025 -0.0089  0.0377
 7054W        W22185   1.959   9.463  11.910 -0.3672  0.3269 -0.0061
 7055W        W22186   2.083  17.210   2.411  0.1089  0.1703 -0.1533
 7056W        W22187   1.595  13.696   0.638  0.0882  0.0090  0.0547
 7057W        W22188   7.645   2.114   0.222 -0.0463 -0.0104  0.0298
 7058W        W22189  11.302  13.872  12.500  0.0269 -0.2319 -0.0490
 7059W        W22190  14.633  18.052  16.003  0.1662  0.2018  0.1876
 7060W        W22191   5.718  17.675  12.625  0.0769  0.3025  0.2511
 7061W        W22192  14.804  14.599   4.380  0.0782  0.1200  0.1977
 7062W        W22193   3.547  11.050   2.932  0.0769 -0.2394  0.4756
 7063W        W22194  10.034   3.074  14.938 -0.0695  0.1426 -0.1781
 7064W        W22195   8.317  12.527   5.298  0.2322 -0.2766  0.2278
 7065W        W22196  12.879   2.103   3.344 -0.0608  0.0304  0.1735
 7066W        W22197  18.082   4.718  13.961  0.0713 -0.0995 -0.0257
 7067W        W22198   8.289   8.464  14.225 -0.1123  0.3505 -0.0882
 7068W        W22199  12.144   4.153   4.222  0.2567 -0.0021 -0.0136
 7069W        W22200  17.939   3.485  12.387  0.0107  0.2417  0.1572
 7070W        W22201  14.686  14.089   3.096 -0.0085 -0.2977  0.1988
 7071W        W22202  16.707   3.107  10.933  0.4480 -0.1200  0.1270
 7072W        W22203  16.315  12.716   1.168 -0.0736  0.1677  0.0471
 7073W        W22204  11.174   6.882   3.100 -0.0631  0.0120  0.1870
 7074W        W22205   5.046  13.401  15.603  0.1394  0.0310  0.2813
 7075W        W22206   4.249   1.976   0.116 -0.0903  0.2594  0.0495
 7076W        W22207  11.296  15.736   5.204 -0.0700  0.0676 -0.3672
 7077W        W22208   0.404   2.926   5.932 -0.2198 -0.0755  0.3030
 7078W        W22209  17.801   2.348  12.250 -0.1310 -0.1478  0.1430
 7079W        W22210   7.338   3.977   2.729  0.1768  0.4844  0.4170
 7080W        W22211  13.786   5.323   0.354  0.3395  0.1043 -0.0005
 7081W        W22212   0.040   4.313  10.692 -0.0492  0.0099  0.1389
 7082W        W22213   7.828  14.292   4.125  0.4044  0.3526  0.0430
 7083W        W22214   1.122   5.509   2.915 -0.0705 -0.0196  0.0508
 7084W        W22215   5.317   4.413   1.260 -0.1405  0.0129 -0.1006
 7085W        W22216   3.407   8.172  12.091 -0.2789 -0.1240  0.0080
 7086W        W22217   8.024  10.948  15.013 -0.3346 -0.0812  0.0049
 7087W        W22218   7.649   8.848  12.472  0.0837  0.2901  0.2418
 7088W        W22219   7.161  11.495  15.250 -0.0241 -0.0250 -0.0143
 7089W        W22220  11.958   4.317  10.774  0.0989  0.1220 -0.3234
 7090W        W22221  11.446  15.955   0.578  0.2878 -0.0260 -0.2979
 7091W        W22222  16.232  10.079   3.239  0.0541 -0.0975  0.1133
 7092W        W22223  14.284   3.886  14.402 -0.0740  0.1284  0.1855
 7093W        W22224  18.004   0.614   4.263 -0.1469  0.2698 -0.0269
 7094W        W22225   6.557   8.975   0.140 -0.1033  0.0485  0.0685
 7095W        W22226   7.203  17.263   3.592 -0.1186  0.0575  0.1008
 7096W        W22227   7.851   3.580  13.422  0.3124 -0.1163  0.0344
 7097W        W22228  13.871  15.186   1.314 -0.1641  0.1190  0.1764
 7098W        W22229  12.819   7.985   3.275  0.0465 -0.0552 -0.0248
 7099W        W22230  12.027   6.901  15.474 -0.1583  0.0373 -0.1353
 7100W        W22231  18.021  16.449   5.655  0.2143  0.0305 -0.2375
 7101W        W22232   3.961   0.189   5.190 -0.2065 -0.0801 -0.1033
 7102W        W22233   2.227   9.961   5.650 -0.2549 -0.1306  0.1503
 7103W        W22234   3.596   8.926   3.772  0.0788 -0.1925  0.1726
 7104W        W22235  15.156   5.948  15.642  0.2575 -0.0087 -0.1652
 7105W        W22236   7.433  15.245   2.350  0.1158 -0.0354 -0.0552
 7106W        W22237  14.989  17.560   5.187 -0.0466  0.0210  0.1832
 7107W        W22238   5.743   1.625  13.543 -0.0828 -0.2052 -0.1317
 7108W        W22239  11.190   7.773  14.740 -0.1450 -0.2083  0.1662
 7109W        W22240  12.380   2.020  11.599  0.2290 -0.0384  0.1174
 7110W        W22241   8.241  16.812  14.935 -0.2772 -0.1122 -0.2784
 7111W        W22242   7.770  16.905  11.122 -0.0003 -0.2301  0.1104
 7112W        W22243  17.165   1.251   2.895  0.1878 -0.2343  0.0089
 7113W        W22244   5.094   6.991   3.258  0.1074  0.1413 -0.0197
 7114W        W22245   3.840  15.370   4.706  0.1928 -0.0240  0.0376
 7115W        W22246   4.265  14.311   3.229 -0.2054  0.2065 -0.4572
 7116W        W22247   6.970  12.495   3.283 -0.2797 -0.3765  0.2037
 7117W        W22248   6.971   8.916  15.620  0.2497 -0.0629 -0.1165
 7118W        W22249  11.167  15.495   0.553 -0.0348 -0.0922 -0.2598
 7119W        W22250  15.254  11.598   1.561  0.2098 -0.2840  0.0258
 7120W        W22251   6.644  13.880   9.968  0.1915  0.2035  0.1076
 7121W        W22252  17.717   1.325  13.164  0.2086 -0.1169  0.0379
 7122W        W22253  11.740  10.415  11.716  0.1058  0.0724 -0.1967
 7123W        W22254   5.961  12.487  12.378 -0.4469 -0.0434  0.0445
 7124W        W22255  14.080   0.653   3.058 -0.0201 -0.1898  0.1229
 7125W        W22256   7.177   1.266  14.681 -0.3595  0.1312 -0.0065
 7126W        W22257  16.338  15.035  15.900  0.2740  0.1545 -0.1843
 7127W        W22258  10.655  17.128  12.981  0.0159 -0.3450 -0.2227
 7128W        W22259   8.042  15.895  14.647  0.1766  0.1372 -0.2570
 7129W        W22260   2.344   5.940   1.668 -0.2488 -0.1766  0.0572
 7130W        W22261  11.960   7.257  12.393  0.1012 -0.0593  0.0935
 7131W        W22262  10.066  13.918   0.290  0.0321  0.0089 -0.0258
 7132W        W22263  11.712  12.278  15.945 -0.0925  0.3738 -0.1516
 7133W        W22264  12.582  15.863   0.155  0.0471 -0.2241 -0.0163
 7134W        W22265  14.776  17.241  12.327  0.1719 -0.1115 -0.0588
 7135W        W22266  10.236  17.423   2.069  0.0244  0.1613 -0.1167
 7136W        W22267   8.156   8.898  12.478 -0.1317  0.1177  0.0037
 7137W        W22268  15.347   1.794  13.407 -0.0506  0.0350 -0.3561
 7138W        W22269   9.490   5.763  14.499 -0.0651  0.2063 -0.1528
 7139W        W22270   1.912  11.034  14.390  0.1719 -0.0422  0.0807
 7140W        W22271  17.566  12.710   1.972 -0.0343 -0.2649 -0.0626
 7141W        W22272   3.742   6.227  14.179 -0.1923  0.3554  0.0691
 7142W        W22273   2.445  17.405  12.947 -0.0346 -0.0909  0.0052
 7143W        W22274  17.391   3.815  10.278 -0.0605  0.1330 -0.0696
 7144W        W22275  11.964   2.004   3.096  0.1944  0.3077  0.0852
 7145W        W22276  16.302  12.965  15.919 -0.2325 -0.1291 -0.1707
 7146W        W22277  13.515   4.070   5.014 -0.1400  0.2895  0.2005
 7147W        W22278   2.126  12.099   0.071  0.1497  0.1983 -0.1072
 7148W        W22279   1.469   4.976   5.405 -0.2232  0.1069 -0.0301
 7149W        W22280   4.352   5.268   2.195 -0.1220 -0.0969  0.0451
 7150W        W22281   0.636   2.333   5.130 -0.0481 -0.1155 -0.2334
 7151W        W22282  16.599  11.580  13.627  0.3909 -0.1169  0.3105
 7152W        W22283  16.604   2.668   1.608  0.2427 -0.2221  0.3096
 7153W        W22284   6.200   5.038   2.295 -0.3443  0.1603 -0.1396
 7154W        W22285   7.442  17.647  15.214 -0.0454 -0.0820 -0.1921
 7155W        W22286  11.365   5.029   1.511 -0.2656 -0.1393 -0.2237
 7156W        W22287  16.465   3.943  12.255  0.1786 -0.0633  0.4081
 7157W        W22288   9.806   2.980  11.609 -0.0977  0.3193 -0.2546
 7158W        W22289   0.833   5.821   2.680  0.1208 -0.2227  0.0617
 7159W        W22290   2.829  12.891  13.483 -0.0455  0.0074  0.1631
 7160W        W22291  13.288  16.036   6.151  0.0968 -0.1881 -0.0368
 7161W        W22292   2.455   2.949   3.599 -0.1183 -0.2288  0.2791
 7162W        W22293  11.772  17.309  15.533  0.0353 -0.1850  0.1037
 7163W        W22294  17.145   8.386  10.848 -0.0622 -0.1154 -0.3260
 7164W        W22295   7.527   6.524   4.164 -0.0798  0.1275  0.0199
 7165W        W22296   0.934  11.569   2.863 -0.0842  0.1949 -0.1524
 7166W        W22297   4.053   5.034  11.864 -0.0231 -0.2473 -0.3707
 7167W        W22298   0.714  12.604  12.815 -0.3545  0.1019 -0.2268
 7168W        W22299   1.119   1.058  13.738  0.0753  0.1517 -0.2499
 7169W        W22300   0.623  16.587   2.089  0.2663  0.3069  0.0603
 7170W        W22301   1.158  10.281   4.277 -0.0007 -0.1241  0.1624
 7171W        W22302  13.443   5.117  16.212  0.1892  0.0705  0.0192
 7172W        W22303  11.926   6.398  10.906  0.0392  0.0778  0.0646
 7173W        W22304   4.829  16.153  15.971 -0.0304  0.0222  0.0337
 7174W        W22305   9.854  10.548  13.982 -0.2112 -0.1090  0.3761
 7175W        W22306   7.513   4.875   2.027 -0.0867 -0.0708  0.1694
 7176W        W22307  10.067   0.872  14.703 -0.0073 -0.1379  0.2633
 7177W        W22308   5.597   9.148  11.667 -0.0507  0.0513  0.1999
 7178W        W22309  13.490   4.104  14.287  0.3588  0.1750  0.2021
 7179W        W22310   5.205   5.464   5.325 -0.1124 -0.1203  0.2254
 7180W        W22311   6.164   8.424   4.929  0.0163 -0.0384  0.0655
 7181W        W22312   3.840  10.671  14.247 -0.0978 -0.0364 -0.1153
 7182W        W22313   5.714  15.614   1.238 -0.0298  0.1557 -0.1838
 7183W        W22314  11.651  13.903   5.850  0.0415  0.0102 -0.1006
 7184W        W22315  15.307  10.509  15.115  0.0420 -0.0706  0.1905
 7185W        W22316  17.054   5.976   3.321 -0.0628  0.0308  0.1208
 7186W        W22317   0.671  10.507  15.547 -0.1415  0.1287 -0.0023
 7187W        W22318   6.399  15.599  15.157  0.1557 -0.0558 -0.1810
 7188W        W22319   8.901   6.088   2.611  0.0734  0.0041 -0.3077
 7189W        W22320   5.008   2.892   5.082  0.1055 -0.3525 -0.0241
 7190W        W22321   7.181  16.142  15.138 -0.2744  0.1021 -0.0809
 7191W        W22322   7.195  16.682  10.873 -0.1445 -0.1321  0.1026
 7192W        W22323  10.766   1.940  15.437 -0.0390 -0.2991  0.1578
 7193W        W22324  10.379   2.282  12.008  0.1787 -0.3748 -0.3005
 7194W        W22325  13.764   7.196   1.217  0.2889  0.1581 -0.3824
 7195W        W22326   5.256   6.685   2.283  0.1158 -0.0325  0.0660
 7196W        W22327   5.815  13.729  16.025 -0.3828  0.1887  0.2852
 7197W        W22328  14.126  10.971  14.292  0.2287 -0.0815  0.2818
 7198W        W22329  12.064   9.726   0.939  0.1698  0.1431 -0.1532
 7199W        W22330   0.348   4.119  14.102 -0.0347 -0.0259  0.2817
 7200W        W22331   6.576   3.519   2.984 -0.0405 -0.2296  0.3089
 7201W        W22332  11.278  15.908  15.091 -0.1496  0.0438  0.1573
 7202W        W22333   6.427   9.576  12.634  0.0066 -0.2048  0.0617
 7203W        W22334   5.933   6.443  13.409  0.0547 -0.0677  0.1082
 7204W        W22335   3.180   0.191   0.323 -0.2446  0.1357 -0.1715
 7205W        W22336  12.371  16.540   1.869 -0.0156 -0.1918 -0.0064
 7206W        W22337   4.826  10.087  14.602  0.0872  0.1796 -0.3179
 7207W        W22338  12.024   3.549  12.453  0.1906 -0.0208 -0.0335
 7208W        W22339   0.985   9.015   3.209 -0.2196 -0.2192  0.0195
 7209W        W22340   4.145   1.423   4.571 -0.0981  0.0510  0.2106
 7210W        W22341  12.756   7.336  16.218  0.1049 -0.0269  0.2047
 7211W        W22342   0.590  11.581  16.231 -0.0102 -0.0302 -0.4417
 7212W        W22343  14.603  11.293  12.758  0.1261 -0.2394 -0.1037
 7213W        W22344  14.835  11.224   3.817  0.1143 -0.0664  0.2635
 7214W        W22345  14.187   8.141   4.290 -0.2735 -0.1721 -0.0449
 7215W        W22346  17.364   8.747   2.091  0.1862 -0.1532  0.0464
 7216W        W22347  15.302   8.990   2.431 -0.0780 -0.0741  0.0925
 7217W        W22348  13.356   3.995   4.118  0.0484  0.0540 -0.1434
 7218W        W22349   0.513   6.746  13.492 -0.2115  0.3397 -0.1964
 7219W        W22350  16.371  11.269   2.305 -0.3215  0.0475 -0.1943
 7220W        W22351   8.098   3.607   3.268  0.0044  0.0249 -0.4948
 7221W        W22352  12.396   7.245  14.346 -0.2589  0.0126  0.2186
 7222W        W22353  13.006   3.347   0.550  0.0402 -0.2507 -0.1916
 7223W        W22354   4.844  10.845   1.040 -0.2381  0.0929 -0.0462
 7224W        W22355  11.255   3.737   4.964  0.2932  0.0893  0.0880
 7225W        W22356   5.221  13.536   0.183  0.1274  0.3129  0.2121
 7226W        W22357   0.130   4.947   5.293  0.1123 -0.0123  0.1601
 7227W        W22358   3.586   3.476   2.116  0.2315 -0.1447  0.1237
 7228W        W22359  11.866   1.260   2.370 -0.2145 -0.2227  0.3710
 7229W        W22360  13.625  10.302   2.389 -0.1565 -0.0765  0.0854
 7230W        W22361   4.618   0.594   5.041  0.1642 -0.1493 -0.2345
 7231W        W22362   3.879   9.024   2.140 -0.2537  0.1012 -0.1115
 7232W        W22363   2.251  12.084  15.407  0.0114  0.3004  0.2224
 7233W        W22364  12.588  12.095  12.824 -0.0834 -0.0210 -0.2503
 7234W        W22365   8.798   8.518   1.491 -0.0311  0.2632  0.0434
 7235W        W22366   0.826   4.476  16.058 -0.1076  0.0253 -0.2112
 7236W        W22367  13.624   9.288   4.754  0.0182 -0.1357 -0.0473
 7237W        W22368   6.949   3.719  13.741  0.1106  0.0908 -0.0235
 7238W        W22369   2.984   5.736  11.841  0.0751  0.1329  0.2402
 7239W        W22370   7.771   0.234   4.195 -0.1352  0.0773  0.1206
 7240W        W22371   7.104  16.669  14.135 -0.0417  0.0166 -0.0052
 7241W        W22372   3.421  11.634   4.896 -0.1220 -0.0373  0.0639
 7242W        W22373   4.883  13.267   3.912 -0.0753 -0.3213  0.1127
 7243W        W22374   1.414   5.094   1.657 -0.0671 -0.2208 -0.3596
 7244W        W22375   2.715  10.964   0.315 -0.0478  0.1350 -0.0400
 7245W        W22376   9.228   6.091  14.190  0.1542  0.0191  0.0907
 7246W        W22377  17.102   7.137   2.723 -0.3701 -0.0164  0.0535
 7247W        W22378  11.155   2.980   5.328  0.2336 -0.0384  0.1076
 7248W        W22379   4.489  15.832  10.496  0.2871 -0.1359  0.1235
 7249W        W22380   5.971  14.384   2.301  0.0238  0.1886 -0.2348
 7250W        W22381   2.888   0.193   0.704  0.0457 -0.0635 -0.2544
 7251W        W22382   5.722   5.424  11.056  0.1042 -0.0316  0.1622
 7252W        W22383   6.030  10.389   0.661 -0.3784  0.3136  0.2290
 7253W        W22384  13.722   8.171   5.462 -0.2657 -0.1145 -0.1152
 7254W        W22385  13.213  11.412   3.061  0.1225  0.1332 -0.2174
 7255W        W22386   9.902  10.315   0.625  0.0728  0.1507  0.0739
 7256W        W22387  10.984  15.860   2.695 -0.0869  0.1130 -0.1679
 7257W        W22388  10.638   7.875  14.607  0.1564 -0.0805  0.0573
 7258W        W22389  11.339  10.928   4.386 -0.0754  0.1958  0.1477
 7259W        W22390  10.893  14.879   4.860  0.0945  0.0684  0.0456
 7260W        W22391   9.727   8.928   0.288  0.0044  0.3312 -0.1685
 7261W        W22392  17.817  11.341   4.337 -0.0589  0.1998 -0.1529
 7262W        W22393  10.000   0.069   1.482  0.1548 -0.1674  0.2034
 7263W        W22394   2.610   5.634   0.462  0.1431 -0.0680  0.0095
 7264W        W22395   1.363   5.018   3.103  0.0227  0.0243 -0.2039
 7265W        W22396  11.108   3.891  15.978  0.0184  0.0357  0.1054
 7266W        W22397   3.269   3.814   1.151  0.1135 -0.1981 -0.2720
 7267W        W22398   6.852   3.736  12.236  0.0554 -0.1434 -0.0295
 7268W        W22399   9.624   6.493   6.296  0.0388 -0.1527  0.4095
 7269W        W22400  17.999  15.952  13.696  0.0826 -0.0804 -0.1309
 7270W        W22401   0.291  15.055   6.022  0.4301  0.2358  0.1278
 7271W        W22402   2.804  12.208  13.065  0.1892  0.1209 -0.1863
 7272W        W22403  18.030  10.119   0.436  0.0336  0.0390  0.0834
 7273W        W22404   5.496   8.624  15.253  0.2361 -0.1363 -0.1697
 7274W        W22405   1.299   4.009   4.005 -0.1435 -0.1402 -0.1197
 7275W        W22406  14.902   5.651  15.222  0.0867 -0.1445  0.0883
 7276W        W22407   8.659  10.981  13.484  0.0764 -0.2981  0.0992
 7277W        W22408   5.368  14.164   1.590  0.0834 -0.0276 -0.0858
 7278W        W22409   9.234   0.568  13.058 -0.0833  0.2668  0.0740
 7279W        W22410  11.102   3.333  11.831  0.0411 -0.2803 -0.0839
 7280W        W22411  15.776  14.702   0.614  0.1438  0.0122  0.0560
 7281W        W22412   0.970   4.123  11.140 -0.2628 -0.0896 -0.1171
 7282W        W22413  11.578  13.396   5.816  0.1019 -0.1307 -0.1679
 7283W        W22414  14.569   3.381  11.347  0.2409  0.2498 -0.1199
 7284W        W22415  13.237   2.426  12.365 -0.2131 -0.3661 -0.1617
 7285W        W22416   9.189   0.993   4.036  0.1758  0.1116 -0.1578
 7286W        W22417   7.974  15.212   1.411  0.0298 -0.2988 -0.0865
 7287W        W22418   5.879   6.812  12.944  0.0305 -0.0517  0.0771
 7288W        W22419   8.439   0.281  15.634  0.0203 -0.0586  0.2231
 7289W        W22420   7.535   8.315   2.603 -0.1081 -0.0089  0.0783
 7290W        W22421   8.325   6.338  13.005  0.2613 -0.2171  0.0060
 7291W        W22422  15.524  15.516   6.206 -0.0062 -0.2246  0.1145
 7292W        W22423   4.903  11.218   0.103  0.3455  0.1020  0.3389
 7293W        W22424  11.257   2.046  10.549 -0.1158 -0.1356 -0.1078
 7294W        W22425   5.052   1.770   0.286 -0.0747 -0.2867  0.0235
 7295W        W22426   1.911   9.694  13.341  0.3750  0.1826  0.0339
 7296W        W22427  16.642   0.386   0.367 -0.0956  0.0774 -0.0904
 7297W        W22428   7.008  13.251   5.928  0.0177  0.0010  0.1114
 7298W        W22429   4.805  10.764  15.304 -0.1128 -0.0077 -0.2590
 7299W        W22430  10.885  14.075   3.795  0.0604 -0.3786  0.0501
 7300W        W22431  10.203  14.826  15.445  0.1600  0.1638 -0.2202
 7301W        W22432   4.294   4.389   2.888 -0.3785  0.0134 -0.1551
 7302W        W22433   3.603   0.880   4.046 -0.0246  0.0834 -0.1159
 7303W        W22434   2.587  12.726  14.011  0.3424  0.2634  0.1966
 7304W        W22435   4.126  13.545  11.016 -0.4364 -0.2523 -0.1124
 7305W        W22436   6.929  10.979   1.784  0.1190 -0.4105 -0.0051
 7306W        W22437   8.209   9.489   3.552 -0.2144 -0.4075  0.0454
 7307W        W22438  14.017   7.930   2.525  0.0776 -0.0078  0.2362
 7308W        W22439   3.327   9.552   0.220  0.3118 -0.1184 -0.1372
 7309W        W22440   3.186  17.896  12.005  0.0668  0.0284 -0.1206
 7310W        W22441  11.022   9.862   2.174  0.0212 -0.1649 -0.2512
 7311W        W22442   2.833  12.961   9.535 -0.0744 -0.0816  0.1894
 7312W        W22443  15.272   3.670   3.271 -0.0519 -0.1219  0.2124
 7313W        W22444   0.737   1.083   2.318 -0.0160 -0.1960  0.1353
 7314W        W22445   0.975   5.070   1.408  0.0043 -0.0912  0.0609
 7315W        W22446  14.889  16.276   3.781 -0.0808 -0.1122  0.0176
 7316W        W22447  11.848   8.277  12.813  0.0349 -0.3205 -0.0912
 7317W        W22448  16.718  17.717   2.046 -0.0500  0.1348 -0.1007
 7318W        W22449  16.229  16.253  12.405 -0.1275  0.1802  0.4590
 7319W        W22450   5.766  13.520  15.106 -0.0962 -0.3563 -0.0080
 7320W        W22451   7.415   3.719  13.616  0.1264  0.4325 -0.0192
 7321W        W22452  12.638   4.939  14.706  0.1301  0.1446 -0.0312
 7322W        W22453  16.083   2.572  13.430 -0.3236 -0.1685 -0.2617
 7323W        W22454  16.947   8.472   2.920 -0.0708 -0.2510 -0.0381
 7324W        W22455   1.300  11.805  12.888  0.0296  0.0334 -0.1244
 7325W        W22456  17.215   1.071  10.878 -0.3482 -0.1794 -0.0873
 7326W        W22457  15.599  10.824   0.968 -0.0169  0.1544  0.4282
 7327W        W22458  10.190  13.445   0.329 -0.2705  0.0276 -0.2151
 7328W        W22459   9.082  10.923   5.009  0.5763  0.1034  0.0133
 7329W        W22460  10.477   4.296  15.994  0.0219  0.1750  0.3333
 7330W        W22461  12.287   5.813   1.975  0.0222 -0.1874 -0.1646
 7331W        W22462   1.271  16.086   3.756  0.1266  0.1768 -0.3353
 7332W        W22463   3.184   9.862   0.599 -0.0856 -0.0484 -0.1129
 7333W        W22464  13.338  11.031   4.800 -0.3864  0.1374 -0.1327
 7334W        W22465   3.377   1.061   0.647 -0.1453 -0.0179 -0.3140
 7335W        W22466  17.766   6.711   0.104 -0.0921  0.1982  0.3165
 7336W        W22467  16.506   5.119  11.611  0.1967  0.0434  0.0465
 7337W        W22468  16.797   2.569  11.626 -0.0724  0.2828  0.1234
 7338W        W22469  12.474   1.108  11.290  0.1009 -0.1894  0.1418
 7339W        W22470  12.232   1.545   4.269  0.3094 -0.3346 -0.1586
 7340W        W22471   6.699   6.669  13.245 -0.1790  0.0725  0.0834
 7341W        W22472   2.728  14.527  15.160 -0.1903 -0.1394  0.0929
 7342W        W22473  15.446   3.936   2.504 -0.1906 -0.1052  0.3472
 7343W        W22474   8.778   2.254   5.068  0.1483  0.2744  0.0600
 7344W        W22475   4.418  17.731  15.826 -0.0852 -0.0829  0.4846
 7345W        W22476  12.468  13.199  11.514  0.4628  0.0223 -0.1098
 7346W        W22477  11.627   5.392   1.216 -0.0250 -0.1116  0.2439
 7347W        W22478  14.287  15.235   0.002 -0.0793 -0.0265  0.3064
 7348W        W22479  12.880   9.353   3.115  0.2310 -0.0439 -0.2241
 7349W        W22480  12.320  13.524   0.266 -0.2051  0.1579 -0.1477
 7350W        W22481  15.943   9.975   3.777  0.3081 -0.2254  0.1954
 7351W        W22482   9.868  13.511   2.064 -0.0608 -0.1379 -0.0295
 7352W        W22483  16.585  16.654  12.371  0.2455 -0.1701  0.1291
 7353W        W22484  12.680  14.229  16.203  0.0915  0.0320  0.0150
 7354W        W22485   9.102  17.424   2.532  0.0047  0.1398  0.1981
 7355W        W22486  12.523  10.671   0.639 -0.1560 -0.1200  0.2769
 7356W        W22487   8.122  10.017  12.066 -0.2249 -0.1322  0.1432
 7357W        W22488  11.532  17.577  10.977  0.1660  0.1195  0.1692
 7358W        W22489  15.399  13.898  11.352 -0.0706 -0.3403 -0.0488
 7359W        W22490   7.858   5.727  14.385  0.1936  0.1180  0.0237
 7360W        W22491  16.920  12.474  14.721  0.0894  0.0294 -0.2764
 7361W        W22492   8.473   6.345  13.469  0.4481  0.1657 -0.0197
 7362W        W22493  14.972  13.795   5.016  0.0339  0.0348 -0.4212
 7363W        W22494   8.556   6.080  14.825 -0.3829  0.0135  0.2111
 7364W        W22495  13.555   4.038  13.755  0.0991 -0.3865 -0.0179
 7365W        W22496   9.967   7.097  15.810  0.1716  0.0272  0.2749
 7366W        W22497  14.200  17.015  10.690 -0.3728  0.0679 -0.3900
 7367W        W22498   8.411   3.680   3.624 -0.1136 -0.0521 -0.0371
 7368W        W22499   1.860   2.473   0.212  0.0877 -0.4376 -0.1832
 7369W        W22500   3.543  16.098   3.294 -0.1915 -0.0462 -0.1286
 7370W        W22501   7.359   9.072  16.044  0.2214  0.4391  0.1507
 7371W        W22502   3.355   5.891   2.488 -0.2277  0.0648  0.0575
 7372W        W22503  14.872   1.176   3.370 -0.0677 -0.0878 -0.1312
 7373W        W22504   1.149  12.803   4.706  0.4781 -0.3144 -0.1910
 7374W        W22505   8.993  12.123  14.332  0.1263 -0.3900  0.1715
 7375W        W22506  16.211   5.516  10.913 -0.1949  0.0118  0.1640
 7376W        W22507  15.843   0.105  15.507 -0.2712  0.0401 -0.3953
 7377W        W22508   1.437   4.514   0.233 -0.0935 -0.4102  0.0498
 7378W        W22509  16.276   1.138   5.061 -0.0836  0.1246  0.1016
 7379W        W22510  12.764  11.149   1.906  0.1918 -0.0464 -0.3911
 7380W        W22511   7.941  13.586  11.660  0.1000  0.1614  0.3503
 7381W        W22512   3.365  15.095   9.883 -0.0223 -0.1734  0.0710
 7382W        W22513  13.010   2.644  14.675 -0.1461 -0.1672  0.0925
 7383W        W22514   5.091  14.248   3.429 -0.2022 -0.1272 -0.0599
 7384W        W22515   0.456   2.267  13.896 -0.1479  0.0853 -0.0199
 7385W        W22516  17.290   1.883  13.807 -0.2105  0.0242  0.1360
 7386W        W22517   3.977   3.926   5.369  0.0506  0.1600  0.2786
 7387W        W22518   8.564   1.884  15.000 -0.2023 -0.0654 -0.0687
 7388W        W22519  17.553  13.750   2.836 -0.2387 -0.2862  0.2098
 7389W        W22520  12.910   6.393   4.654 -0.3917  0.1253 -0.1555
 7390W        W22521   7.220   9.177  11.265  0.0465 -0.2373 -0.2310
 7391W        W22522  13.157  15.720   1.025  0.0726  0.0666  0.1213
 7392W        W22523   1.385  11.478  10.957 -0.1075 -0.0533  0.2584
 7393W        W22524   6.628  16.453  11.403  0.0270  0.1668  0.1523
 7394W        W22525   6.452   0.765   5.364 -0.2250 -0.1810 -0.3452
 7395W        W22526   2.485   0.676  11.163  0.1213  0.0317 -0.0975
 7396W        W22527   7.983  14.502  13.661 -0.2539 -0.2896 -0.0691
 7397W        W22528  17.154   4.311  15.574 -0.0910  0.0483  0.1184
 7398W        W22529   4.548  13.413  10.764 -0.1215  0.0692 -0.0176
 7399W        W22530  10.620   8.516  12.820 -0.1916  0.1668 -0.0657
 7400W        W22531   7.631   6.654  13.812 -0.2070  0.0681 -0.0667
 7401W        W22532   6.175   2.114  12.767  0.1318 -0.2497  0.2144
 7402W        W22533   9.813   5.024   0.257 -0.0640  0.2064 -0.4755
 7403W        W22534   8.526   2.353  12.110 -0.0967 -0.0844  0.2224
 7404W        W22535   9.901  16.109   0.390 -0.0152  0.0255  0.0595
 7405W        W22536  13.772   8.766  11.488  0.1890 -0.0336 -0.0019
 7406W        W22537  13.599   2.540  13.304 -0.0077 -0.4215  0.0663
 7407W        W22538   9.157   3.405   1.517 -0.1428 -0.0404 -0.0692
 7408W        W22539   4.170   1.273   5.265  0.2123  0.2520 -0.0159
 7409W        W22540   1.411   4.578   1.438 -0.1612 -0.1721 -0.6245
 7410W        W22541   1.081  15.786   5.377  0.0281 -0.2579 -0.3676
 7411W        W22542   4.932   8.964  12.279 -0.0343 -0.0570 -0.0357
 7412W        W22543   3.158   9.487   2.409  0.3319 -0.2792  0.0183
 7413W        W22544  14.793  15.398   4.085 -0.1250 -0.0564  0.1069
 7414W        W22545  10.973   5.908   3.886 -0.1127 -0.2744 -0.0027
 7415W        W22546   9.387  15.972  15.733  0.2118  0.1034  0.2227
 7416W        W22547   3.023   2.460  10.233  0.0988  0.2274 -0.1442
 7417W        W22548   0.721  10.961   0.538 -0.1313  0.0495  0.0297
 7418W        W22549  14.226   3.342   0.593 -0.0513 -0.2080  0.2449
 7419W        W22550   8.303  13.566  12.972  0.1164 -0.1188 -0.0610
 7420W        W22551  15.290  15.434   5.350  0.0291 -0.0199 -0.1694
 7421W        W22552   0.560   1.056   0.075 -0.1555  0.0606 -0.2266
 7422W        W22553   3.652   9.282  10.884 -0.0291 -0.3436  0.2147
 7423W        W22554  16.531   4.875   5.551  0.0293 -0.1093 -0.3369
 7424W        W22555   4.747   4.321  13.611  0.1776  0.1765 -0.0242
 7425W        W22556  13.779  17.336  16.008 -0.1784 -0.0765 -0.0821
 7426W        W22557   1.416  16.422  13.467 -0.2522  0.0013  0.0741
 7427W        W22558   1.129  18.061   9.833  0.0704  0.1539  0.2981
 7428W        W22559   8.828   6.254   3.996 -0.0869  0.0852  0.0514
 7429W        W22560   9.077  15.482  13.827  0.1463  0.1591  0.0464
 7430W        W22561  13.856   6.983  11.040  0.0660 -0.0044 -0.0977
 7431W        W22562  14.703   6.818   2.627 -0.1917 -0.1007 -0.0861
 7432W        W22563   0.576   0.082  15.576  0.2021  0.2173  0.2578
 7433W        W22564   3.280   1.879  14.842 -0.2115  0.1207 -0.0968
 7434W        W22565  17.756   3.697   3.413  0.0769  0.2347  0.2038
 7435W        W22566  11.259  10.000   0.369 -0.1110  0.0626 -0.0997
 7436W        W22567  11.964   0.703  11.132  0.2397 -0.0705  0.0236
 7437W        W22568   4.493  15.043   4.172  0.0494  0.2605 -0.2747
 7438W        W22569  10.406  11.116  10.724  0.0752  0.0253 -0.2297
 7439W        W22570   0.122  12.005   1.682 -0.1202  0.0962  0.1832
 7440W        W22571  12.831   8.398  12.841 -0.0103 -0.1545 -0.2546
 7441W        W22572   7.681   5.186  13.769 -0.3214 -0.2427  0.2103
 7442W        W22573  17.204   9.750   2.841  0.2706 -0.1898 -0.3180
 7443W        W22574  14.136   5.328   0.820 -0.1746 -0.0873 -0.1692
 7444W        W22575   7.482   1.538  14.915  0.0359 -0.0836 -0.0880
 7445W        W22576   5.659   9.658   4.134 -0.1402  0.0981 -0.1125
 7446W        W22577  12.856  11.191   4.812  0.0360  0.0665  0.2337
 7447W        W22578  15.643   8.913   2.070  0.0173 -0.1760 -0.2303
 7448W        W22579   3.483   3.764  15.513 -0.2437  0.1170  0.4080
 7449W        W22580   9.806  14.742  11.432  0.1122 -0.0946 -0.2124
 7450W        W22581   4.375   4.583   3.355 -0.0286  0.3991  0.1983
 7451W        W22582   4.690  14.807   2.647 -0.1169 -0.1354  0.3339
 7452W        W22583   1.617   8.099   2.446 -0.1809  0.0164 -0.2646
 7453W        W22584   6.784   5.158  12.434  0.0761 -0.3538 -0.0662
 7454W        W22585  16.627   4.290  14.830 -0.0561 -0.4392  0.1069
 7455W        W22586   3.561   5.947  12.633 -0.1085 -0.0878 -0.2370
 7456W        W22587  13.547   3.275  12.157 -0.1199  0.1142  0.1063
 7457W        W22588   9.771   8.645   2.491  0.3098 -0.0938  0.2371
 7458W        W22589   8.652   7.194   3.408  0.1616 -0.1227  0.0851
 7459W        W22590   1.851   1.976  13.655  0.0795  0.2888 -0.0633
 7460W        W22591  17.030   6.088  15.497 -0.1774 -0.2031 -0.0889
 7461W        W22592  17.744   6.049   4.490 -0.2091 -0.1974  0.2175
 7462W        W22593  16.583   2.606   5.369  0.1471  0.0333  0.1640
 7463W        W22594  11.333   7.134   1.784  0.1984 -0.0311  0.3303
 7464W        W22595  13.996  15.916   2.097  0.0846 -0.0078  0.1339
 7465W        W22596  14.991   8.983  10.852 -0.1529  0.2069 -0.2815
 7466W        W22597  16.988  17.129   3.910  0.5077  0.0881  0.1361
 7467W        W22598  14.192   5.783   5.917 -0.0084 -0.1153  0.0217
 7468W        W22599  12.363   2.328   1.555  0.0013 -0.0945 -0.1275
 7469W        W22600  15.622  16.784   2.295  0.1367  0.1911  0.1122
 7470W        W22601  17.906   8.121  13.172  0.2816 -0.2010 -0.0034
 7471W        W22602   4.817   8.811  14.410  0.0745 -0.1672 -0.1085
 7472W        W22603  11.151  10.513  11.090  0.0264 -0.0712 -0.4210
 7473W        W22604  10.528  11.288   3.049 -0.0882  0.0490  0.1919
 7474W        W22605   7.078  14.064  14.617 -0.0225 -0.1578 -0.1763
 7475W        W22606  16.742   8.371  13.922  0.1101 -0.0338  0.2463
 7476W        W22607  16.913   6.277   4.044  0.1177  0.0632  0.1722
 7477W        W22608  14.094   5.538  15.175  0.1902  0.1917  0.2097
 7478W        W22609  14.500   8.529   5.014 -0.3085 -0.1304 -0.1763
 7479W        W22610   1.890  15.888   0.574 -0.1636  0.1375 -0.0772
 7480W        W22611   1.299   4.144  12.532 -0.2226  0.0119 -0.1040
 7481W        W22612   1.708   6.541   3.241  0.0678  0.1820 -0.0125
 7482W        W22613  14.801  10.767  13.579  0.1317 -0.2379 -0.1795
 7483W        W22614   9.671   0.005  15.122 -0.1935 -0.0076 -0.1081
 7484W        W22615   3.142   5.550   0.427  0.0692  0.1449 -0.0132
 7485W        W22616  10.966  15.365  12.842  0.2217 -0.1478  0.2306
 7486W        W22617  11.254   4.427  14.074 -0.0586  0.2756 -0.4012
 7487W        W22618   8.031   0.601  15.457 -0.0512 -0.1537  0.0813
 7488W        W22619   4.273   9.645  10.313  0.3232  0.1208  0.0093
 7489W        W22620  11.107  14.156   0.751  0.0624  0.0509  0.0894
 7490W        W22621   5.629  12.668   3.521 -0.3651 -0.2780 -0.0670
 7491W        W22622   5.695  12.843   1.996 -0.1120 -0.2541  0.1015
 7492W        W22623  13.130   3.716  14.716 -0.2930  0.0712 -0.0640
 7493W        W22624   7.390  16.032   3.024 -0.2629 -0.0692 -0.0499
 7494W        W22625   1.447   0.220  13.380 -0.2559 -0.0353  0.1595
 7495W        W22626  13.424   0.318  15.093 -0.4163  0.1669  0.3385
 7496W        W22627   4.346   5.510   2.796  0.0313  0.0421 -0.0980
 7497W        W22628   8.142  14.368   4.642 -0.0330  0.1083  0.0730
 7498W        W22629  11.031   8.865   4.522  0.0876  0.2600 -0.0619
 7499W        W22630   0.219   7.358  12.250  0.5131 -0.1078  0.3006
 7500W        W22631  11.389   9.054   2.592  0.0138  0.2071 -0.0323
 7501W        W22632   8.490   0.790  11.301  0.1671 -0.1523  0.2704
 7502W        W22633   8.055   9.466   4.852 -0.0472 -0.0626  0.2638
 7503W        W22634  13.563   8.963   3.214 -0.1671  0.0097  0.5058
 7504W        W22635   3.226  16.895  11.741 -0.1759  0.0446 -0.0740
 7505W        W22636   6.886   2.083  11.324  0.0123  0.1109  0.3660
 7506W        W22637   1.053  13.844  15.852  0.1014 -0.2726  0.1176
 7507W        W22638   9.630   2.596   1.236 -0.1653 -0.0092 -0.0428
 7508W        W22639   5.420  15.236  15.951 -0.2337  0.0937  0.1442
 7509W        W22640  10.429  12.899  15.882 -0.3598 -0.0804 -0.2861
 7510W        W22641  14.622   7.330   0.823 -0.0815  0.0467  0.2544
 7511W        W22642  12.176  10.420  11.983 -0.0194 -0.1320 -0.1363
 7512W        W22643   1.321   1.217  14.245  0.2341 -0.0405 -0.0200
 7513W        W22644  17.146  14.340   2.566 -0.1216  0.1425 -0.0787
 7514W        W22645   9.079   1.943  14.597 -0.0851  0.1207  0.0854
 7515W        W22646  15.426   0.811   4.472  0.2269  0.1828 -0.1529
 7516W        W22647   0.246  14.296   4.748  0.0149  0.0673  0.2784
 7517W        W22648  11.243   2.554  12.305  0.1853  0.2657 -0.1436
 7518W        W22649  14.483   5.155  12.687  0.0788  0.2533  0.0880
 7519W        W22650  16.415  17.734  13.536  0.2925  0.0465 -0.0512
 7520W        W22651   9.132  17.789   3.599  0.0329 -0.0271 -0.0693
 7521W        W22652  12.739  15.678   2.672 -0.3023 -0.1256  0.1122
 7522W        W22653   6.044   3.071  14.725 -0.1257 -0.5142  0.0837
 7523W        W22654  16.702   2.376  15.464  0.1074  0.0016  0.0393
 7524W        W22655   8.029  10.143   1.263 -0.0130  0.0299 -0.1374
 7525W        W22656   0.915   4.415   5.746 -0.2259  0.0329  0.4419
 7526W        W22657  16.716  10.657   1.749  0.2050  0.0024 -0.0864
 7527W        W22658   8.062  18.100  10.952 -0.3366  0.0048 -0.1306
 7528W        W22659   9.868   6.581   0.997 -0.0834  0.1586  0.1725
 7529W        W22660  14.672  12.939   5.302  0.1096 -0.0163 -0.2659
 7530W        W22661  12.533  17.895   5.863 -0.1838 -0.1513 -0.3171
 7531W        W22662   6.769  13.284   5.096  0.3235  0.1026 -0.1640
 7532W        W22663   0.526  16.487   1.641 -0.0616 -0.0818  0.2328
 7533W        W22664  16.175   9.459  11.587 -0.0307  0.0702  0.0087
 7534W        W22665   9.147  13.598  12.924  0.0628 -0.1640 -0.3231
 7535W        W22666  13.400  11.608  13.690  0.0727  0.1406 -0.0103
 7536W        W22667  11.463   1.647  13.854  0.0603  0.1330  0.0968
 7537W        W22668   4.751   9.851  10.333 -0.0672  0.1447  0.0569
 7538W        W22669   8.718  13.065  11.708 -0.0208  0.1726 -0.0328
 7539W        W22670  13.364  11.948   5.416  0.2942 -0.4302 -0.0188
 7540W        W22671  15.519   2.324   3.762 -0.2272 -0.1367 -0.1021
 7541W        W22672  15.658   7.176   3.523  0.1183  0.1581  0.0242
 7542W        W22673  10.192   6.184  10.654  0.1327 -0.3735  0.1927
 7543W        W22674   7.838  11.294   4.944 -0.0663 -0.1744  0.0593
 7544W        W22675   5.175   8.909   5.494  0.0885 -0.0936  0.0835
 7545W        W22676   5.127   8.960  11.716  0.0616  0.1114  0.0454
 7546W        W22677  15.597   2.178   5.182 -0.0137 -0.2350  0.1731
 7547W        W22678   0.894   7.572  14.278  0.0176  0.2959 -0.2914
 7548W        W22679   3.256   8.456   1.635  0.1273  0.2283  0.0278
 7549W        W22680  11.272  12.081   4.894  0.2909 -0.3539 -0.1427
 7550W        W22681   5.611   7.388   5.203  0.2770 -0.1473 -0.2345
 7551W        W22682   9.946  16.763   0.874  0.0822  0.1501 -0.0246
 7552W        W22683   5.961  11.180   5.313  0.1660  0.2656  0.0756
 7553W        W22684  17.255  10.035   3.891  0.0252 -0.1560 -0.1420
 7554W        W22685   7.935   7.847  12.740  0.0405 -0.1182 -0.0645
 7555W        W22686  11.032   2.170  10.952 -0.0797  0.3539 -0.0630
 7556W        W22687  11.826  13.783   0.324 -0.0129 -0.0097  0.2281
 7557W        W22688  12.933  11.532   5.161 -0.3661 -0.2418  0.1088
 7558W        W22689  13.385   0.348  12.896  0.1125  0.0080  0.2903
 7559W        W22690   0.563   5.102  12.043  0.0531  0.4677 -0.1020
 7560W        W22691   2.077   2.338   3.555 -0.0565  0.0960  0.0012
 7561W        W22692   7.571  15.599   2.757 -0.0449 -0.3053 -0.0499
 7562W        W22693   7.095   0.454   3.618 -0.0062 -0.0799 -0.0406
 7563W        W22694  10.254   2.774  11.772 -0.1892 -0.1546 -0.0937
 7564W        W22695   6.042   1.145   0.635  0.0181  0.1666  0.2006
 7565W        W22696  12.926   5.992  14.107  0.2853  0.0014 -0.0667
 7566W        W22697  16.913   3.056  11.372 -0.0816 -0.0944  0.1162
 7567W        W22698   2.662  10.643   5.067  0.2565 -0.2111 -0.2073
 7568W        W22699   3.277  17.460  15.290  0.1249  0.1202 -0.2073
 7569W        W22700   3.981   9.937   5.558 -0.0305  0.2815 -0.2953
 7570W        W22701  13.416  10.168   5.925  0.4738  0.0705  0.1876
 7571W        W22702   6.182   9.327   5.114 -0.0102 -0.0445  0.2252
 7572W        W22703   9.199  13.873  11.338  0.0245  0.1974  0.2777
 7573W        W22704   0.886   3.988  14.271  0.2885  0.0428  0.0464
 7574W        W22705  12.896   1.671   0.628 -0.0834  0.2518 -0.0491
 7575W        W22706   5.453  16.294  15.695 -0.1407 -0.2966  0.2265
 7576W        W22707   7.374   4.995  11.653 -0.1062 -0.1908 -0.1338
 7577W        W22708   7.434   4.976   4.559 -0.0838 -0.1304 -0.2473
 7578W        W22709  12.063   7.883  11.399 -0.0010 -0.1156  0.1216
 7579W        W22710  17.269   4.973   1.624 -0.0258 -0.1124 -0.0196
 7580W        W22711   2.434   0.475   3.312  0.3806  0.3540  0.1916
 7581W        W22712  13.925   6.184   5.600 -0.2801 -0.0482 -0.0745
 7582W        W22713   3.007  14.177   1.155 -0.0360 -0.0234  0.2443
 7583W        W22714   1.321  16.640  15.697  0.1434 -0.0076 -0.2143
 7584W        W22715  15.861   9.575   3.446 -0.1378 -0.0817  0.1325
 7585W        W22716  17.137  14.177  14.822 -0.3278 -0.2174  0.1340
 7586W        W22717  11.725  16.629  12.092  0.1829 -0.3264 -0.0384
 7587W        W22718   2.485  14.425   1.309 -0.0157  0.3726 -0.0742
 7588W        W22719   8.760  15.598   3.941  0.1103 -0.1002  0.0534
 7589W        W22720   6.733   2.384  11.955  0.0201  0.1972  0.0657
 7590W        W22721  11.851  17.874  10.786  0.2997 -0.2818 -0.2035
 7591W        W22722   7.048  10.156  14.790  0.0859  0.0812 -0.1542
 7592W        W22723  13.828   6.916   4.180  0.0190  0.0567  0.1635
 7593W        W22724   9.017  12.224   5.094  0.4429  0.0026  0.0428
 7594W        W22725   1.263   7.454  12.238  0.1750  0.0553 -0.2572
 7595W        W22726  10.588   7.772   5.432  0.2915 -0.0340  0.0273
 7596W        W22727  10.062  13.769  13.769 -0.2216  0.0671  0.0500
 7597W        W22728  17.854  16.031  10.456  0.0259  0.0649  0.0340
 7598W        W22729   0.057  15.662   0.752  0.0053 -0.0656  0.1435
 7599W        W22730   8.206  16.891  12.537  0.1247  0.1545 -0.2566
 7600W        W22731   4.678   9.394  10.543 -0.1598  0.2001 -0.0455
 7601W        W22732  14.206  17.824  12.116  0.0853 -0.3859 -0.1438
 7602W        W22733  13.711  11.589   0.418  0.0137 -0.2622  0.0151
 7603W        W22734  12.156   8.689  13.751 -0.1301 -0.0819 -0.1384
 7604W        W22735  16.944   0.152  12.902  0.0717 -0.1606  0.1030
 7605W        W22736   1.845   3.366   4.542 -0.0239 -0.1250  0.0175
 7606W        W22737  17.586  13.504  11.919  0.0062  0.2285 -0.2578
 7607W        W22738  13.844   7.596  11.681 -0.2716 -0.2667 -0.0986
 7608W        W22739  18.095  13.599  14.004 -0.3355  0.0534 -0.3760
 7609W        W22740   0.525   8.972   2.578  0.0417  0.1570  0.0921
 7610W        W22741  17.938  14.534   1.872  0.0218  0.2042 -0.1954
 7611W        W22742   9.861  12.829   3.215 -0.1313  0.1440 -0.0159
 7612W        W22743   8.118  17.361  12.267 -0.0377 -0.2345  0.0594
 7613W        W22744  17.176  10.653   2.535  0.2220  0.5161  0.0407
 7614W        W22745   6.867   8.486   3.294  0.0406  0.0848  0.0486
 7615W        W22746   6.002  11.044  15.111 -0.0176  0.0752  0.3101
 7616W        W22747  15.481   2.340   0.160 -0.2584  0.1851 -0.1716
 7617W        W22748   5.533   6.792  14.334 -0.0907 -0.2244 -0.1132
 7618W        W22749  11.266  15.958   3.079 -0.1475  0.2749 -0.1676
 7619W        W22750   3.292   2.322  12.257 -0.0712  0.4226  0.1558
 7620W        W22751   2.300  11.810  15.905 -0.0850 -0.0570 -0.1576
 7621W        W22752   7.098  13.425   1.102  0.0127  0.0793 -0.2266
 7622W        W22753   2.564  11.976   2.778 -0.0500  0.0901 -0.0007
 7623W        W22754  11.964   5.665  12.448  0.0800  0.1535  0.0563
 7624W        W22755   5.128   7.894   0.366 -0.1500 -0.1005 -0.0027
 7625W        W22756   9.933  15.788  14.289  0.1366  0.0324 -0.0826
 7626W        W22757   0.399  11.353   4.820  0.1016 -0.2157 -0.0603
 7627W        W22758  11.945  16.047   0.676  0.1101 -0.1912 -0.2085
 7628W        W22759  16.564   2.576   3.989  0.0203  0.2840 -0.0850
 7629W        W22760   7.672  13.804   5.422  0.0520  0.2260  0.2693
 7630W        W22761   6.351   2.170   4.116 -0.2100 -0.1026  0.3338
 7631W        W22762   6.138   0.353   5.382 -0.0213  0.1224 -0.0042
 7632W        W22763  15.967  11.483   3.668  0.0148  0.3917 -0.2020
 7633W        W22764   5.537  16.366  11.047  0.3198 -0.0599 -0.0226
 7634W        W22765  13.602   0.831  12.463 -0.0366 -0.2575 -0.0782
 7635W        W22766   9.182  16.973  14.996  0.1443  0.0237  0.0510
 7636W        W22767  14.941   0.765   4.265  0.2057 -0.1119 -0.4099
 7637W        W22768  14.574  16.813  12.607  0.0938 -0.1489  0.0625
 7638W        W22769   9.441  15.249  11.320  0.3634  0.1561 -0.1186
 7639W        W22770   0.888   2.017  13.817 -0.0538 -0.1275 -0.1215
 7640W        W22771  13.810   8.379  14.430 -0.1883 -0.0640 -0.0673
 7641W        W22772   5.342  11.969  10.123 -0.3048  0.1671  0.2291
 7642W        W22773   2.440   1.068  10.321  0.0130 -0.0736 -0.0521
 7643W        W22774  11.664   1.130   0.284  0.0312 -0.1040 -0.1701
 7644W        W22775   7.160   4.710  15.864  0.2421  0.1824  0.0850
 7645W        W22776  11.570   6.727  12.385  0.1420  0.0521  0.0836
 7646W        W22777  14.460  11.742  14.560 -0.2457  0.1673  0.0927
 7647W        W22778   0.715   2.294  10.612  0.0164 -0.2284  0.0135
 7648W        W22779   2.724   2.797   0.704  0.1822  0.2021  0.0530
 7649W        W22780   8.244   4.670  11.612 -0.0560 -0.0675  0.3077
 7650W        W22781  11.648  14.871  14.335  0.3015  0.1480  0.0878
 7651W        W22782   2.312  13.809   2.525  0.3810  0.2513  0.2638
 7652W        W22783  17.368   1.211   1.200 -0.2113 -0.0302 -0.1752
 7653W        W22784   6.277  11.811  12.931 -0.0511 -0.1899  0.1499
 7654W        W22785   3.520  14.786   5.106  0.4290  0.0196 -0.1333
 7655W        W22786   2.012   5.381   2.342 -0.1074  0.0995  0.0393
 7656W        W22787   2.913   2.111   3.578  0.0271 -0.2343  0.0953
 7657W        W22788   4.838  17.371   2.285 -0.1334  0.1596  0.1409
 7658W        W22789   3.899  16.062  14.358 -0.3821  0.0334 -0.1008
 7659W        W22790   8.737   0.845  12.157  0.5129  0.0176 -0.1714
 7660W        W22791  12.664  13.075   6.221  0.5388  0.0704  0.1113
 7661W        W22792   7.847  17.298  12.705 -0.1860 -0.0290 -0.1980
 7662W        W22793   8.803   8.189   3.152  0.3798  0.0476  0.0158
 7663W        W22794  11.037   8.307   4.579  0.0979 -0.2117 -0.3290
 7664W        W22795   7.035   7.585  11.644 -0.1297  0.2197 -0.0656
 7665W        W22796   3.109  14.178   4.369  0.0432  0.2230 -0.0547
 7666W        W22797   8.939  14.872   3.527  0.0043  0.3686 -0.0042
 7667W        W22798   4.808  10.614  14.686  0.1480 -0.0298  0.2510
 7668W        W22799   5.804   2.188   1.309 -0.2198  0.0865 -0.0228
 7669W        W22800   8.860   0.281   2.740  0.0024 -0.3422  0.1445
 7670W        W22801   3.605   8.985  12.332  0.0511  0.1692  0.0050
 7671W        W22802   9.946  16.027  16.079  0.2169  0.0001 -0.2882
 7672W        W22803   4.689   0.601  13.669 -0.0123 -0.0685  0.1001
 7673W        W22804  16.497   5.009  10.306 -0.2769 -0.1179 -0.1627
 7674W        W22805   9.935   4.367   5.629  0.0167 -0.3039  0.2880
 7675W        W22806   9.844  16.741  15.398  0.0551 -0.3308  0.0458
 7676W        W22807  15.199  12.131  14.091 -0.0321  0.1668 -0.1525
 7677W        W22808   2.218  12.519  12.129 -0.1786  0.1007 -0.1665
 7678W        W22809   5.974  16.699   3.561 -0.2683  0.0362 -0.0191
 7679W        W22810   8.752  15.321   5.360  0.1364 -0.0496  0.1317
 7680W        W22811   1.246  15.358   2.424 -0.1783  0.2184  0.2510
 7681W        W22812  12.228  11.499  14.755 -0.0642  0.2973 -0.1678
 7682W        W22813   3.274   2.092  13.821 -0.1934  0.1468  0.0038
 7683W        W22814  13.997   7.438  14.736 -0.0386 -0.0685 -0.2439
 7684W        W22815   3.817   2.742  15.373  0.4584  0.0224 -0.0559
 7685W        W22816   4.158   3.409   4.498  0.2744 -0.0267  0.2397
 7686W        W22817   7.899   0.057  14.628 -0.0795  0.0889 -0.2136
 7687W        W22818   9.057  14.218  15.186 -0.0294 -0.1157  0.1003
 7688W        W22819   9.482   6.779  12.681  0.1539  0.1940 -0.2683
 7689W        W22820   2.828   5.018  12.371 -0.2934 -0.0373  0.0998
 7690W        W22821   6.636  13.094  12.562  0.1228  0.0474 -0.0477
 7691W        W22822   8.847  12.080  16.169 -0.0113  0.0427  0.1142
 7692W        W22823  11.073   3.373  14.298  0.1298  0.2083 -0.1305
 7693W        W22824   1.072   4.076   1.749  0.0013 -0.0748 -0.1912
 7694W        W22825   1.754   9.889   3.336 -0.0417  0.0759 -0.1633
 7695W        W22826   9.307   0.047  12.977  0.1853  0.2772 -0.0274
 7696W        W22827  10.614   4.880  14.715 -0.3278 -0.3548  0.1433
 7697W        W22828  14.567  11.908  14.008  0.2037  0.0028  0.2045
 7698W        W22829   3.084   6.110  11.478 -0.1448  0.1527 -0.1317
 7699W        W22830   5.203  12.651   2.044  0.0354 -0.1896 -0.2920
 7700W        W22831   7.366  17.547  11.641 -0.1404 -0.1224  0.2947
 7701W        W22832  17.001   5.359  13.308 -0.0527 -0.0427  0.0022
 7702W        W22833   7.454   8.117   6.011  0.1915  0.4411 -0.0682
 7703W        W22834  15.912  15.469  12.634 -0.1307 -0.0610 -0.0963
 7704W        W22835   4.828  11.924   4.720 -0.3169  0.2889  0.0369
 7705W        W22836   3.555   7.599  14.146 -0.2754  0.0949  0.0413
 7706W        W22837  10.201  11.992  15.747  0.1783 -0.1943  0.1016
 7707W        W22838  11.614  17.744   0.760  0.0577  0.0246  0.0518
 7708W        W22839   9.292   2.023   5.083 -0.0926  0.2030  0.2461
 7709W        W22840   3.015  13.168   5.368 -0.0967 -0.1303 -0.3573
 7710W        W22841   8.287   4.262   1.680 -0.1729  0.2085 -0.2520
 7711W        W22842  11.521  10.965  14.631  0.1259  0.1358  0.1374
 7712W        W22843  14.713  15.882   1.541 -0.1288 -0.1783  0.2535
 7713W        W22844   6.727   2.957   3.780 -0.0149  0.0212  0.0779
 7714W        W22845   3.781  15.919   2.493 -0.0353  0.3011 -0.2270
 7715W        W22846   6.547  10.752   0.925 -0.0688  0.0959 -0.2297
 7716W        W22847   4.522   8.233   5.331 -0.1312  0.1076  0.1776
 7717W        W22848   1.400   2.692  11.267  0.1149  0.1348 -0.2247
 7718W        W22849  16.213  16.522   4.003 -0.1393  0.0933 -0.1256
 7719W        W22850  14.589  11.934  15.569  0.1793 -0.1997 -0.1034
 7720W        W22851   2.870   2.624   1.210  0.1338 -0.4110  0.0558
 7721W        W22852   7.878  13.059   0.058  0.2260  0.0172 -0.2868
 7722W        W22853   7.023   1.870   3.522  0.3249 -0.1500 -0.0832
 7723W        W22854  13.733   6.944   2.670 -0.2371 -0.1083 -0.3304
 7724W        W22855   8.362  14.035   3.715  0.1138  0.1493 -0.0234
 7725W        W22856   9.720  14.149   3.553  0.0006 -0.1066  0.0993
 7726W        W22857   9.577   3.067  13.571 -0.2340 -0.1305 -0.1467
 7727W        W22858  10.877  17.963   5.081 -0.4760  0.1052  0.1867
 7728W        W22859   2.486   3.671  13.202  0.4172 -0.1561  0.1675
 7729W        W22860   9.757  16.864   4.614  0.1636 -0.2133  0.2335
 7730W        W22861   7.130   5.589  11.059 -0.1667  0.3016  0.0527
 7731W        W22862  13.004  15.211   1.094 -0.2388 -0.2989 -0.3591
 7732W        W22863   3.310  16.619  14.462  0.0987  0.3514 -0.0145
 7733W        W22864  16.931   1.118   1.873 -0.0791  0.1403 -0.2473
 7734W        W22865   8.871   6.479  14.212 -0.0929  0.1526  0.0291
 7735W        W22866  13.754  12.797   4.254  0.1980  0.2820  0.5661
 7736W        W22867   5.817  15.605   3.199 -0.0513 -0.0532 -0.0932
 7737W        W22868  16.784  16.630  11.901 -0.0118 -0.0561 -0.2622
 7738W        W22869   8.667  13.805  15.936  0.0326 -0.4191  0.1396
 7739W        W22870   3.028   6.794   4.562  0.3600  0.2707  0.0514
 7740W        W22871   8.959  14.341  11.324 -0.0541  0.2322 -0.2502
 7741W        W22872   0.318   5.583  13.922 -0.0266  0.0467  0.3352
 7742W        W22873  12.246  11.954   5.549  0.0478  0.2379 -0.1016
 7743W        W22874  12.999  17.790   2.361 -0.2691  0.2564  0.0035
 7744W        W22875  17.524   9.133  13.208 -0.0420  0.0674  0.0720
 7745W        W22876  13.085   5.066  13.751 -0.0751  0.0076 -0.0328
 7746W        W22877   8.268   2.738  11.908  0.0344  0.1048  0.1127
 7747W        W22878  15.956  10.231   4.221 -0.1702  0.3388  0.0825
 7748W        W22879   0.873   3.701   1.453  0.3321 -0.2174 -0.2276
 7749W        W22880   8.500   4.120  12.472 -0.2401  0.2651 -0.0127
 7750W        W22881  14.993  10.550   1.638 -0.1609  0.1748  0.0229
 7751W        W22882   3.808   7.669   5.632  0.0557 -0.2108  0.1939
 7752W        W22883  11.262  17.231  15.141  0.1116 -0.3468 -0.0580
 7753W        W22884  11.278   7.227  13.643 -0.0697 -0.0241 -0.0916
 7754W        W22885   6.517   3.200  14.590 -0.1200  0.1730  0.1840
 7755W        W22886   2.579  12.993  15.437 -0.1503 -0.1112 -0.3370
 7756W        W22887  10.308   6.673   0.717 -0.2132  0.0744  0.1373
 7757W        W22888   0.302   6.438  15.372  0.1286  0.2119  0.1220
 7758W        W22889   6.801  16.225   2.390  0.0156 -0.0593  0.0511
 7759W        W22890   0.386   7.731   1.761 -0.4286 -0.1395 -0.1276
 7760W        W22891   4.860  14.367   0.443  0.0206 -0.0314  0.0228
 7761W        W22892   8.249   3.032   1.456 -0.0963  0.1572  0.1608
 7762W        W22893   3.800   7.638   0.060 -0.3769  0.3139  0.3086
 7763W        W22894  13.740   6.836  12.668  0.0558  0.0582  0.1397
 7764W        W22895   8.049  10.078   3.748 -0.3109  0.1394 -0.1613
 7765W        W22896   7.706  12.650  16.146  0.0648  0.2755  0.0522
 7766W        W22897   2.951  11.952  12.622 -0.1003  0.1235 -0.3849
 7767W        W22898  17.759  11.949   0.423 -0.2158  0.2404 -0.0698
 7768W        W22899  16.098   4.630  12.685  0.1183  0.0964  0.0961
 7769W        W22900   1.983  10.537  12.890 -0.0374 -0.4085 -0.2635
 7770W        W22901   9.038  10.521   1.008  0.1321 -0.1153  0.1387
 7771W        W22902  13.986   3.069   3.985 -0.1915  0.2325  0.0200
 7772W        W22903  15.390  12.486  11.985  0.1522  0.2358 -0.3482
 7773W        W22904   7.814  10.421   2.864  0.0264 -0.1008  0.0110
 7774W        W22905   7.607  12.551   0.761  0.1000 -0.1130 -0.0567
 7775W        W22906  15.527  17.767   5.246  0.2482  0.1637 -0.1981
 7776W        W22907  15.570  13.362   6.011 -0.2173 -0.0444  0.0099
 7777W        W22908   6.965  13.262  13.440  0.0378 -0.0253  0.1396
 7778W        W22909   7.419   6.983  13.283  0.2018  0.0265 -0.2915
 7779W        W22910   5.837  12.145  15.004 -0.1486 -0.1101  0.1407
 7780W        W22911   7.124  12.864  14.612  0.0810  0.1133 -0.2410
 7781W        W22912   1.297   4.189  13.842 -0.0455  0.2790  0.1697
 7782W        W22913  14.819   9.301   5.537  0.2111 -0.1707 -0.0639
 7783W        W22914   2.009  14.666   2.069 -0.1043  0.0347  0.2701
 7784W        W22915  16.872   5.681  13.704  0.2333  0.1636  0.1431
 7785W        W22916   6.387   5.162   1.271 -0.1269  0.0780  0.0785
 7786W        W22917  13.539  12.144   1.357 -0.3780  0.0039  0.2283
 7787W        W22918   8.290   1.783  10.250  0.1571 -0.2238  0.2190
 7788W        W22919  14.675   8.345   3.990  0.1492 -0.0998  0.1422
 7789W        W22920   1.760  15.213   3.751 -0.2823  0.1491  0.0174
 7790W        W22921  17.742  17.511  14.796  0.1111 -0.2879 -0.1046
 7791W        W22922  16.608  17.512  11.697 -0.2277  0.0799  0.2561
 7792W        W22923  17.378   4.235  11.378 -0.2177 -0.1552 -0.3578
 7793W        W22924   6.535   3.879   1.591 -0.3223  0.0963 -0.1228
 7794W        W22925   7.668  11.914   1.012  0.1367  0.0819 -0.3491
 7795W        W22926   5.887   5.915   5.525  0.1718 -0.0467  0.1865
 7796W        W22927  17.783   1.385   1.839 -0.0238 -0.0518 -0.2114
 7797W        W22928   1.485   2.269   0.749 -0.0734  0.4180 -0.4279
 7798W        W22929  15.286  16.317  14.167  0.1071  0.1559  0.0757
 7799W        W22930  12.061  17.210  13.514 -0.4144  0.0599 -0.2183
 7800W        W22931   1.233   0.383   0.621  0.0090 -0.1465 -0.0881
 7801W        W22932   5.988  13.974  14.940 -0.0361 -0.0105 -0.2587
 7802W        W22933   2.210   8.986   1.122 -0.1146 -0.0831  0.1471
 7803W        W22934   5.750   4.773  15.418 -0.0575  0.2397 -0.0392
 7804W        W22935  11.083   1.179   6.163 -0.4043 -0.0629 -0.2391
 7805W        W22936  14.017   7.686   3.022 -0.1401  0.0501 -0.3785
 7806W        W22937   0.230   9.071   3.972 -0.2010  0.0975  0.0310
 7807W        W22938   7.253  15.139  16.100 -0.1753 -0.1225  0.2179
 7808W        W22939   8.866  13.473   1.632  0.1037 -0.0690 -0.1730
 7809W        W22940   5.741   9.481   1.337  0.0637  0.1900 -0.0222
 7810W        W22941   2.955  14.481  15.744  0.2368  0.1080  0.1145
 7811W        W22942   1.588  10.535   4.077  0.0494 -0.1452  0.1164
 7812W        W22943   4.950   4.449  15.559  0.3093 -0.0032 -0.1817
 7813W        W22944  15.753   2.828   4.468 -0.1155  0.0905 -0.0478
 7814W        W22945   3.824   8.211   4.497  0.0014  0.0745 -0.2769
 7815W        W22946   8.878  16.197   3.210  0.0990  0.1064 -0.2972
 7816W        W22947   2.454  10.458  11.195  0.3721 -0.4559 -0.0961
 7817W        W22948  12.300   6.098   5.893  0.0799  0.0799 -0.1590
 7818W        W22949   9.546   9.342   5.271  0.0248  0.0936  0.3173
 7819W        W22950  10.776   5.646  11.664  0.3238  0.1204 -0.3803
 7820W        W22951  10.906   9.421   5.675 -0.1207 -0.0924 -0.1852
 7821W        W22952   8.913  10.648  12.726  0.4929  0.0170  0.1741
 7822W        W22953  11.547  12.125   4.375  0.1817  0.0808 -0.3430
 7823W        W22954  14.502   0.436   2.930  0.0440 -0.1620 -0.0962
 7824W        W22955   8.694   7.528  13.328 -0.3001 -0.0039 -0.0649
 7825W        W22956   7.794   1.902  14.748  0.0370  0.1326 -0.0622
 7826W        W22957  14.182  16.954   5.276 -0.1858 -0.0595 -0.2553
 7827W        W22958  13.680   1.358  13.674 -0.0254  0.2930  0.0976
 7828W        W22959   6.550   3.360  11.014 -0.0526 -0.0535  0.2288
 7829W        W22960   2.104  11.638  11.905  0.1768 -0.1441 -0.1341
 7830W        W22961  11.902  11.240   0.387  0.3247  0.3989  0.0875
 7831W        W22962  16.598  14.539  13.466  0.3813 -0.0697  0.1218
 7832W        W22963   6.939  13.761  13.088  0.1076 -0.0511  0.3209
 7833W        W22964  17.080  12.286   2.504 -0.0678  0.0353 -0.0111
 7834W        W22965   0.498  11.232  14.972 -0.1003 -0.1311 -0.1423
 7835W        W22966  16.263   6.464  14.277 -0.1313  0.1119 -0.0554
 7836W        W22967   7.582   5.787   0.594 -0.2664 -0.0207  0.1370
 7837W        W22968   6.872   6.939   1.677 -0.3300  0.1840  0.2401
 7838W        W22969   5.157  14.644  13.786 -0.0389 -0.0010  0.2874
 7839W        W22970   4.752   2.196   0.180 -0.0892  0.0123  0.2666
 7840W        W22971  14.680   7.410   3.338  0.0712  0.3953 -0.1569
 7841W        W22972  10.322  10.279  13.969  0.3517 -0.3455 -0.1085
 7842W        W22973  11.281  10.814   5.140 -0.3278  0.1436 -0.0379
 7843W        W22974   7.194  15.967  14.613  0.1442  0.3119  0.0804
 7844W        W22975   0.378  11.975   4.295  0.0311 -0.1590 -0.0178
 7845W        W22976  11.150  16.061   1.943 -0.1487  0.1863 -0.0926
 7846W        W22977   5.408   7.597  12.235  0.0522  0.1472 -0.0798
 7847W        W22978   2.557   1.744   1.414 -0.1320  0.1338  0.1412
 7848W        W22979  11.570   8.407   2.112  0.2913  0.0473  0.5429
 7849W        W22980  14.361   8.765  15.375  0.0510 -0.0343  0.0747
 7850W        W22981  14.677   2.900  13.230  0.0512 -0.3232 -0.1671
 7851W        W22982   7.618   6.838  14.341  0.2061  0.2014  0.2839
 7852W        W22983   3.791  12.311  15.355  0.1630 -0.0316 -0.1848
 7853W        W22984   8.798  17.263   5.226  0.2822 -0.1590  0.2442
 7854W        W22985  15.997  16.217  13.160  0.0243  0.1344 -0.1559
 7855W        W22986  14.113   0.976  14.923  0.2392  0.1037 -0.0892
 7856W        W22987  17.730   1.549   3.519  0.1443  0.2128 -0.4352
 7857W        W22988   0.761   1.033   5.163  0.0562 -0.0848 -0.4378
 7858W        W22989   8.145   3.046  13.391  0.0069  0.0758 -0.1079
 7859W        W22990   7.393   4.295   2.360 -0.2905 -0.1017  0.1321
 7860W        W22991   4.852   8.424  15.947  0.2630 -0.2558 -0.0317
 7861W        W22992   2.002  17.666  11.805 -0.3119 -0.0082 -0.0755
 7862W        W22993  17.653   0.512   2.214 -0.0902  0.0961 -0.2176
 7863W        W22994  13.613  11.139  14.684  0.0032  0.0516 -0.2299
 7864W        W22995   1.047  17.328  13.093  0.6260 -0.1333  0.2099
 7865W        W22996  14.517   9.085   4.977  0.2021 -0.1416  0.0163
 7866W        W22997   8.334  17.870  15.458 -0.1510  0.1260 -0.0079
 7867W        W22998  14.438  12.770  13.608  0.0280 -0.0187  0.1960
 7868W        W22999  13.464  16.091   3.736  0.2019  0.3278 -0.0519
 7869W        W23000  15.161   8.131   1.634 -0.0973 -0.2685  0.2373
 7870W        W23001  17.821   5.294   2.347  0.2221  0.1257 -0.1312
 7871W        W23002  17.747  11.154   9.920  0.0244  0.0814 -0.1787
 7872W        W23003  11.720  16.108  14.965 -0.0877  0.0964 -0.3547
 7873W        W23004   1.764   4.402   3.921  0.0326  0.1812 -0.0194
 7874W        W23005   0.614   9.068   5.284  0.2140 -0.1080  0.1625
 7875W        W23006   8.536  11.370   2.419  0.1998 -0.1463 -0.0294
 7876W        W23007   4.170  10.843   2.220 -0.1227  0.1154  0.1211
 7877W        W23008  16.922   5.254  14.206 -0.1216  0.2568  0.1100
 7878W        W23009  11.149  18.003  13.670  0.0010  0.2310  0.1572
 7879W        W23010   9.132   1.032  13.336 -0.1210  0.2213  0.0743
 7880W        W23011   8.419   7.230   5.007 -0.1997 -0.3770  0.1152
 7881W        W23012   1.589   3.314  13.953 -0.2044  0.0958 -0.0053
 7882W        W23013  12.303   5.313  15.817 -0.0275 -0.2712 -0.0326
 7883W        W23014  14.543  14.941   3.501 -0.1190  0.1230 -0.3523
 7884W        W23015  16.654   3.143   5.247 -0.1939 -0.0182 -0.0396
 7885W        W23016   1.420  12.218  15.236  0.0865 -0.0601  0.1375
 7886W        W23017   5.672  12.325   1.287 -0.2690 -0.3059  0.0488
 7887W        W23018  10.226   3.285   4.431  0.0859  0.0988  0.1596
 7888W        W23019  16.818   5.723   3.792 -0.1960  0.2181  0.5460
 7889W        W23020   2.834  17.253  12.573 -0.1408 -0.2421  0.1063
 7890W        W23021   3.842  13.354   1.914  0.0039 -0.1437  0.0744
 7891W        W23022   6.737   4.740   3.512 -0.1368  0.3903 -0.0180
 7892W        W23023   1.082   0.121  10.934 -0.2660  0.1481  0.3133
 7893W        W23024   7.695  12.271  12.995  0.2148  0.0439 -0.3077
 7894W        W23025  15.512   3.198  15.822  0.3021  0.0883 -0.0338
 7895W        W23026  11.049   2.773  15.129  0.1456  0.1264 -0.2867
 7896W        W23027   6.629  13.571   6.035  0.2392  0.0446 -0.2519
 7897W        W23028  12.577  13.807  10.715 -0.1630  0.1403  0.0038
 7898W        W23029  17.547   2.964  12.303  0.0467  0.0572 -0.1724
 7899W        W23030  12.388   3.314   5.059  0.0155 -0.1531 -0.0993
 7900W        W23031   0.376  17.869  15.182 -0.0942 -0.2203 -0.2483
 7901W        W23032   2.957   8.346  15.934 -0.0119  0.0553 -0.4609
 7902W        W23033   2.622   2.147  14.423  0.3959 -0.1985  0.1018
 7903W        W23034   2.072   3.348   2.399  0.0681 -0.1471 -0.1583
 7904W        W23035   5.434  17.045  13.044 -0.0913  0.0413 -0.0504
 7905W        W23036   4.511  13.334  14.502 -0.4550 -0.1672 -0.2778
 7906W        W23037   0.690   7.150  12.883  0.0312  0.1692  0.0962
 7907W        W23038   6.030   5.092   4.027  0.2284 -0.0055 -0.1750
 7908W        W23039   0.861  11.220  10.173  0.1828  0.0422 -0.0512
 7909W        W23040   3.915   1.590  15.135 -0.0804  0.0384  0.0844
 7910W        W23041   6.838  17.471  13.533 -0.0484 -0.0544  0.1420
 7911W        W23042   1.645  14.534   2.419 -0.0383  0.2395 -0.2909
 7912W        W23043  11.767  16.558  11.607  0.1043  0.1491  0.1178
 7913W        W23044  11.282  17.532   3.240 -0.0155  0.0922 -0.0818
 7914W        W23045  17.702  17.711   1.708  0.2759 -0.2046  0.2450
 7915W        W23046  12.074   9.076  11.790  0.1582  0.3368 -0.0155
 7916W        W23047  10.782  11.821   6.020  0.0640  0.1501 -0.0186
 7917W        W23048  16.321   0.366  14.825  0.2404  0.0242 -0.1302
 7918W        W23049   0.021   1.699   1.997 -0.0243 -0.1170  0.1318
 7919W        W23050   2.795   0.780  16.083 -0.0112  0.1573 -0.0158
 7920W        W23051  12.664  17.907  12.946  0.0771  0.3859 -0.0909
 7921W        W23052  12.199  17.220   3.052 -0.1557 -0.2164 -0.0066
 7922W        W23053   6.803   0.126  11.495 -0.0849 -0.0097  0.0049
 7923W        W23054  11.947  17.359  12.618 -0.2890 -0.1016  0.3705
 7924W        W23055   5.415   8.643  12.169  0.0000  0.3466 -0.0259
 7925W        W23056   4.002  15.087   4.284 -0.0301 -0.0080  0.0496
 7926W        W23057  16.017   2.327   0.161 -0.0265  0.0218  0.1065
 7927W        W23058   1.807   6.629  12.441 -0.2322 -0.1076  0.0587
 7928W        W23059   1.958  11.689  10.513 -0.0955  0.2158  0.1125
 7929W        W23060   4.247  13.884   5.278 -0.2547  0.1221 -0.1470
 7930W        W23061   2.137   6.814   3.566 -0.3693  0.0772 -0.0264
 7931W        W23062   8.540  13.184   5.905  0.3149 -0.1201  0.2052
 7932W        W23063   2.267   8.587   5.415  0.1923  0.3537  0.2356
 7933W        W23064   4.763  14.173  11.308 -0.2689  0.0606  0.0950
 7934W        W23065   3.865   1.807   0.777 -0.4596  0.0213 -0.0278
 7935W        W23066   2.974  10.287   4.885 -0.1301 -0.0568 -0.0020
 7936W        W23067   9.959   6.944  13.034 -0.2310  0.2986  0.1405
 7937W        W23068   1.350   0.761  14.500  0.0643  0.0817  0.0305
 7938W        W23069   4.546   8.954  11.873 -0.2635 -0.2300 -0.2435
 7939W        W23070   9.281   3.746  11.484 -0.0835  0.0530 -0.3795
 7940W        W23071   6.333  18.000   4.497 -0.1754  0.1447  0.0947
 7941W        W23072  15.018   1.448  12.429 -0.1235 -0.2029 -0.1947
 7942W        W23073  10.643  16.503   4.792  0.1438  0.1538  0.1677
 7943W        W23074   0.202  14.850   1.787  0.3397  0.3477 -0.0507
 7944W        W23075  10.503   6.956   0.316 -0.2128  0.0138  0.2812
 7945W        W23076   9.521  17.666   4.564  0.3349 -0.2055  0.1815
 7946W        W23077  10.406  16.588   2.801  0.3105 -0.0217  0.0334
 7947W        W23078   3.615  12.461  11.480  0.1604  0.0261  0.1459
 7948W        W23079   3.098  18.035  10.490  0.0669  0.1141 -0.1361
 7949W        W23080  12.232  12.515   3.047 -0.0412  0.1141  0.2315
 7950W        W23081   9.695   3.142   3.190  0.0104  0.1576 -0.1776
 7951W        W23082   5.115   4.354   2.900  0.0929 -0.2397 -0.1314
 7952W        W23083   7.951  10.485   5.351  0.1768  0.0279  0.1683
 7953W        W23084   1.585  10.853  12.016  0.2034 -0.2663  0.0007
 7954W        W23085  14.220   0.415   0.454  0.1108 -0.0180  0.1263
 7955W        W23086   0.392  16.893  13.120 -0.1306 -0.3143 -0.0853
 7956W        W23087  12.486  11.044   2.408  0.1714  0.0540 -0.1002
 7957W        W23088  16.652   4.376  13.518  0.1124 -0.0367 -0.1005
 7958W        W23089  13.678   0.809  15.897 -0.1623 -0.1665 -0.0480
 7959W        W23090   0.215  14.773  15.713  0.0020  0.3053 -0.0545
 7960W        W23091   7.317   9.997  12.598  0.1170  0.0479  0.0439
 7961W        W23092   7.795   2.283  10.751 -0.0019  0.1162  0.2068
 7962W        W23093  16.253   0.735   1.834 -0.0642 -0.0873  0.0466
 7963W        W23094  17.676  13.144  12.781 -0.0418  0.2236  0.1589
 7964W        W23095  18.054  11.097   4.738  0.2119  0.1520 -0.0275
 7965W        W23096  16.397  17.767  14.127  0.1568 -0.0401 -0.2183
 7966W        W23097   6.109   9.515  12.272  0.0064  0.0622  0.0147
 7967W        W23098   8.696   1.320  11.998 -0.0516  0.1673 -0.2080
 7968W        W23099  11.943   9.121   1.647  0.2193 -0.0563  0.0984
 7969W        W23100  15.814   8.579  13.608 -0.0037 -0.3267 -0.1294
 7970W        W23101  17.263  16.544  15.713  0.1263 -0.1561 -0.1520
 7971W        W23102   8.798  16.680   4.408  0.1660 -0.0628  0.0459
 7972W        W23103   4.631   1.902  11.075 -0.0159 -0.3093 -0.0101
 7973W        W23104  12.769   2.828  12.141 -0.0114 -0.1343  0.0384
 7974W        W23105  10.056  16.389   3.171  0.0096 -0.2987 -0.0131
 7975W        W23106   4.512   4.207   0.696 -0.0304 -0.1586 -0.0866
 7976W        W23107   6.443  15.384  10.588 -0.3519 -0.0979 -0.0658
 7977W        W23108   2.936  15.599   0.455  0.0228 -0.1266  0.1041
 7978W        W23109   8.953   8.846  12.843  0.2323 -0.3221  0.1717
 7979W        W23110   0.960   3.292   6.065 -0.0239  0.0221  0.3433
 7980W        W23111  10.944   0.601   0.367  0.1814 -0.1519  0.0329
 7981W        W23112   5.380   6.410   3.142  0.0245  0.2194  0.1787
 7982W        W23113  16.919   3.979  11.287 -0.0160 -0.0860  0.1376
 7983W        W23114  13.381  16.865   2.059  0.0453  0.0622  0.0666
 7984W        W23115   3.222   7.337  13.786 -0.0670  0.0393 -0.1164
 7985W        W23116   2.222   5.812   3.916  0.2111 -0.1696 -0.2776
 7986W        W23117   1.100  14.151   4.558  0.3757  0.0237 -0.1201
 7987W        W23118   0.718   4.425   3.711 -0.0417 -0.2402 -0.1481
 7988W        W23119  15.416   0.800  15.769  0.0784 -0.0184  0.2026
 7989W        W23120   1.573  13.128  15.462  0.0711  0.0765  0.0265
 7990W        W23121   6.521  17.394  11.430 -0.0793 -0.1010 -0.0808
 7991W        W23122  14.877   2.144  11.361  0.1384 -0.1658 -0.0027
 7992W        W23123  11.506   6.808   2.232 -0.0192  0.1674 -0.0116
 7993W        W23124   1.568   9.194   5.335  0.1313  0.1460 -0.0220
 7994W        W23125   9.589  16.984  12.144  0.3419 -0.2401  0.1973
 7995W        W23126  17.474   4.037   6.255 -0.2405  0.2525  0.0245
 7996W        W23127   5.353   1.142   5.330  0.0308  0.1418  0.1896
 7997W        W23128   2.535  15.676  13.743  0.2050  0.2109 -0.0712
 7998W        W23129   1.479  16.639   0.125 -0.0613  0.1227  0.0327
 7999W        W23130   7.410   2.934   5.024  0.0081 -0.1977 -0.1864
 8000W        W23131   5.607  11.562   0.563  0.0285 -0.0192 -0.2294
 8001W        W23132  16.271   0.968   3.187 -0.0416 -0.0102  0.0870
 8002W        W23133   6.622  10.144  13.684  0.0940  0.1112 -0.2678
 8003W        W23134   4.097   7.045   2.282 -0.0742 -0.2384  0.1305
 8004W        W23135   4.721  12.930   4.924 -0.2233 -0.2276 -0.1148
 8005W        W23136   1.995   4.773   3.039 -0.0186  0.0370 -0.0462
 8006W        W23137   9.320   4.369   4.846 -0.0547  0.1086 -0.3014
 8007W        W23138   0.399   9.805  12.255  0.1897 -0.0579  0.0718
 8008W        W23139  14.700   6.821  14.760  0.0580 -0.1304 -0.0744
 8009W        W23140   5.518   6.888   3.681 -0.0107  0.0664  0.4060
 8010W        W23141   0.222  12.851   4.966  0.0158 -0.4110 -0.0228
 8011W        W23142   1.610  15.058   2.267 -0.1087 -0.1117  0.0875
 8012W        W23143  11.585  12.447   2.348  0.3795 -0.0799 -0.0211
 8013W        W23144   6.710   2.370   4.923  0.1209 -0.0373 -0.0445
 8014W        W23145   2.450  14.220  13.371  0.0039 -0.1460  0.2305
 8015W        W23146   3.842   7.302   4.218 -0.4135  0.0865 -0.0763
 8016W        W23147  13.180  13.433  13.483  0.1645 -0.1735 -0.0761
 8017W        W23148  10.431   5.963   1.550 -0.1216  0.0775 -0.2959
 8018W        W23149   0.178  10.990  14.145 -0.0928 -0.2364 -0.0697
 8019W        W23150  17.469  18.005  12.850 -0.0900 -0.1814  0.0244
 8020W        W23151  11.825   8.677  11.434  0.2253 -0.4105  0.1667
 8021W        W23152  14.793  17.879   2.378  0.1039 -0.2911  0.0921
 8022W        W23153  12.888   4.855   5.729  0.0545  0.0242  0.2046
 8023W        W23154   8.141   6.130  14.506  0.2156 -0.0555  0.1388
 8024W        W23155   2.329  12.123   1.551 -0.1823 -0.0756 -0.1210
 8025W        W23156  13.270   9.645  11.933 -0.3073 -0.2094 -0.1201
 8026W        W23157   5.012  11.149  11.323 -0.0502  0.0158  0.0019
 8027W        W23158   4.431   2.892   3.256 -0.0576  0.0882 -0.0637
 8028W        W23159  13.543   2.690   3.987 -0.1600 -0.2355 -0.0307
 8029W        W23160   1.772  18.007   3.903  0.1874  0.1065  0.1064
 8030W        W23161  11.023   5.118   2.306  0.2859 -0.2749 -0.0884
 8031W        W23162  13.497  18.092   0.834  0.0706 -0.0583 -0.2242
 8032W        W23163  16.934  14.227   5.276  0.2796 -0.1821  0.0921
 8033W        W23164   5.826  14.439   1.471 -0.2276 -0.2084 -0.0920
 8034W        W23165  13.546   7.903   0.453  0.2278 -0.3010  0.0853
 8035W        W23166   7.888   9.309  13.572  0.2223 -0.0753  0.0849
 8036W        W23167  14.949  10.778   1.227  0.0975  0.1726  0.1161
 8037W        W23168  13.215   7.473   0.212 -0.1761  0.0471 -0.3290
 8038W        W23169  13.750   4.349   1.922 -0.3154  0.4001  0.2692
 8039W        W23170   9.829   6.363  10.931 -0.0371 -0.1702  0.1505
 8040W        W23171   9.746   8.793   3.009 -0.1134 -0.4213  0.2116
 8041W        W23172   6.592   0.467  15.104 -0.0082  0.0344  0.0218
 8042W        W23173   4.800   5.581   2.468  0.2905  0.2615  0.1741
 8043W        W23174   0.073   9.394  12.211 -0.4564  0.1863  0.0063
 8044W        W23175  12.232   3.414   2.706  0.0289 -0.0424 -0.2925
 8045W        W23176   1.110  16.170   0.160  0.1734 -0.2493 -0.0556
 8046W        W23177   0.427   7.321   5.408 -0.0558  0.0821 -0.1341
 8047W        W23178   2.856  13.763   4.707  0.1759 -0.1258  0.0799
 8048W        W23179   8.262   5.738  12.485 -0.1804  0.0240  0.0787
 8049W        W23180   9.762  13.558  15.542 -0.3391  0.2980  0.1823
 8050W        W23181  15.228  12.914   4.484 -0.0808  0.0842  0.1186
 8051W        W23182   0.404   3.253  14.084  0.3046 -0.0454  0.1663
 8052W        W23183   7.169   6.725   2.513  0.0680  0.2064  0.1780
 8053W        W23184  11.452  10.260  15.857 -0.0272  0.1582  0.0491
 8054W        W23185   6.893  14.862  13.232 -0.2912 -0.0824 -0.1045
 8055W        W23186  15.611  12.151   3.291  0.0238 -0.0086  0.2662
 8056W        W23187   7.798  13.995  15.885  0.0413  0.0284  0.1535
 8057W        W23188  10.298  10.800  11.539  0.0592 -0.3765  0.3155
 8058W        W23189  13.218   7.143   0.592  0.2405  0.0225  0.0985
 8059W        W23190   6.930   4.524   2.527  0.1558  0.2186  0.0537
 8060W        W23191   5.570  13.377  10.393  0.0547  0.1671 -0.1423
 8061W        W23192   3.059  16.322   3.125 -0.0144 -0.2541  0.0451
 8062W        W23193   7.106   1.123  12.561  0.0908 -0.1623 -0.0213
 8063W        W23194  14.176   0.815   0.821  0.4269  0.0539 -0.0792
 8064W        W23195  14.466  15.568  10.032 -0.1617  0.2861  0.1617
 8065W        W23196   2.317   3.502  11.626 -0.1775 -0.1094 -0.0533
 8066W        W23197   6.734   4.371   4.481 -0.0038 -0.1601 -0.1607
 8067W        W23198   9.929  13.500  11.352  0.1872  0.1263 -0.0981
 8068W        W23199  11.713   5.884   1.850  0.1732  0.1434 -0.1462
 8069W        W23200  16.426  10.656   5.729 -0.2841  0.0436 -0.1049
 8070W        W23201   5.545   3.022  14.953 -0.0920 -0.1494 -0.0494
 8071W        W23202   8.094  17.220  14.707  0.3611  0.1843  0.0435
 8072W        W23203   6.183  17.594   2.868 -0.0386  0.0302  0.4457
 8073W        W23204   7.136   4.535  11.641  0.0289  0.1662  0.0793
 8074W        W23205   8.702  10.085  12.324  0.2006 -0.2029 -0.0023
 8075W        W23206   7.224  13.374   3.015  0.0254 -0.0401 -0.0433
 8076W        W23207  15.578   4.735  12.777 -0.0057  0.1531 -0.1773
 8077W        W23208  16.967   1.853   1.701 -0.0747  0.0519  0.0442
 8078W        W23209   7.324   5.725   1.677 -0.1663 -0.1982 -0.0706
 8079W        W23210   5.055   3.762  14.298 -0.0498  0.3266  0.0691
 8080W        W23211  11.548   3.581  10.689  0.0800  0.2744 -0.0276
 8081W        W23212   3.277  11.283  10.020  0.0003  0.0183 -0.0975
 8082W        W23213  15.038  13.369  15.829  0.0102  0.1435 -0.2167
 8083W        W23214   6.692  12.386  15.219 -0.1213 -0.1024 -0.1142
 8084W        W23215   0.179   6.712   1.007  0.0803  0.0346 -0.1401
 8085W        W23216   6.133  17.400   2.296 -0.2542 -0.0108  0.0951
 8086W        W23217  12.603   9.114  10.938  0.1431  0.1177  0.2453
 8087W        W23218   7.859  16.686  15.566 -0.0663 -0.0615 -0.2383
 8088W        W23219  11.680   2.146  14.123  0.2252 -0.2755  0.1720
 8089W        W23220  13.580  14.987  15.323 -0.0444 -0.0270  0.2804
 8090W        W23221   4.801  16.271   0.553  0.1030  0.1778 -0.1852
 8091W        W23222   2.928   6.263   3.779 -0.0504  0.3875 -0.0246
 8092W        W23223  11.084   6.492   2.419  0.0799  0.1154 -0.0046
 8093W        W23224   2.919  10.990   4.314 -0.0633 -0.2468 -0.2269
 8094W        W23225  13.058   2.655   1.694 -0.1290 -0.0123 -0.1289
 8095W        W23226   2.334   7.341   1.499 -0.1326 -0.0506  0.2255
 8096W        W23227   6.894   7.061   1.178  0.1260  0.1062  0.0723
 8097W        W23228  12.512   8.355   2.073  0.1034 -0.4820  0.0642
 8098W        W23229   4.456  17.901  14.832 -0.0892  0.1377 -0.2282
 8099W        W23230   9.067   7.341  15.334 -0.4724  0.0498  0.1485
 8100W        W23231  17.578   3.092   1.662 -0.2195  0.3192 -0.1327
 8101W        W23232   0.216  18.004   4.760  0.1899  0.1038 -0.0211
 8102W        W23233   5.319   5.561   3.337 -0.1568  0.0858  0.1299
 8103W        W23234   3.873   6.992   2.703 -0.0629  0.1846 -0.4108
 8104W        W23235   6.677   6.081  12.242  0.2058 -0.1293  0.0033
 8105W        W23236   4.194   6.282  13.859  0.0216  0.1521 -0.1944
 8106W        W23237   6.057   9.775  13.967 -0.1061 -0.0486 -0.0031
 8107W        W23238  16.550   0.227  11.944 -0.0230  0.0640 -0.1377
 8108W        W23239   0.789   4.550   5.186  0.2102 -0.1962  0.3181
 8109W        W23240   9.919  17.989  13.242  0.0257  0.1719  0.1909
 8110W        W23241  14.218   4.167   2.475  0.3422  0.0561 -0.0036
 8111W        W23242   3.129  15.052  13.639 -0.1754  0.0821  0.0870
 8112W        W23243   1.787   2.852  16.158  0.0769 -0.1106 -0.2455
 8113W        W23244   4.596   7.694   4.266  0.3345  0.1356  0.3037
 8114W        W23245  17.838  14.678  12.534  0.0942 -0.2325 -0.0054
 8115W        W23246   5.173  10.190   5.279 -0.1401 -0.0708  0.1069
 8116W        W23247  17.063   4.367   1.046 -0.2250 -0.2326  0.0150
 8117W        W23248   2.054  14.107   1.456  0.1893 -0.2657  0.0261
 8118W        W23249   8.398   9.429   0.818 -0.1747 -0.1605  0.0437
 8119W        W23250  14.639   6.620  13.245  0.2620 -0.1631 -0.0692
 8120W        W23251   4.446  15.171   4.691 -0.0119 -0.2292  0.0643
 8121W        W23252  14.719   2.088   1.919 -0.0230 -0.0646 -0.0318
 8122W        W23253  16.221   4.729  14.394 -0.0126 -0.1540  0.1323
 8123W        W23254  14.527   2.701   3.633 -0.1734 -0.1035  0.1918
 8124W        W23255  12.563  17.627   0.199  0.1727  0.2612  0.0699
 8125W        W23256   5.140   8.554   2.027 -0.0310  0.2965 -0.2066
 8126W        W23257   7.962   0.586   3.834  0.2393 -0.2856  0.1328
 8127W        W23258   7.786   8.407  14.110  0.0690 -0.0366  0.2014
 8128W        W23259  16.453  10.411  11.413  0.2068 -0.0889  0.2102
 8129W        W23260  11.369   4.013   0.127 -0.1303  0.0023  0.0096
 8130W        W23261   1.807   4.726   1.192 -0.1698  0.1477 -0.0883
 8131W        W23262  13.503  15.521  12.778 -0.0083  0.2760  0.1240
 8132W        W23263   3.700  17.618   1.217  0.0621 -0.0816  0.1791
 8133W        W23264  14.783   4.678   5.005  0.0005  0.2337 -0.2847
 8134W        W23265   4.735  10.873   5.789 -0.0409  0.0437  0.1520
 8135W        W23266  17.026  14.881   1.530 -0.0327 -0.1960  0.3264
 8136W        W23267   5.296  11.056   3.911 -0.0527  0.0708 -0.1686
 8137W        W23268  17.231  16.895   5.610 -0.3213  0.1127  0.0084
 8138W        W23269   7.640  10.454   1.407  0.2641 -0.1426  0.2404
 8139W        W23270   7.174   3.338  13.441  0.3807 -0.1829 -0.3163
 8140W        W23271   2.943   5.015  10.292 -0.0758 -0.0346  0.0410
 8141W        W23272  15.411   3.406   2.852  0.0997 -0.0809  0.1529
 8142W        W23273   9.150  15.778   3.142 -0.3096 -0.1781  0.2410
 8143W        W23274  12.229   9.969   4.725  0.3204 -0.0557 -0.0153
 8144W        W23275  16.201   8.648  11.783 -0.2978 -0.2224  0.1849
 8145W        W23276   7.336  10.203   4.853 -0.0828  0.0928  0.0993
 8146W        W23277   5.007   9.752  12.158  0.0110 -0.0051 -0.2419
 8147W        W23278   4.239   1.091  10.782  0.0778  0.1065  0.4825
 8148W        W23279   2.388  15.601   0.656  0.2998 -0.0260 -0.1551
 8149W        W23280  11.895   7.143   4.201  0.1556  0.3486  0.1137
 8150W        W23281   5.033   4.758   0.448 -0.0349 -0.1211  0.0706
 8151W        W23282  12.763  15.255   3.030  0.2093  0.0040 -0.0702
 8152W        W23283   7.051  11.447   5.219  0.0778  0.2230 -0.1151
 8153W        W23284  11.629   0.385  11.548  0.0082  0.2060  0.0628
 8154W        W23285   2.086   0.938   9.874 -0.0168 -0.1232  0.1105
 8155W        W23286  13.989  16.785  13.290 -0.0732 -0.2683 -0.2985
 8156W        W23287  17.921  13.641  10.549 -0.0244  0.0473 -0.0580
 8157W        W23288   8.850  16.733  12.003 -0.1095  0.2620 -0.1564
 8158W        W23289   9.419   9.785  14.432  0.0903  0.4526 -0.1789
 8159W        W23290   8.299   4.063   3.999  0.0230 -0.1370 -0.2392
 8160W        W23291  17.844   7.876   2.595 -0.0140 -0.0356  0.0346
 8161W        W23292  13.881  10.425  15.687  0.1613  0.1642  0.1738
 8162W        W23293   6.047  11.257  10.088  0.1876 -0.0305 -0.1250
 8163W        W23294  17.182   4.137   0.118 -0.1405  0.0228 -0.2142
 8164W        W23295  11.055   5.343   3.189  0.1249 -0.0109  0.2890
 8165W        W23296  12.563   4.576   4.575 -0.0934  0.0844  0.1752
 8166W        W23297   4.583   0.377  10.320  0.0247  0.4361 -0.1735
 8167W        W23298   2.215  16.655   1.112  0.3053 -0.1515 -0.0851
 8168W        W23299  14.425   6.528   3.386  0.0233 -0.0831 -0.0412
 8169W        W23300   8.243   2.510   5.173  0.0363 -0.0118 -0.1706
 8170W        W23301   4.297  16.678   2.084 -0.1036 -0.2211  0.0130
 8171W        W23302   0.198  11.752  13.771 -0.0358  0.0761  0.2779
 8172W        W23303  14.461  16.845   3.112  0.0344 -0.0359  0.0025
 8173W        W23304   4.505   3.683  14.322 -0.1441 -0.1229  0.1295
 8174W        W23305   8.107  16.414  12.623  0.0383  0.3771 -0.1109
 8175W        W23306   5.614   1.764  14.064 -0.2785 -0.1905  0.0156
 8176W        W23307   9.733   3.750   2.172  0.0187  0.0525  0.0057
 8177W        W23308  10.492  15.043   2.614  0.0257 -0.0362 -0.1386
 8178W        W23309  13.669   5.227  15.425 -0.0515 -0.0900  0.0317
 8179W        W23310  12.244   2.552  14.553  0.1785 -0.0930  0.0977
 8180W        W23311  11.025  10.430  15.454 -0.2169  0.0897 -0.1196
 8181W        W23312   7.674  14.943  10.664  0.1411 -0.0126  0.1251
 8182W        W23313   1.613   1.211   2.660  0.2340  0.1593  0.0648
 8183W        W23314   7.483  17.085   1.059  0.0749  0.0808 -0.3957
 8184W        W23315  11.912   0.595  11.895  0.0345  0.1946  0.0895
 8185W        W23316  16.494  16.792   0.105  0.1749 -0.0526 -0.1495
 8186W        W23317   2.897  17.683   5.354  0.0730  0.1582  0.0784
 8187W        W23318   2.229  14.265  10.970 -0.1540  0.1122  0.0724
 8188W        W23319  17.771  10.425  12.635  0.1552  0.2420  0.2488
 8189W        W23320   1.967  17.494  12.261 -0.0910 -0.3662 -0.1563
 8190W        W23321   9.208   5.760   5.682  0.0518  0.2118  0.0811
 8191W        W23322   8.396  17.445  15.155 -0.3288  0.0249 -0.2173
 8192W        W23323   1.514  14.156   3.487  0.0503 -0.0666 -0.0838
 8193W        W23324   1.754   3.062   4.117 -0.1199 -0.0852 -0.1610
 8194W        W23325   2.281   5.913  14.644 -0.0211  0.1546 -0.0603
 8195W        W23326  11.998   6.523  16.043 -0.0051  0.0089  0.0468
 8196W        W23327  13.418  17.340   2.304  0.1999  0.0825 -0.2712
 8197W        W23328   5.004   2.362   1.193  0.3012  0.1620 -0.1556
 8198W        W23329   8.772   0.682  13.157 -0.0313 -0.0771  0.1819
 8199W        W23330   7.014   6.212  14.816 -0.0845  0.0461 -0.3279
 8200W        W23331  13.342   0.199   0.127  0.1708  0.2374  0.1480
 8201W        W23332  15.955  16.739  10.809  0.0817 -0.0460 -0.0023
 8202W        W23333  11.083   6.252  13.478  0.2982 -0.2679  0.0222
 8203W        W23334   5.559  11.348   3.520 -0.0611 -0.0552 -0.2983
 8204W        W23335  11.031   9.665   1.746  0.2225 -0.2329 -0.0649
 8205W        W23336  17.271  12.076  14.598  0.2608 -0.2015  0.0306
 8206W        W23337  10.046  11.629   5.473 -0.0674  0.1788  0.2375
 8207W        W23338  12.572   9.029  13.702  0.0059  0.1899  0.0053
 8208W        W23339  12.706  12.667  11.431 -0.2392 -0.3319  0.0491
 8209W        W23340  15.322  17.538   1.758 -0.2825 -0.0763  0.1312
 8210W        W23341   3.781   3.151  15.945  0.1702  0.1170 -0.0320
 8211W        W23342  12.292  17.521  10.813 -0.0709 -0.0687 -0.0957
 8212W        W23343   0.973  17.337  10.316  0.0252  0.0358  0.2003
 8213W        W23344   7.055   8.940  11.701 -0.0286  0.0060  0.1864
 8214W        W23345   6.218   8.671  12.567  0.3657 -0.1350 -0.3464
 8215W        W23346   7.774  17.452  10.933  0.1585  0.1311  0.1870
 8216W        W23347   7.823   2.361  12.655 -0.0432 -0.2386  0.2232
 8217W        W23348  11.719  16.282  15.955 -0.2035 -0.2503  0.0144
 8218W        W23349  14.824  15.002  11.490 -0.1619 -0.2662 -0.1469
 8219W        W23350  13.840   3.677  15.601 -0.4258  0.3170  0.0359
 8220W        W23351  15.157   2.913  12.413  0.1646  0.1429 -0.2617
 8221W        W23352  16.738   2.424   3.404 -0.0919  0.1578  0.2405
 8222W        W23353  12.440   4.859   1.402  0.1210  0.2423  0.1447
 8223W        W23354   8.520  16.317  11.886 -0.5052 -0.0638  0.0312
 8224W        W23355   8.173   8.338  12.092  0.0505 -0.0320 -0.2647
 8225W        W23356   6.946  16.793   3.593  0.0308 -0.2564  0.0025
 8226W        W23357  16.154   5.870   5.465 -0.1078  0.1684 -0.1979
 8227W        W23358   9.571   1.221   5.683  0.1401  0.0728 -0.0795
 8228W        W23359   2.425   6.268   3.883  0.1649 -0.0214  0.0934
 8229W        W23360   3.303   1.705   0.846 -0.1269 -0.0647  0.0032
 8230W        W23361  17.159  13.557   3.194 -0.1654 -0.1294 -0.2214
 8231W        W23362   4.484   6.669   4.914 -0.1094  0.0813 -0.0841
 8232W        W23363   9.225   6.439  15.488 -0.2263 -0.1005 -0.2820
 8233W        W23364   1.240  11.492  12.281 -0.0624 -0.1029 -0.2369
 8234W        W23365  10.888   9.801  14.629  0.2986  0.0307  0.1462
 8235W        W23366   6.846  11.486  13.637  0.0897  0.0084 -0.2655
 8236W        W23367  13.909  10.737  16.126  0.1725  0.0760 -0.0803
 8237W        W23368  13.924  12.741  15.791 -0.2599  0.1967  0.2753
 8238W        W23369  14.743   2.995  16.142 -0.0732 -0.1375 -0.1043
 8239W        W23370   2.676  12.721  11.996 -0.0446  0.1648 -0.1553
 8240W        W23371   6.406   6.655  10.836  0.3091 -0.1815 -0.1629
 8241W        W23372  14.467  13.446   3.637 -0.3266 -0.1280  0.0261
 8242W        W23373   4.310   5.366   5.046 -0.0588  0.0098  0.1718
 8243W        W23374  10.701   1.939   2.388  0.0690  0.3138 -0.0198
 8244W        W23375   2.732   9.789   5.500 -0.0170  0.1718  0.2271
 8245W        W23376   5.820   0.694  16.146  0.1334 -0.0166 -0.0764
 8246W        W23377  12.732  13.647   4.403  0.0694 -0.0002 -0.0481
 8247W        W23378  12.299   2.954   3.120  0.3093  0.0184  0.0824
 8248W        W23379  17.620  12.724   4.602 -0.4942 -0.0306  0.1150
 8249W        W23380  16.353   8.567   0.874 -0.2610  0.0401 -0.0080
 8250W        W23381   9.129  12.713  13.734 -0.2864  0.0994  0.1623
 8251W        W23382   5.834   4.369  14.109 -0.2452  0.0957  0.1308
 8252W        W23383   2.760   1.248   2.935  0.2713  0.1014  0.0131
 8253W        W23384   6.151   4.352  12.335  0.2552 -0.1140 -0.0653
 8254W        W23385   3.271  16.088  15.649 -0.1483 -0.2799  0.0239
 8255W        W23386   8.811   4.853   1.039 -0.1035 -0.0614 -0.0340
 8256W        W23387  16.716  12.940   0.975 -0.3472  0.0734  0.2075
 8257W        W23388   8.885   5.276   2.063 -0.0005  0.0389 -0.0343
 8258W        W23389  10.509  12.829  14.576  0.2359 -0.2045 -0.1784
 8259W        W23390   0.759   2.448   2.062 -0.1290  0.1611 -0.1387
 8260W        W23391  12.396  17.170   5.572 -0.0227  0.1021 -0.2710
 8261W        W23392  16.942  12.070   5.376 -0.0049  0.2032 -0.2288
 8262W        W23393   8.345   7.722   5.120 -0.0692 -0.1922  0.1341
 8263W        W23394  15.046  11.691  13.887 -0.1140  0.1190  0.0130
 8264W        W23395  13.315   7.679   1.986  0.0326  0.2084 -0.0982
 8265W        W23396  15.841  16.299  14.573 -0.0459  0.0529 -0.0121
 8266W        W23397   7.479  10.499  14.832 -0.0851  0.0172  0.0268
 8267W        W23398  15.904  12.368  15.067  0.1335 -0.0101 -0.0237
 8268W        W23399   3.719  10.063   4.196  0.1589  0.0268  0.2980
 8269W        W23400   0.895  12.013   2.541  0.1039 -0.1026 -0.2192
 8270W        W23401  15.148   1.420   4.525 -0.0096 -0.2883 -0.1701
 8271W        W23402   1.455  15.604   2.938 -0.0963 -0.1995  0.1981
 8272W        W23403  17.124  14.533   0.851 -0.5627 -0.0056 -0.0373
 8273W        W23404  16.865   8.989   2.961  0.0832 -0.1158 -0.0337
 8274W        W23405   6.608   0.273   5.093  0.1220  0.0671  0.0138
 8275W        W23406  12.871   6.506  15.406  0.1354  0.1105 -0.1088
 8276W        W23407   0.396   6.504   3.130  0.0082 -0.2132  0.1950
 8277W        W23408  13.967  11.382  11.525  0.0240 -0.0343  0.1695
 8278W        W23409   5.455  10.252   4.292 -0.1034  0.1736 -0.2244
 8279W        W23410   5.817   2.070   4.909  0.3097  0.0057  0.0501
 8280W        W23411  16.796  10.147  15.331 -0.0340 -0.1871  0.2822
 8281W        W23412  12.080  12.707   0.540  0.1715  0.0740 -0.1650
 8282W        W23413   4.188   1.352  12.634 -0.2275  0.2878  0.2310
 8283W        W23414   2.941   9.431   4.763  0.0886 -0.1336 -0.0309
 8284W        W23415  13.326   1.571  11.292  0.0222  0.2957 -0.2354
 8285W        W23416  17.112  13.370  15.399  0.0367  0.2498  0.1479
 8286W        W23417  10.878  13.815   1.452  0.1348  0.0965 -0.0146
 8287W        W23418   2.436   8.349   0.462 -0.2841  0.0091 -0.2341
 8288W        W23419   5.385  16.340   5.456 -0.1558  0.1376 -0.0673
 8289W        W23420  14.999   3.544  14.525  0.0160 -0.0174  0.2398
 8290W        W23421  14.462  12.282   4.005  0.3317  0.1912  0.2327
 8291W        W23422  15.975   2.607  11.397 -0.0630 -0.0519  0.2160
 8292W        W23423  11.240  12.510  10.453 -0.1377 -0.2150  0.1276
 8293W        W23424  14.457   6.603  13.849 -0.1078 -0.1373  0.1149
 8294W        W23425   0.683   3.966  13.200  0.0743 -0.3914  0.2096
 8295W        W23426  15.019  16.040   4.580 -0.2151  0.1168 -0.0732
 8296W        W23427  14.587  12.600   0.469  0.0365  0.1656 -0.1431
 8297W        W23428  11.928  17.819   3.687  0.0698 -0.2028 -0.0797
 8298W        W23429   8.282   9.315  13.236 -0.2995 -0.3016  0.1549
 8299W        W23430  18.039   4.357  15.401 -0.1512  0.4068  0.1147
 8300W        W23431  11.033  10.531   2.639  0.0379 -0.2454  0.2382
 8301W        W23432  12.103  18.057  13.773  0.0094 -0.3648  0.1875
 8302W        W23433  15.745   9.646  11.809 -0.1732 -0.2918 -0.0876
 8303W        W23434   4.412   4.072   5.184  0.1611  0.0543  0.0520
 8304W        W23435  15.153   0.859   0.174  0.0823 -0.2076  0.1926
 8305W        W23436   1.954   4.925  12.512  0.3403 -0.4640 -0.1282
 8306W        W23437  10.103  11.042  12.832  0.1328 -0.2157  0.2728
 8307W        W23438  14.429  15.028   3.967  0.1769 -0.1930  0.0766
 8308W        W23439   9.739  10.513  15.037  0.2141  0.0329 -0.1061
 8309W        W23440  15.615  10.633  11.704  0.0167  0.0471 -0.0203
 8310W        W23441  15.398  15.868   2.266  0.1385 -0.1709 -0.1033
 8311W        W23442   3.126   7.279   0.893 -0.1355  0.2467  0.2123
 8312W        W23443   6.048   0.138   0.020  0.1128  0.1319  0.2388
 8313W        W23444   2.349   2.842   2.216 -0.0240 -0.0635 -0.2420
 8314W        W23445   9.864   3.701   3.863  0.0998  0.2633  0.1000
 8315W        W23446   9.092  14.331  12.285  0.1209 -0.1540 -0.0227
 8316W        W23447   5.917  13.169  10.666  0.2300 -0.3303  0.0976
 8317W        W23448   6.824   2.223  15.038 -0.0694 -0.2287 -0.0400
 8318W        W23449  13.488  13.880  12.272  0.1767  0.3375 -0.0581
 8319W        W23450   1.808  13.098   3.644 -0.0513 -0.2594 -0.0829
 8320W        W23451   3.113   4.400  16.088 -0.0846 -0.0328  0.4297
 8321W        W23452  10.394  15.219   5.676  0.0901  0.1214 -0.0162
 8322W        W23453  17.840   1.922  11.700  0.1542 -0.0429  0.0498
 8323W        W23454   8.929   2.271   3.163  0.0207 -0.1601 -0.1360
 8324W        W23455   8.663  10.796  14.338 -0.3809 -0.0716  0.0322
 8325W        W23456   6.247   6.448  11.616  0.0057  0.0022  0.1045
 8326W        W23457  15.688   4.600  13.579  0.0143 -0.1596 -0.0349
 8327W        W23458  16.467   0.592   1.368  0.0712 -0.1957 -0.1698
 8328W        W23459  10.191   4.828   3.585 -0.0826 -0.1468 -0.2684
 8329W        W23460   4.407   4.195   4.282 -0.1327  0.0664 -0.0576
 8330W        W23461   2.316   7.077   1.026  0.0267 -0.1665 -0.0835
 8331W        W23462   0.448  12.300  15.438 -0.2189 -0.2473  0.1475
 8332W        W23463  17.797  17.754  15.929  0.2428  0.0182 -0.2352
 8333W        W23464   3.323  15.322  14.205  0.1985  0.1961  0.0065
 8334W        W23465   4.214   8.179   2.014  0.2578  0.0844 -0.2738
 8335W        W23466   0.547   1.176  13.533  0.2217 -0.3112  0.1384
 8336W        W23467   2.354  11.859   0.554  0.1106 -0.0219  0.0078
 8337W        W23468  15.774   5.362  11.602 -0.3995 -0.0882  0.3298
 8338W        W23469  16.013   6.119   2.511  0.1550  0.2583  0.1540
 8339W        W23470   8.378   3.158   0.892  0.2928 -0.1208  0.3555
 8340W        W23471  16.157   0.241   0.555  0.2519  0.2852 -0.2372
 8341W        W23472  15.844   3.059   4.950  0.2546  0.1993 -0.2482
 8342W        W23473   7.317   9.328   3.374 -0.1713 -0.1375 -0.2285
 8343W        W23474   6.610   7.089  13.854  0.1922 -0.1871 -0.0783
 8344W        W23475   8.820  16.704   3.088  0.1746 -0.4060 -0.1400
 8345W        W23476   0.605  11.238   1.453 -0.1601  0.3657 -0.0330
 8346W        W23477  10.136   3.047  12.723 -0.1036 -0.2910  0.2683
 8347W        W23478   4.402   0.494   0.069 -0.0862  0.1228  0.0179
 8348W        W23479  16.874   1.960  11.179  0.1161  0.1339 -0.0143
 8349W        W23480   6.019  14.470   4.071  0.0648 -0.0489 -0.0117
 8350W        W23481   7.939  13.171   4.774 -0.1077 -0.3029 -0.1537
 8351W        W23482  11.272  10.617  13.609 -0.4340  0.1360 -0.1030
 8352W        W23483   9.724  14.720   3.749  0.1104 -0.1276 -0.1627
 8353W        W23484  13.615  14.197   4.628 -0.0081 -0.0730  0.1043
 8354W        W23485  16.277   3.906  13.180 -0.2224  0.0343  0.0623
 8355W        W23486  10.616  14.294   5.637  0.1254  0.0918  0.2594
 8356W        W23487  13.518  12.477   3.209 -0.0290  0.0007  0.0912
 8357W        W23488  17.305  14.003  13.959 -0.1816 -0.1751  0.0162
 8358W        W23489  10.916   5.599  15.638  0.2713 -0.0987 -0.2642
 8359W        W23490   6.348  15.273  11.576 -0.2021 -0.0686 -0.1518
 8360W        W23491  16.887  13.518  12.248  0.0670  0.0786  0.2392
 8361W        W23492  10.238   6.701  13.418 -0.0501  0.0224  0.1120
 8362W        W23493   0.983  16.117  13.229  0.0380 -0.0399 -0.3288
 8363W        W23494  12.515  10.293   2.155 -0.3110 -0.0580  0.2485
 8364W        W23495  10.261   2.657  15.798 -0.0654 -0.3680  0.2367
 8365W        W23496   5.143  13.310  13.444  0.0070  0.2977 -0.1693
 8366W        W23497  15.901  15.256   0.744  0.1878  0.2858  0.0386
 8367W        W23498   1.915  17.679  15.548  0.1028  0.2462  0.0749
 8368W        W23499   7.331   6.225   1.423  0.2849 -0.1345  0.2978
 8369W        W23500  10.342  17.321  15.658  0.0288  0.2572  0.1734
 8370W        W23501  14.508  13.278  15.912 -0.3348 -0.1591 -0.1248
 8371W        W23502   0.575   3.604   2.379 -0.0071 -0.0429 -0.2268
 8372W        W23503  10.457  14.698  12.745 -0.0071 -0.0719 -0.2654
 8373W        W23504  16.023   3.775  13.700 -0.1792  0.2228  0.0743
 8374W        W23505   6.490   2.741  15.820 -0.1090 -0.0326 -0.1639
 8375W        W23506   8.079  12.864  15.847 -0.3172  0.4877 -0.0730
 8376W        W23507  13.790   9.377   3.703 -0.0072  0.0359  0.0200
 8377W        W23508   8.683   9.406  14.926  0.0516 -0.3171  0.0921
 8378W        W23509   2.996  11.423  12.604  0.1478  0.2166 -0.3501
 8379W        W23510   8.555   0.734  14.499  0.2804  0.0785 -0.2874
 8380W        W23511  12.242   8.944  13.227  0.1077  0.1055 -0.0042
 8381W        W23512   9.340   5.421  15.281  0.3914  0.0054  0.0247
 8382W        W23513  10.592  12.081   1.373 -0.0191 -0.1582  0.0987
 8383W        W23514   2.167  12.938   1.202  0.0384  0.1538  0.2261
 8384W        W23515  17.219   3.441   1.486 -0.2762  0.0497 -0.1984
 8385W        W23516   3.601   2.987  13.921  0.0266  0.1546 -0.1256
 8386W        W23517  12.679  12.823  14.078  0.3295 -0.0330 -0.1408
 8387W        W23518   1.066   5.563   4.741  0.0474  0.0711 -0.1474
 8388W        W23519   3.997  16.464  13.990  0.0714 -0.1799  0.0578
 8389W        W23520   3.531  14.224   4.072  0.0821 -0.2960 -0.0749
 8390W        W23521   1.486   4.206   4.717  0.0175  0.0042  0.1829
 8391W        W23522  10.432  10.988  16.054 -0.0953  0.0167  0.2392
 8392W        W23523  18.100   1.271   2.401  0.2303 -0.0781  0.3354
 8393W        W23524   1.164   5.999   3.949 -0.2747 -0.1461 -0.0536
 8394W        W23525   2.378   3.901  15.990  0.0091 -0.3236  0.0154
 8395W        W23526   6.163  17.640   1.274  0.1327  0.0349  0.0956
 8396W        W23527  11.181  10.405  14.518 -0.1072  0.1101 -0.2014
 8397W        W23528  16.925  10.346   4.870  0.1677  0.1352  0.0172
 8398W        W23529   6.261  11.495  16.004 -0.1300 -0.1650  0.2585
 8399W        W23530   2.198   6.709   4.120 -0.2543  0.2458  0.3704
 8400W        W23531  10.359   9.850   3.636 -0.2100 -0.3080  0.1842
 8401W        W23532  12.766  16.223   3.674 -0.1267  0.0731  0.0266
 8402W        W23533  13.033   8.207   2.128  0.1040 -0.2843 -0.0864
 8403W        W23534   6.560  15.328  14.527  0.2140 -0.0474  0.0661
 8404W        W23535  13.435   2.497  11.597  0.3474 -0.2065  0.0253
 8405W        W23536  11.038   1.634  11.401  0.2970 -0.2361  0.1519
 8406W        W23537  16.618   3.540   5.571  0.1213  0.0061 -0.1814
 8407W        W23538   3.048   6.245   1.058 -0.2474  0.1168 -0.1635
 8408W        W23539   7.625  13.624   4.938 -0.2218  0.1601 -0.2976
 8409W        W23540  10.751   0.817  14.118  0.0110  0.0487 -0.2274
 8410W        W23541   0.483  17.624  14.214 -0.0275 -0.5101 -0.0899
 8411W        W23542  17.477  11.988   2.609 -0.1499 -0.0520 -0.0278
 8412W        W23543   5.604  10.416  12.569  0.3217  0.0346  0.1852
 8413W        W23544   7.171  12.995  13.023  0.1667 -0.1321  0.0234
 8414W        W23545  17.720   9.955  14.877 -0.0075 -0.1757 -0.4136
 8415W        W23546  16.195  12.296  14.028  0.1158 -0.3375  0.3017
 8416W        W23547  10.077   5.334  13.973 -0.0318  0.0152 -0.3809
 8417W        W23548  14.764  14.535  15.523  0.0845 -0.2350  0.2825
 8418W        W23549   6.839   1.310  10.302  0.0567  0.2406  0.4018
 8419W        W23550   6.521   0.568   3.358  0.1254  0.0863 -0.2286
 8420W        W23551   1.675  10.267   2.999 -0.0366 -0.1585  0.0691
 8421W        W23552   4.754   8.082  13.866  0.0318 -0.3198  0.0752
 8422W        W23553   2.762   7.145  13.776  0.0021 -0.2059  0.1632
 8423W        W23554   5.098   7.295  12.609  0.0719 -0.3280 -0.4170
 8424W        W23555  11.709  13.655  12.510 -0.1390  0.1884 -0.0433
 8425W        W23556  11.825  10.914  14.164 -0.1613 -0.0186  0.0651
 8426W        W23557   8.304   1.961  15.993  0.1229  0.1628  0.0603
 8427W        W23558   3.063   6.519   3.029  0.1632 -0.1119  0.1884
 8428W        W23559   9.776   4.830   3.846 -0.0342 -0.0429  0.0475
 8429W        W23560  12.547  13.966  14.645 -0.1161 -0.0007  0.4698
 8430W        W23561   5.048   1.287  15.717  0.0836  0.1251  0.1022
 8431W        W23562   5.260   9.821  14.501  0.0928 -0.1208 -0.0864
 8432W        W23563   8.848   2.164   4.003  0.0686 -0.0288  0.0904
 8433W        W23564  16.800   6.538   4.938 -0.2934  0.1162  0.0310
 8434W        W23565   5.583  10.528   5.357  0.1393 -0.0485 -0.1298
 8435W        W23566  17.708   3.260   4.661 -0.0389  0.0270  0.1530
 8436W        W23567   2.227  15.566  11.231  0.1940  0.1097 -0.1175
 8437W        W23568   3.239  12.669   2.575 -0.0382 -0.1240  0.1007
 8438W        W23569  16.539  12.234   1.271 -0.0471  0.1568  0.0692
 8439W        W23570  16.347  14.105  14.970 -0.0690 -0.0840  0.0520
 8440W        W23571   5.391   0.481  12.592 -0.2187  0.3555 -0.1979
 8441W        W23572  10.281  16.298   0.105 -0.2208  0.1616  0.2574
 8442W        W23573   5.574   2.288  14.131  0.1558 -0.3799  0.1644
 8443W        W23574  13.120   0.959   0.387 -0.2058 -0.1023  0.0092
 8444W        W23575  10.571   3.647   1.182  0.0353  0.1125 -0.4074
 8445W        W23576   9.622  17.508   0.383  0.1944 -0.0804 -0.1569
 8446W        W23577   0.652   3.212   0.071 -0.1966  0.0871  0.2587
 8447W        W23578   9.193  13.651  12.322 -0.2433 -0.2566 -0.0920
 8448W        W23579   0.729  16.790   5.817  0.2166 -0.0300 -0.0010
 8449W        W23580   4.101  16.093   3.144 -0.3504 -0.2194 -0.1905
 8450W        W23581   6.602   7.493   2.421  0.5345  0.2047  0.1245
 8451W        W23582  16.122   6.301   1.341  0.4230 -0.0423  0.0323
 8452W        W23583   4.949   0.045   0.626 -0.6418  0.0399 -0.0823
 8453W        W23584   3.341  17.135   1.041 -0.1475 -0.2745 -0.2207
 8454W        W23585   5.788   0.309  15.299 -0.0383  0.0559 -0.4169
 8455W        W23586   6.272  11.021   2.370 -0.0755  0.0754  0.0767
 8456W        W23587   1.630   5.681   1.080  0.3902 -0.2395 -0.0925
 8457W        W23588  11.759  15.868  10.674  0.1958  0.0146 -0.1101
 8458W        W23589  13.764   6.355   4.667 -0.0216 -0.1179 -0.1178
 8459W        W23590  12.172   7.673  12.150  0.0401 -0.1873  0.1340
 8460W        W23591   0.332   9.778   4.708  0.0806 -0.1583 -0.0499
 8461W        W23592   3.370   7.879   5.078  0.1374  0.2012 -0.0261
 8462W        W23593   8.754  16.318   2.759  0.1787  0.1000  0.0116
 8463W        W23594  15.041  16.781   3.044 -0.1670  0.2539 -0.0660
 8464W        W23595  14.950  10.537   4.291  0.1739 -0.2062 -0.0614
 8465W        W23596  15.329   6.324  15.953 -0.2768  0.0092  0.0373
 8466W        W23597  17.837   2.346   0.048 -0.0905 -0.0971 -0.1314
 8467W        W23598   1.109   4.149  13.050 -0.1100 -0.0458 -0.2229
 8468W        W23599  11.646  12.161  14.228  0.1651  0.2163 -0.0173
 8469W        W23600  13.110   3.546   5.439  0.1408  0.1069 -0.2985
 8470W        W23601   7.888   1.417   4.904  0.2203  0.3265 -0.0231
 8471W        W23602   2.057  14.946   2.504 -0.0221  0.0292  0.1274
 8472W        W23603   1.238   2.258   3.037  0.4984  0.2499  0.2214
 8473W        W23604  17.047   5.710   0.943  0.1084 -0.1238 -0.1328
 8474W        W23605   5.291   6.050  12.794  0.1127  0.1947 -0.1801
 8475W        W23606  15.850  16.170  12.042  0.0372  0.2353 -0.1276
 8476W        W23607  13.809   0.014  12.241 -0.1506  0.1709 -0.1337
 8477W        W23608   6.907  17.992   5.404  0.0606  0.1812 -0.0357
 8478W        W23609   9.225   1.567   0.825  0.2108  0.0495  0.0966
 8479W        W23610  13.796  13.930   1.464  0.0001  0.2237 -0.0309
 8480W        W23611   9.489  15.831   2.793 -0.1128 -0.0646 -0.2130
 8481W        W23612  15.477  17.445   1.270 -0.4352 -0.2110  0.1539
 8482W        W23613  14.925   6.428   5.468 -0.1934 -0.3679  0.4508
 8483W        W23614   5.864  10.728   2.194 -0.3730 -0.0900 -0.1473
 8484W        W23615   4.086   2.103   2.154 -0.1277 -0.0092 -0.1817
 8485W        W23616  12.503  16.792   0.263  0.1517 -0.2114  0.2264
 8486W        W23617  12.230  10.585   1.153  0.2203  0.0002 -0.0439
 8487W        W23618   4.801   7.039  13.902  0.0273  0.2095  0.1606
 8488W        W23619  13.458   5.128  14.068  0.2840  0.1412 -0.4337
 8489W        W23620  17.208   0.494  16.113  0.0925  0.0107 -0.1831
 8490W        W23621  10.386  17.406   5.470  0.1228  0.0626 -0.2639
 8491W        W23622   7.855  11.703  13.853 -0.0094  0.4056  0.1263
 8492W        W23623   2.462   9.034   2.678 -0.1084  0.2084 -0.0180
 8493W        W23624   7.929  17.004   5.505 -0.1250  0.0066 -0.2150
 8494W        W23625  13.385   0.566   5.633  0.0302 -0.3143  0.1236
 8495W        W23626  10.141   4.168   0.574  0.2904 -0.4799 -0.0904
 8496W        W23627  13.425   4.506  15.532 -0.1803  0.0907  0.4882
 8497W        W23628  16.165  14.757  13.359  0.1942 -0.0371  0.0145
 8498W        W23629   7.276  12.662   1.127 -0.0788 -0.2158  0.1667
 8499W        W23630   6.288  13.488   2.420 -0.0145 -0.0555 -0.0597
 8500W        W23631   4.620   2.117  15.285 -0.1733  0.0739 -0.2327
 8501W        W23632   9.203  15.613   0.874  0.1877  0.1603 -0.0520
 8502W        W23633  13.764   1.243  12.137 -0.2403 -0.0987 -0.1331
 8503W        W23634  14.461   6.092  14.469 -0.0895  0.2687 -0.1239
 8504W        W23635   1.605  11.460   3.751 -0.2167 -0.0537  0.1293
 8505W        W23636  14.318  17.457   3.286  0.2554 -0.1194 -0.0701
 8506W        W23637   1.852  12.374  15.033 -0.0647 -0.0520 -0.1447
 8507W        W23638   2.616   2.807  13.969  0.1419 -0.1233  0.1436
 8508W        W23639  10.890   7.785   2.288  0.3640 -0.1194 -0.3219
 8509W        W23640   0.672  12.818   9.897 -0.0708  0.3005  0.1908
 8510W        W23641   8.031  10.915  12.679  0.1823  0.1884 -0.1576
 8511W        W23642  11.480   0.881  13.867  0.1067  0.2869 -0.2837
 8512W        W23643   9.016  13.123   2.136  0.1059  0.0033  0.1962
 8513W        W23644   1.387   2.781   2.930  0.4171  0.0158 -0.1047
 8514W        W23645   5.456   5.985  14.265  0.0113 -0.1468 -0.1809
 8515W        W23646  17.756   7.048   5.460  0.4345  0.1851 -0.2613
 8516W        W23647  17.001  11.750   3.854  0.1798 -0.2211 -0.0382
 8517W        W23648   4.857  14.500  15.343 -0.1214  0.4043 -0.0349
 8518W        W23649   0.471   6.420   1.494  0.2858 -0.2510 -0.0538
 8519W        W23650  10.470  14.049  13.611 -0.2131 -0.0285  0.3492
 8520W        W23651  13.137  17.727  11.857 -0.1641 -0.0996 -0.0179
 8521W        W23652   4.115  18.047   4.716  0.1520 -0.2781 -0.1757
 8522W        W23653  14.739   7.906   1.202  0.1754 -0.1560  0.4182
 8523W        W23654   3.693  12.495   9.922  0.3238 -0.1809  0.3740
 8524W        W23655   3.762   6.977   1.457  0.0413  0.2208  0.1053
 8525W        W23656   8.977   2.311   5.501 -0.5574  0.2339 -0.2677
 8526W        W23657  17.046   4.471  13.013  0.2030 -0.1133  0.0092
 8527W        W23658   3.418   5.459  13.544  0.0843 -0.0938  0.0883
 8528W        W23659   3.110  11.187   2.449 -0.1239 -0.0613  0.2684
 8529W        W23660   4.850   8.255  14.325 -0.0018 -0.1767 -0.0711
 8530W        W23661  13.275   5.199   0.419  0.1084  0.3586 -0.0559
 8531W        W23662  14.152   0.265  11.898 -0.0087  0.1500 -0.1047
 8532W        W23663  18.024  15.763  12.012  0.0509  0.2742 -0.0844
 8533W        W23664   7.462  16.307  13.952  0.2172 -0.0888  0.0377
 8534W        W23665  15.953  15.337  14.437  0.0613  0.1069 -0.1436
 8535W        W23666  10.121  16.751   5.888 -0.1532 -0.0419 -0.3708
 8536W        W23667  14.067  10.276  16.148  0.0727  0.0014 -0.0179
 8537W        W23668   9.633  11.921  11.564  0.0763 -0.0842 -0.3290
 8538W        W23669   0.548  12.626   3.684  0.1603  0.1120 -0.1604
 8539W        W23670  13.358   3.842   2.209  0.0840 -0.2982 -0.0919
 8540W        W23671  14.959  16.635   2.613 -0.0056 -0.3617 -0.0125
 8541W        W23672   4.655   7.927   2.227  0.2065  0.2424  0.0843
 8542W        W23673   3.521  11.539   1.177 -0.3728  0.2697 -0.0848
 8543W        W23674   8.746  12.202  11.524  0.2084 -0.0368 -0.2099
 8544W        W23675   1.921   3.607  11.352  0.3215 -0.0095  0.2848
 8545W        W23676   4.670  14.790  11.682  0.3093 -0.2991  0.1126
 8546W        W23677  10.153  13.518   1.637  0.2969  0.0330  0.0547
 8547W        W23678   5.572   9.899  11.588 -0.1062  0.0446  0.2286
 8548W        W23679   1.917  10.242  12.481 -0.2225 -0.1371 -0.1563
 8549W        W23680  14.164   3.301  15.490  0.2854  0.2264  0.0303
 8550W        W23681  15.354   9.362  11.051 -0.0238 -0.0443  0.0623
 8551W        W23682  11.852   8.091   5.599  0.1790 -0.0168  0.0665
 8552W        W23683  13.737   8.277  10.900  0.0149  0.0745  0.1144
 8553W        W23684   2.902  13.414  13.375 -0.0367  0.2262 -0.2634
 8554W        W23685   2.967  17.324  13.384 -0.0769  0.2641  0.3236
 8555W        W23686   3.234  14.766   1.893 -0.3123 -0.2909  0.1262
 8556W        W23687   7.603   7.520   3.849  0.1987  0.0163 -0.0723
 8557W        W23688   8.435   4.676  10.696  0.3291 -0.2027  0.0105
 8558W        W23689  12.670  10.115  14.970 -0.1701 -0.1545 -0.0562
 8559W        W23690  15.199  13.460  12.085 -0.1830  0.2913 -0.0546
 8560W        W23691   2.551  16.480   0.170  0.4168 -0.0464 -0.0054
 8561W        W23692   0.182  17.727   5.798 -0.2635  0.2655 -0.0497
 8562W        W23693   5.397   8.192   2.704 -0.2148 -0.0925  0.0800
 8563W        W23694   0.908   9.820  12.465 -0.2271 -0.2254 -0.2778
 8564W        W23695  16.381   7.411  11.300 -0.0027 -0.2537 -0.2367
 8565W        W23696  12.755   5.404  14.867 -0.2395 -0.1824 -0.1046
 8566W        W23697  17.335  14.816  12.325  0.2605  0.2214  0.0983
 8567W        W23698   9.912  12.947  14.400  0.0199  0.2484 -0.0598
 8568W        W23699   9.482   6.054   0.225 -0.0648 -0.0490  0.1838
 8569W        W23700   1.406   0.753   0.266 -0.1621  0.1067  0.2322
 8570W        W23701   3.085   5.505   5.059 -0.0149 -0.0766 -0.0782
 8571W        W23702   6.027   3.002   3.193 -0.1544  0.3086  0.0094
 8572W        W23703   7.179  12.366  15.412 -0.2902 -0.1123  0.0337
 8573W        W23704   1.232  14.021  13.171  0.0210 -0.1561 -0.2196
 8574W        W23705  16.127   9.816   6.214 -0.0006 -0.0423  0.1444
 8575W        W23706  10.741  15.308   4.387  0.1978 -0.1364  0.2706
 8576W        W23707  12.625   7.536  10.856  0.1008  0.0417 -0.1928
 8577W        W23708   2.113   8.651  14.520 -0.0756  0.2801  0.1220
 8578W        W23709   0.161   4.150  11.579 -0.0481 -0.0907  0.1491
 8579W        W23710   6.116  12.077   2.265  0.0025 -0.2652 -0.0108
 8580W        W23711   0.304  16.155   0.012 -0.5409 -0.2553 -0.1324
 8581W        W23712   6.503   1.695   4.153 -0.1050  0.1884 -0.4236
 8582W        W23713   7.268   0.713   1.940  0.1531  0.0456 -0.2661
 8583W        W23714   0.297   4.409   1.033 -0.0709 -0.0891 -0.5874
 8584W        W23715  11.949   1.830  13.756  0.1655 -0.0576 -0.0099
 8585W        W23716   6.052   0.084  13.256 -0.3258 -0.1001 -0.0552
 8586W        W23717  12.963  17.880   0.157 -0.1209  0.1130 -0.4738
 8587W        W23718   2.944  15.142  11.048 -0.4793 -0.0265  0.2368
 8588W        W23719   9.432   1.097   5.219 -0.0851  0.2781  0.0001
 8589W        W23720   0.492  11.870   4.845 -0.1425  0.0210  0.0948
 8590W        W23721  15.701   5.653   4.712 -0.1928  0.1471 -0.4882
 8591W        W23722   5.842  16.671  14.819  0.2635 -0.0519 -0.1741
 8592W        W23723  13.740   3.215  15.756  0.1312  0.3330  0.0750
 8593W        W23724  14.072   1.935   2.941  0.1280 -0.0635 -0.2599
 8594W        W23725  14.795  16.509  13.792  0.3070  0.1085  0.2031
 8595W        W23726   1.648   8.520   2.778  0.1025 -0.2602  0.0457
 8596W        W23727  16.308   3.161  13.882  0.0038 -0.2310 -0.3390
 8597W        W23728   2.961   1.669   1.778  0.1045  0.0897  0.0239
 8598W        W23729   3.209   4.389   2.081 -0.1416  0.1141  0.2258
 8599W        W23730   1.232  17.590  14.437 -0.4372 -0.0744  0.1080
 8600W        W23731   3.325  17.419   4.526 -0.3471 -0.2952  0.1952
 8601W        W23732   9.957   5.814  13.148 -0.0966 -0.0916  0.2258
 8602W        W23733   9.272   4.047  11.075  0.0238  0.0620  0.0799
 8603W        W23734  13.537  12.867  12.345  0.0294  0.1175  0.2907
 8604W        W23735   0.643  13.965   4.470  0.1860 -0.0892  0.1633
 8605W        W23736  16.264   3.212   3.196 -0.2403  0.1339  0.0507
 8606W        W23737  18.026   0.819  14.643  0.0738 -0.0883 -0.1165
 8607W        W23738  15.887  13.751  11.190  0.0226  0.2774  0.1788
 8608W        W23739   6.968  16.297  15.632 -0.0018 -0.1247 -0.1437
 8609W        W23740   2.122   9.324   2.909  0.2303  0.1700  0.2132
 8610W        W23741  14.782   4.176  12.522 -0.0733  0.0998 -0.0468
 8611W        W23742   1.365  11.761   4.489 -0.0301  0.0002  0.1139
 8612W        W23743   3.497   8.289   4.916 -0.0296 -0.1172 -0.2477
 8613W        W23744  10.362  16.126   2.155 -0.1121 -0.4274  0.2168
 8614W        W23745   7.588   8.105   0.145 -0.3130 -0.0813  0.0733
 8615W        W23746  10.204  15.062   0.882 -0.0589 -0.0994 -0.3736
 8616W        W23747  15.265   4.282   5.837 -0.1143  0.0185 -0.2909
 8617W        W23748  15.363   8.598  12.310 -0.3407  0.1104 -0.1056
 8618W        W23749   4.699   5.226   1.052  0.2906 -0.0955  0.0906
 8619W        W23750   2.227   6.821  14.366  0.0010  0.1151 -0.0380
 8620W        W23751   6.371  15.330   2.476 -0.1800  0.1581 -0.2150
 8621W        W23752  12.978   6.883  13.823 -0.1388  0.0326  0.0063
 8622W        W23753   6.164   5.299   3.252  0.1956  0.0741 -0.0707
 8623W        W23754   1.462   3.305  15.679  0.1920  0.1643  0.2261
 8624W        W23755   6.665   9.952   2.996  0.2746 -0.1139 -0.3706
 8625W        W23756   6.451  13.421   0.984  0.0626  0.2813  0.1097
 8626W        W23757   5.442   8.822   5.048 -0.0998 -0.1342 -0.0823
 8627W        W23758  14.134  18.084   0.824 -0.0604 -0.1841 -0.0947
 8628W        W23759   8.026  16.317  11.837  0.1396 -0.2506  0.1404
 8629W        W23760   8.439  16.166   5.087  0.1428 -0.0348 -0.1631
 8630W        W23761  16.170   6.563  15.845  0.5655 -0.1408  0.1202
 8631W        W23762   0.943  15.218   0.011 -0.2247 -0.2867  0.2044
 8632W        W23763   9.289   6.483   1.698 -0.1681  0.1021  0.2605
 8633W        W23764   9.431   8.803   5.418 -0.1225 -0.2282 -0.2262
 8634W        W23765   9.393   4.925  16.178 -0.0701 -0.0965 -0.1874
 8635W        W23766   4.964   5.659  12.986 -0.0214 -0.1309  0.0112
 8636W        W23767   6.109   7.718  11.513  0.1031 -0.1879 -0.1332
 8637W        W23768  11.854   6.991  11.574  0.1444  0.2266  0.1546
 8638W        W23769   6.692  12.097  13.074  0.2837  0.0146  0.1269
 8639W        W23770  15.654   9.994   4.652  0.2133 -0.0660 -0.0367
 8640W        W23771   8.605  18.008   4.181  0.1511  0.0608  0.0524
 8641W        W23772   6.098   6.321   4.181  0.0156 -0.0905  0.0499
 8642W        W23773   5.965  16.534  11.319  0.0138  0.3205  0.0297
 8643W        W23774   4.660  10.795  12.289 -0.0949  0.1788  0.0503
 8644W        W23775   5.062   9.785  11.455  0.2469  0.1193 -0.1351
 8645W        W23776   7.051  10.928   5.170  0.0240 -0.0408  0.0817
 8646W        W23777  16.155   1.527  11.948 -0.0605 -0.0101  0.3465
 8647W        W23778   1.491   8.604   4.536  0.0071  0.2533 -0.3762
 8648W        W23779   9.009   6.601  16.000 -0.1987 -0.0222  0.0059
 8649W        W23780   4.331   6.483  11.017  0.2410  0.2133 -0.0461
 8650W        W23781   1.757   3.890  13.208 -0.0957  0.2006 -0.1877
 8651W        W23782   9.374   8.334   5.588  0.0921 -0.1999 -0.1499
 8652W        W23783  16.389  14.438  16.144  0.2095  0.3535  0.0346
 8653W        W23784  16.412   4.060  13.864  0.3683 -0.1346  0.2395
 8654W        W23785   0.573   3.723   4.508  0.3652  0.0991  0.1493
 8655W        W23786   7.306  12.106   4.147 -0.2396 -0.3119  0.2230
 8656W        W23787  12.732   2.348  14.443  0.1401 -0.0544  0.2362
 8657W        W23788  17.690  16.522   1.519  0.0668 -0.1732  0.1221
 8658W        W23789  15.203   3.440  12.502  0.1251 -0.1066 -0.0974
 8659W        W23790  14.879  14.588  11.827  0.1142  0.0447  0.0364
 8660W        W23791  15.945  17.315   3.064 -0.1348  0.0224  0.1206
 8661W        W23792  14.906  15.783   1.973 -0.0172 -0.0609 -0.0585
 8662W        W23793  16.954   9.576   2.405 -0.0934  0.1865  0.0399
 8663W        W23794  15.348   4.997  13.285 -0.3298 -0.0181 -0.0718
 8664W        W23795   7.864  11.351   0.711 -0.1965 -0.1719 -0.1428
 8665W        W23796   6.040   8.125  11.202 -0.0950 -0.0267  0.0202
 8666W        W23797   1.506  16.135   2.886 -0.2129 -0.2213  0.0845
 8667W        W23798  13.563   1.865   1.253  0.1470 -0.1269  0.0241
 8668W        W23799   2.861  10.097  13.278 -0.2084  0.0115  0.0660
 8669W        W23800   9.700   6.972   6.099  0.1250  0.2154 -0.0954
 8670W        W23801   7.313   2.099   0.659  0.1911 -0.1262  0.2222
 8671W        W23802   4.919  11.065  13.203 -0.0601  0.2506  0.0060
 8672W        W23803   6.713   9.844  10.129  0.2597  0.2477 -0.2832
 8673W        W23804   1.027  10.402   4.736 -0.2525  0.0730 -0.1815
 8674W        W23805  11.223  14.920   4.125  0.0350 -0.2867  0.0772
 8675W        W23806  15.642   5.189   5.810 -0.0814  0.0134  0.0263
 8676W        W23807   6.410   5.491  12.840  0.2370  0.2248  0.0859
 8677W        W23808  12.646  12.348  15.467  0.2123 -0.5091  0.1509
 8678W        W23809   5.958   4.917   6.246 -0.1201  0.1486 -0.3313
 8679W        W23810   8.856   9.330   2.588  0.0466  0.0321  0.3197
 8680W        W23811   3.312   3.140   1.795 -0.2184  0.2126  0.2415
 8681W        W23812   1.587   7.792  13.168  0.2245  0.0896 -0.0492
 8682W        W23813   1.094   0.931  11.266 -0.2086 -0.2305 -0.0474
 8683W        W23814  14.170  15.232   3.528  0.3966 -0.0976 -0.0004
 8684W        W23815  16.047  14.536  10.962  0.1486 -0.1021 -0.1109
 8685W        W23816   3.129   1.493  15.557  0.1134  0.1516 -0.2205
 8686W        W23817  12.647   7.946   4.943  0.1004 -0.0211  0.0809
 8687W        W23818   5.152   1.525  15.099 -0.0076 -0.0408  0.3035
 8688W        W23819   6.027  14.793  14.203  0.1508  0.0567 -0.2842
 8689W        W23820  17.121   0.764   3.033 -0.1156  0.1022 -0.1035
 8690W        W23821   9.162   3.015   6.053  0.0753 -0.1497 -0.0854
 8691W        W23822   0.268   1.280   2.871 -0.0518 -0.0336  0.2998
 8692W        W23823   1.450  16.551  14.595  0.0965 -0.2688  0.3264
 8693W        W23824   6.215   5.627   3.658  0.1233 -0.3315 -0.0624
 8694W        W23825   3.617  14.464   2.050  0.1394  0.1165 -0.4738
 8695W        W23826  17.697   8.274  15.328  0.2257  0.0282 -0.1445
 8696W        W23827   8.780   8.955   4.858  0.2002  0.2225 -0.1798
 8697W        W23828   5.298   8.524  13.044 -0.1905  0.1448 -0.1460
 8698W        W23829  11.839  12.867  13.660 -0.1990  0.1529  0.0709
 8699W        W23830   0.413   6.872  12.474  0.2212 -0.1457 -0.0332
 8700W        W23831  14.958  16.197   2.264  0.1615 -0.1240  0.2066
 8701W        W23832   2.558   1.639  12.194  0.1172 -0.2010 -0.0790
 8702W        W23833   2.094  15.218  15.682 -0.2897  0.1736  0.1707
 8703W        W23834   7.251   5.956  14.428  0.0400  0.0592 -0.2169
 8704W        W23835  15.583   4.248  12.005 -0.0975  0.1979 -0.1265
 8705W        W23836   9.701   8.483  16.066  0.0587 -0.3149  0.1014
 8706W        W23837  11.134   3.809  15.510  0.0387 -0.0064  0.2940
 8707W        W23838   1.234   6.668   0.276  0.1030 -0.0826 -0.2222
 8708W        W23839  14.605  16.538   5.562  0.0809 -0.2626 -0.1208
 8709W        W23840   5.615   8.641   0.170  0.3135 -0.1014  0.2365
 8710W        W23841  11.134  17.844  15.973  0.2982  0.0400  0.0246
 8711W        W23842  12.058   7.775  12.681 -0.1848 -0.4154  0.2145
 8712W        W23843   7.331   2.239  12.758 -0.3559 -0.2312  0.2924
 8713W        W23844   7.578   8.689   5.391 -0.0054  0.1200  0.2459
 8714W        W23845   9.984   7.676  11.096 -0.1701 -0.0073 -0.1612
 8715W        W23846  15.247  12.453  14.454  0.3583  0.4498 -0.0981
 8716W        W23847   1.365  10.965  13.496  0.3086 -0.1909 -0.3369
 8717W        W23848  16.095   7.187   0.656  0.0177 -0.1525  0.0901
 8718W        W23849   9.365   6.975   5.352 -0.0044 -0.1146  0.1909
 8719W        W23850   0.466  13.015   5.373 -0.0373 -0.2182  0.2097
 8720W        W23851  15.188   4.416  12.714 -0.3482  0.0390 -0.3166
 8721W        W23852  13.905  14.563  15.461  0.2259  0.1989  0.0587
 8722W        W23853   2.018  10.616   3.842 -0.0724  0.2334 -0.3448
 8723W        W23854   4.130   7.772   6.062  0.0674  0.0135  0.0646
 8724W        W23855  12.255   3.724  13.269 -0.0170  0.2303  0.2182
 8725W        W23856   1.566   6.217  12.394 -0.2685 -0.3269 -0.1551
 8726W        W23857  10.415  14.356  11.771 -0.0332 -0.0425  0.1143
 8727W        W23858   7.029   3.394   4.806  0.2219 -0.0954 -0.0606
 8728W        W23859   2.123  17.396  11.202 -0.1651  0.1273 -0.2086
 8729W        W23860  10.022  16.441  13.617  0.0953  0.3182  0.0491
 8730W        W23861   1.657  17.336   1.605  0.1553  0.2597  0.0880
 8731W        W23862  10.474   9.553   0.286  0.4000 -0.0367 -0.2769
 8732W        W23863  11.970  15.090  12.904 -0.1302 -0.0372 -0.2447
 8733W        W23864   0.792  14.486   2.887  0.2510 -0.0370  0.1469
 8734W        W23865   3.568  17.009  14.449 -0.0847  0.1016 -0.0861
 8735W        W23866   7.940   4.374  11.316 -0.1160  0.1996 -0.1351
 8736W        W23867   9.204   1.247   4.500  0.1636 -0.0495  0.0382
 8737W        W23868   2.482   8.015  13.265  0.1371  0.0405  0.1200
 8738W        W23869  15.745  13.400  15.319 -0.0801  0.0424 -0.1713
 8739W        W23870   6.214   8.760  14.657 -0.0754 -0.0107  0.1576
 8740W        W23871   0.240  15.288   2.535 -0.3337  0.1030 -0.1896
 8741W        W23872  10.682   6.458  14.880  0.1441  0.2009  0.0190
 8742W        W23873  14.752  12.435   5.461 -0.0191 -0.1477 -0.2180
 8743W        W23874   8.031  13.331   2.049  0.0080  0.1978  0.4910
 8744W        W23875   5.034  12.758  15.262 -0.1097  0.1337  0.0507
 8745W        W23876  16.636  14.675   0.390 -0.1151 -0.0536 -0.0436
 8746W        W23877  14.562   5.090   0.654 -0.1281 -0.0610  0.2570
 8747W        W23878   0.969  10.832   4.970  0.0783  0.0789 -0.1864
 8748W        W23879  18.035   0.926   0.247 -0.1415 -0.1543  0.1984
 8749W        W23880  15.568   1.871  10.841 -0.2624 -0.1704 -0.1616
 8750W        W23881   0.247   2.188  12.801 -0.0051  0.2256  0.1180
 8751W        W23882   1.228   1.779   1.013 -0.0251 -0.2267  0.0850
 8752W        W23883  12.999  15.492   4.084  0.1270  0.0714 -0.1786
 8753W        W23884  10.757  15.216  11.511 -0.3180 -0.3222 -0.2308
 8754W        W23885   3.171  10.067   1.979  0.0232 -0.1983 -0.0299
 8755W        W23886   0.105   5.414   3.795  0.1391 -0.2482 -0.2329
 8756W        W23887  17.032   5.882  13.264  0.3136  0.1935  0.1633
 8757W        W23888   8.610  17.631   2.238 -0.1520  0.1702 -0.0630
 8758W        W23889  17.904   7.322  10.516 -0.1768 -0.0158 -0.0209
 8759W        W23890  15.822   0.410  15.021 -0.1355  0.2117 -0.2248
 8760W        W23891  15.368   5.743  11.392  0.0468 -0.0550  0.4859
 8761W        W23892   4.265   8.360   3.652  0.1653  0.2857 -0.1032
 8762W        W23893   7.922  16.884   0.939 -0.0988  0.1433 -0.2155
 8763W        W23894  13.030  13.912   2.230  0.0645 -0.0589  0.2667
 8764W        W23895   3.691   8.058  13.402  0.1382 -0.0964 -0.0957
 8765W        W23896   4.215   6.952   5.891 -0.1778  0.1126  0.2282
 8766W        W23897   4.276   6.967   1.742 -0.2076  0.1551 -0.1287
 8767W        W23898  14.609  16.948  13.943 -0.0145 -0.0624 -0.0754
 8768W        W23899   3.354  11.718   5.378  0.0178 -0.2090 -0.1137
 8769W        W23900  17.322  15.039   3.395 -0.4512 -0.0621 -0.0092
 8770W        W23901  12.402   7.901   1.688  0.0267 -0.3518  0.0015
 8771W        W23902   3.281  13.185   0.681 -0.1135  0.0131 -0.3442
 8772W        W23903   4.889  16.292  11.133  0.2013  0.0264  0.1658
 8773W        W23904   7.328   7.392  12.091 -0.1199 -0.0592 -0.1113
 8774W        W23905  12.032   5.671   5.304  0.0657  0.0973  0.1072
 8775W        W23906  14.845   3.428   1.943  0.0355  0.2112 -0.0578
 8776W        W23907  17.047   0.895   4.810  0.0737 -0.0617 -0.2607
 8777W        W23908   7.001  12.460   4.459  0.0149 -0.0532  0.2450
 8778W        W23909  13.164   2.026   1.982  0.0923 -0.2091 -0.0155
 8779W        W23910  16.165  15.019  15.297  0.0232 -0.0141  0.0085
 8780W        W23911   0.823  10.891   3.517  0.0167 -0.0225  0.0219
 8781W        W23912  13.605  16.545   5.507  0.2640 -0.1818  0.4205
 8782W        W23913   6.934   2.894   4.871 -0.1233 -0.0772  0.1078
 8783W        W23914  15.967  13.865   4.422 -0.1516 -0.0858 -0.0863
 8784W        W23915   0.121  10.547  13.634  0.0603 -0.3157  0.0680
 8785W        W23916  14.747  15.516  12.107 -0.3301  0.1324 -0.2488
 8786W        W23917   6.887   6.768  11.007  0.2206  0.0497 -0.1788
 8787W        W23918  13.062   3.180  13.940  0.0403 -0.1253  0.0379
 8788W        W23919   1.742   7.586  14.698 -0.0198  0.1073 -0.0363
 8789W        W23920  17.095   7.353  16.008 -0.1083  0.2303 -0.0827
 8790W        W23921   4.816   6.046  15.143  0.2605 -0.0661  0.1697
 8791W        W23922   4.190  15.157   2.118 -0.1296  0.0446  0.2427
 8792W        W23923   9.074   9.232  13.180  0.0041  0.1626 -0.0942
 8793W        W23924  17.216   3.106   4.888  0.1062 -0.2143 -0.1216
 8794W        W23925   9.468  17.499  12.070  0.1423 -0.1144  0.1402
 8795W        W23926  13.255  11.856   3.260 -0.0617  0.0999 -0.0138
 8796W        W23927  16.244  11.853  13.764 -0.1528 -0.2162 -0.1364
 8797W        W23928   1.829  13.769  13.818  0.1674  0.2962 -0.1785
 8798W        W23929   9.345   7.448  14.114 -0.2525 -0.0585  0.1661
 8799W        W23930   7.199   3.107  11.654  0.0836 -0.2700  0.0323
 8800W        W23931  10.728   0.262  15.472 -0.0353 -0.1165 -0.2186
 8801W        W23932  15.637  11.555   2.118 -0.1787 -0.1038 -0.1349
 8802W        W23933   0.672   4.570  12.309  0.0557 -0.0525  0.3641
 8803W        W23934  14.335   9.878   5.937  0.0178 -0.1856 -0.1282
 8804W        W23935  10.745  11.411  10.907 -0.0435 -0.0447 -0.0236
 8805W        W23936   1.856  10.857  11.550  0.3349  0.0292  0.1640
 8806W        W23937   3.700  10.676   2.026 -0.2452  0.0584  0.2963
 8807W        W23938   9.597   2.686   3.522 -0.1826 -0.1655 -0.3265
 8808W        W23939   5.674   4.226  12.372  0.1434  0.0507 -0.1604
 8809W        W23940   7.419  16.441  11.838  0.0634 -0.0357 -0.2040
 8810W        W23941   6.296   3.466  14.973  0.1139 -0.1911 -0.2713
 8811W        W23942  17.840  17.688   4.692  0.0629 -0.2034 -0.0789
 8812W        W23943   8.898  13.190  15.043 -0.2862 -0.1700 -0.1844
 8813W        W23944  16.907  10.630  11.400  0.0645 -0.0698  0.0702
 8814W        W23945   0.566   4.133   1.729  0.0150 -0.2157  0.1674
 8815W        W23946   6.320  18.084  14.051 -0.1914 -0.0946  0.0647
 8816W        W23947  14.495   6.680  12.169  0.2243 -0.1634 -0.0866
 8817W        W23948  12.113  12.632  14.236  0.0568  0.1650 -0.2259
 8818W        W23949   5.313  15.606  12.010 -0.0973  0.2718 -0.0185
 8819W        W23950   3.796  15.246  11.424  0.1897 -0.0669  0.2668
 8820W        W23951   0.697   4.083   5.364  0.0872 -0.0208 -0.2352
 8821W        W23952   9.267   9.844  12.335 -0.0207 -0.2648  0.3324
 8822W        W23953  11.755   7.214  15.863  0.0295 -0.0618  0.1370
 8823W        W23954   9.880  12.922  12.442 -0.1840  0.1954  0.0341
 8824W        W23955  15.339  14.539  11.834 -0.2457 -0.2226  0.0431
 8825W        W23956  12.213   6.053  14.820  0.0885 -0.2247  0.1559
 8826W        W23957  14.993  16.463   0.946  0.0789  0.4278 -0.1966
 8827W        W23958  11.862  12.898   2.295 -0.3626 -0.4196  0.5343
 8828W        W23959   6.524  11.893  15.754  0.3517  0.1975 -0.0671
 8829W        W23960  12.687  11.238  15.723  0.0650 -0.1453 -0.1386
 8830W        W23961   5.958  12.369  11.847 -0.2165  0.0509 -0.0302
 8831W        W23962  13.040   3.183   1.077 -0.0656  0.1200  0.0276
 8832W        W23963   1.934  17.680  14.898  0.0880  0.2540 -0.0686
 8833W        W23964   0.238   1.375   0.374  0.4289 -0.0308  0.0396
 8834W        W23965  16.259  15.879   0.650  0.1405  0.1915  0.1363
 8835W        W23966  11.008   4.026   1.065  0.2105  0.1171 -0.0465
 8836W        W23967  12.331  12.933   3.693 -0.3106  0.1241 -0.0223
 8837W        W23968  14.827   3.128  14.838  0.1669 -0.3440  0.1341
 8838W        W23969   4.139  15.736  15.369 -0.1868 -0.1627 -0.0280
 8839W        W23970   3.102   2.732  12.483  0.2638  0.0691 -0.1486
 8840W        W23971  13.150  14.428   4.778  0.1883 -0.1520 -0.2415
 8841W        W23972   9.840  17.136   0.067 -0.0717  0.2059  0.4021
 8842W        W23973   3.074   6.534   0.534 -0.0085 -0.2434 -0.0635
 8843W        W23974   1.002   1.312   0.991  0.2480  0.1655 -0.1592
 8844W        W23975  14.371  14.623   2.340 -0.2668  0.0105  0.0019
 8845W        W23976  17.373   9.074   0.811  0.2355  0.0446 -0.4877
 8846W        W23977  15.800  11.252  14.391  0.0478 -0.0263 -0.0273
 8847W        W23978   0.369   5.685   0.683 -0.0792 -0.1400 -0.2483
 8848W        W23979  10.881   3.070  12.969  0.4112  0.0342 -0.0280
 8849W        W23980   1.799   7.121  11.120  0.2585 -0.1175 -0.3073
 8850W        W23981   9.944  13.440   4.338  0.3152  0.0003  0.1421
 8851W        W23982  11.982   3.413  15.117  0.0597  0.0504  0.0584
 8852W        W23983  11.141   8.505   5.476 -0.1648  0.2489  0.1615
 8853W        W23984   9.607  10.911   2.715  0.0377  0.2785  0.2911
 8854W        W23985   5.913   0.019  12.777 -0.0968 -0.3286  0.0733
 8855W        W23986  15.594  16.559   1.746 -0.1511  0.2952 -0.0151
 8856W        W23987   7.731   0.364   0.640 -0.2455  0.3754 -0.4843
 8857W        W23988  15.842  11.470   1.441  0.0105  0.0676 -0.3942
 8858W        W23989   5.127  11.008   2.693  0.2681 -0.0827 -0.1801
 8859W        W23990   0.903  17.882  16.245 -0.0338 -0.0574 -0.0635
 8860W        W23991   0.037  11.765  11.459 -0.3005  0.0104 -0.3028
 8861W        W23992   4.193   9.533   0.470  0.1929 -0.1082 -0.0752
 8862W        W23993   5.864   0.499  11.670  0.2284  0.2487  0.0035
 8863W        W23994   0.607   2.333   3.634  0.0164  0.1871  0.2864
 8864W        W23995   2.914  17.851   1.768  0.1718 -0.1741  0.0522
 8865W        W23996   8.916  16.467  11.565 -0.3033  0.1431  0.3402
 8866W        W23997   1.543  12.608  12.292 -0.3051  0.3409 -0.0522
 8867W        W23998  12.562   5.030   5.397  0.1667 -0.2625 -0.1392
 8868W        W23999   2.559  13.217  14.281  0.0809  0.1572  0.1151
 8869W        W24000   4.306  13.346   4.777  0.1052  0.3840  0.0594
 8870W        W24001   9.907   1.459   5.455  0.1757  0.3345  0.1331
 8871W        W24002  16.506  15.778   1.138 -0.2198 -0.1353  0.1414
 8872W        W24003   6.075   1.804   5.350 -0.1715  0.2435 -0.0278
 8873W        W24004   9.697   9.492  11.967 -0.0109 -0.0596  0.1368
 8874W        W24005  11.062  15.119   2.353  0.1529  0.0872  0.0738
 8875W        W24006  17.082   3.801   4.034  0.0483 -0.3622 -0.0093
 8876W        W24007   0.831  17.076   3.921 -0.1206 -0.1158 -0.2023
 8877W        W24008  17.908   4.154   4.989 -0.0188  0.0889  0.2826
 8878W        W24009   2.338   5.932   5.560 -0.2920 -0.1642  0.1975
 8879W        W24010  17.170  15.406  15.371  0.0184 -0.0991  0.2286
 8880W        W24011   6.728   1.403  10.833 -0.0193  0.2230  0.1041
 8881W        W24012  12.448   0.847  14.366 -0.2658  0.3143 -0.0717
 8882W        W24013   4.679  12.293   1.386  0.1669  0.0964 -0.0870
 8883W        W24014  15.673   1.657  11.684 -0.3853 -0.2246  0.0599
 8884W        W24015   3.053  17.016   4.496 -0.0684 -0.1144 -0.2030
 8885W        W24016   3.877   7.852   0.620  0.1167 -0.0562  0.0762
 8886W        W24017   7.759   1.039  12.276  0.3697  0.1697  0.1111
 8887W        W24018   8.223   6.312  10.193 -0.2274  0.1135 -0.1973
 8888W        W24019   7.878   1.058  15.691  0.1341 -0.1221  0.0996
 8889W        W24020   5.841  14.152   1.842  0.0447  0.0534 -0.0927
 8890W        W24021  17.687   5.697   3.620  0.3433  0.1421 -0.2343
 8891W        W24022  16.631  15.620  15.722 -0.0193 -0.1134 -0.1477
 8892W        W24023  13.454   2.800   4.449 -0.0038 -0.0134  0.0808
 8893W        W24024  12.573   0.045  12.483  0.1477  0.1040  0.1091
 8894W        W24025  15.859  16.714  15.841 -0.0507  0.1955  0.3475
 8895W        W24026   9.071  14.578  13.294 -0.6596 -0.0911  0.2107
 8896W        W24027   8.620   6.487   2.788 -0.0089 -0.3202 -0.0600
 8897W        W24028  14.754   8.308  15.276 -0.0808 -0.0321  0.1508
 8898W        W24029  16.945   0.859   2.547 -0.1476  0.2316 -0.3644
 8899W        W24030   5.056  14.318   4.515  0.1842  0.4115 -0.0283
 8900W        W24031  12.602   6.027   3.271  0.0037  0.0205  0.1717
 8901W        W24032  16.426   1.395   3.403  0.0577  0.1935 -0.2532
 8902W        W24033  15.041   5.559  10.457 -0.0178 -0.0079  0.0478
 8903W        W24034  11.829   3.226  13.982  0.0338 -0.1794 -0.1339
 8904W        W24035   0.749   2.965  12.791 -0.0839 -0.3061 -0.1804
 8905W        W24036  18.073   0.137   4.107  0.2935 -0.1175  0.0257
 8906W        W24037   5.024  13.894  14.182  0.0057  0.1450  0.3366
 8907W        W24038   5.454  17.838   1.955  0.1428 -0.0760 -0.2119
 8908W        W24039   4.423  10.291   3.114 -0.1244 -0.0269  0.1465
 8909W        W24040   5.133  17.020   0.951  0.0432 -0.0821 -0.1475
 8910W        W24041  11.843   3.815   2.472  0.0513  0.0555  0.2917
 8911W        W24042   4.314  13.195   1.273  0.0776 -0.0433  0.2258
 8912W        W24043   4.659  17.140   1.212 -0.2072  0.1687  0.1453
 8913W        W24044   8.647  15.733   3.410  0.0972 -0.0159  0.1934
 8914W        W24045  13.717   1.979  16.195  0.1771  0.1037  0.1002
 8915W        W24046   7.596  15.760   0.155  0.1229  0.0776 -0.5050
 8916W        W24047   7.470   1.593   5.574 -0.0728 -0.1855  0.0034
 8917W        W24048   8.797   7.716   4.727  0.0778  0.3390  0.0069
 8918W        W24049  10.162  16.655  11.346  0.2066 -0.0206 -0.0672
 8919W        W24050  10.819  10.450  13.926  0.0021 -0.0838 -0.1567
 8920W        W24051   2.194   4.213   0.730  0.0475  0.0503  0.2041
 8921W        W24052  10.330  18.099  14.126  0.0035  0.3624  0.0927
 8922W        W24053   3.107   6.055   5.233 -0.0240  0.1109  0.1066
 8923W        W24054  11.189  17.673   0.169 -0.1400 -0.3002 -0.1057
 8924W        W24055   9.718  13.884   1.766  0.1026 -0.1902 -0.3648
 8925W        W24056  13.148   9.008   2.233 -0.1521  0.0826 -0.2428
 8926W        W24057   9.735  16.371  15.751 -0.1654 -0.0654  0.0548
 8927W        W24058   9.489   3.952   2.560 -0.0616  0.0304  0.0290
 8928W        W24059  11.263  15.679   2.282 -0.1379 -0.0659  0.0310
 8929W        W24060  12.932   8.208  14.181  0.4274 -0.0810  0.3711
 8930W        W24061   9.125  11.531  15.681 -0.0864 -0.1692  0.0379
 8931W        W24062   9.256  12.109   5.624 -0.1542  0.2459  0.1632
 8932W        W24063   3.199   0.580  14.752 -0.1006  0.0492  0.1520
 8933W        W24064   7.661  10.430   5.779  0.0392  0.0904 -0.0378
 8934W        W24065  16.956  10.393   3.313  0.0363 -0.0154  0.0454
 8935W        W24066   7.925   0.006   0.323 -0.0184  0.1110 -0.0316
 8936W        W24067   2.959  13.304   0.109 -0.2966  0.1876  0.1539
 8937W        W24068  10.625  11.612   5.366  0.3132 -0.3771  0.1476
 8938W        W24069  16.733   4.821   3.305  0.1766  0.2314 -0.4689
 8939W        W24070   6.970  17.250   9.855  0.0364 -0.1126  0.0566
 8940W        W24071  16.817   0.303   2.832 -0.0913 -0.2044  0.0609
 8941W        W24072   3.934  10.896   4.627  0.2909 -0.0532 -0.0526
 8942W        W24073   5.393  16.819   2.800  0.0608 -0.1459 -0.1444
 8943W        W24074   7.514   2.324  12.088  0.0844 -0.0262 -0.4093
 8944W        W24075   4.847  11.182   3.734  0.3280 -0.0961  0.0564
 8945W        W24076   0.428  17.174  15.894 -0.1635  0.1837  0.0745
 8946W        W24077   9.408   3.361  12.405 -0.2429 -0.2005  0.0545
 8947W        W24078   5.556  10.968   1.814  0.1920  0.0984  0.1169
 8948W        W24079   2.168   5.043   2.055 -0.0946  0.0691  0.1304
 8949W        W24080   2.883   0.413  10.901  0.2072  0.0823 -0.2158
 8950W        W24081   2.934   2.017   4.104 -0.1245 -0.4789 -0.2896
 8951W        W24082   1.229  14.967   0.908  0.0502  0.1794 -0.1946
 8952W        W24083   6.469  16.715   1.214 -0.1601 -0.0280  0.2770
 8953W        W24084   7.504   4.086   4.504  0.0878 -0.2387 -0.2265
 8954W        W24085  13.541   8.560   3.522  0.0114  0.0536  0.0681
 8955W        W24086   2.933   1.851   4.570 -0.1790 -0.2618 -0.1423
 8956W        W24087  13.576  13.906  13.134 -0.0739 -0.1114  0.3396
 8957W        W24088   3.495  15.095   3.309 -0.0648 -0.0664  0.0943
 8958W        W24089   0.839  17.336  14.650  0.0321 -0.0913 -0.0398
 8959W        W24090   7.023   5.424   1.362  0.1662 -0.1387 -0.2024
 8960W        W24091  12.614  12.796   0.791  0.0184  0.2556 -0.0292
 8961W        W24092   0.759  13.906  13.736  0.0437  0.1070 -0.2046
 8962W        W24093  17.767  18.046  13.843 -0.2391 -0.1057  0.1482
 8963W        W24094   9.728  11.521   4.603 -0.2073 -0.3146 -0.1907
 8964W        W24095  12.677   6.246  12.420  0.1947  0.1539  0.0154
 8965W        W24096   6.450   2.925   1.552 -0.1673  0.0307  0.0084
 8966W        W24097   5.567  15.615  10.417 -0.0549  0.3906 -0.2194
 8967W        W24098  15.049  15.632   0.336  0.0619  0.0020 -0.1758
 8968W        W24099  10.037  16.836  12.226 -0.0378  0.1874 -0.0468
 8969W        W24100   3.578  17.067  13.218  0.2736 -0.0461 -0.1992
 8970W        W24101   6.721   2.901  11.853 -0.0834 -0.0584 -0.0977
 8971W        W24102  15.823   9.020   2.581 -0.1978  0.0600  0.0602
 8972W        W24103  17.527   8.008  14.265 -0.1732 -0.0495 -0.4477
 8973W        W24104  13.108  17.460  11.308 -0.3159  0.1005 -0.0267
 8974W        W24105  14.600  10.318   6.154  0.0949  0.3179 -0.0783
 8975W        W24106   7.289   9.827  13.263  0.1257 -0.2532 -0.1467
 8976W        W24107   3.799  16.506  14.454  0.2089 -0.4487  0.1767
 8977W        W24108   0.918  17.389  12.036 -0.0280  0.1381 -0.2529
 8978W        W24109  13.900  10.560   5.610 -0.1413 -0.0567 -0.1261
 8979W        W24110  16.259  14.867  11.271  0.1035  0.2507 -0.0227
 8980W        W24111   5.533  16.276  14.656  0.1237  0.2218 -0.2225
 8981W        W24112   3.135  12.540  13.286 -0.0940 -0.0204 -0.2856
 8982W        W24113   6.169   4.153   0.847  0.1662 -0.0004 -0.1101
 8983W        W24114  12.638   5.720  13.189  0.0508  0.2306 -0.1323
 8984W        W24115  15.196  17.209  16.005  0.0211 -0.1610  0.1816
 8985W        W24116   3.533  15.066   0.253  0.0415  0.3233  0.1309
 8986W        W24117  10.853   1.400   4.135  0.2528 -0.1659  0.0346
 8987W        W24118   8.657   8.139   4.393  0.0651 -0.1904 -0.0684
 8988W        W24119  10.466  13.813   0.761  0.0485 -0.2095 -0.0135
 8989W        W24120   3.192   5.623  12.702  0.2400 -0.2275 -0.0002
 8990W        W24121   9.088   8.009  14.877 -0.3558  0.0648 -0.1828
 8991W        W24122   0.054  10.859  10.052  0.1024  0.2949 -0.0051
 8992W        W24123   9.205   2.871   1.842 -0.2097  0.0601 -0.0229
 8993W        W24124  10.316  12.265  13.105  0.1614 -0.0202 -0.2295
 8994W        W24125  17.671  13.532  15.311  0.0011  0.2384 -0.1965
 8995W        W24126  14.738   4.699  14.343  0.2679  0.1672 -0.2395
 8996W        W24127   1.571  13.759   4.243 -0.1693  0.1233  0.0027
 8997W        W24128  16.566  15.099   5.058  0.0190  0.3836  0.2732
 8998W        W24129  10.977   5.261   4.102 -0.1395 -0.1001 -0.1888
 8999W        W24130  10.720  12.854   5.455 -0.1521 -0.2150 -0.1767
 9000W        W24131  13.781  13.045   2.304 -0.0466  0.0322  0.1472
 9001W        W24132   6.676   3.404   1.562 -0.0529  0.0766  0.2142
 9002W        W24133   7.202  14.466   1.163  0.1197  0.1272 -0.2011
 9003W        W24134   3.135  16.363   3.603 -0.2456  0.2826 -0.2442
 9004W        W24135   8.773  12.533  11.943  0.0584 -0.1113 -0.0556
 9005W        W24136   6.246  16.025  12.210 -0.2492 -0.1799 -0.3159
 9006W        W24137   6.470  17.201   0.774 -0.0369  0.0788  0.2313
 9007W        W24138   8.327  12.204  11.229 -0.0186 -0.1148  0.1309
 9008W        W24139  15.629   9.152   3.426 -0.1766  0.0726  0.0202
 9009W        W24140   4.434   9.644  11.350  0.0794  0.0313 -0.1875
 9010W        W24141  16.399  15.279  12.380  0.0984  0.0735 -0.0523
 9011W        W24142  17.071  12.638   2.174  0.0728 -0.0478 -0.2354
 9012W        W24143  13.005  10.058  12.054  0.0559 -0.0944  0.1072
 9013W        W24144   1.010  17.734   1.079  0.1018  0.2363  0.1118
 9014W        W24145  15.145  10.587  13.176  0.2376  0.0354  0.1186
 9015W        W24146   3.958  17.936  14.679  0.2969 -0.2117 -0.2603
 9016W        W24147  13.854   9.420  12.202  0.1599  0.1597 -0.0791
 9017W        W24148  15.907   4.917   0.592 -0.1403 -0.4189  0.0764
 9018W        W24149   0.144  16.691  14.393 -0.3535 -0.0691  0.1249
 9019W        W24150  13.656  11.881  14.014  0.0356 -0.0225 -0.1422
 9020W        W24151   1.084  12.942   1.202  0.0066 -0.0595 -0.2088
 9021W        W24152   3.829  16.081   5.915 -0.2835  0.1226 -0.0040
 9022W        W24153   0.067  17.149  13.512  0.1192  0.2646  0.0115
 9023W        W24154  12.054  13.932   2.015 -0.2878  0.0104 -0.0458
 9024W        W24155   7.399   0.453   1.476 -0.0054  0.0483 -0.1509
 9025W        W24156  15.381   0.665   3.961  0.0588  0.2356  0.2123
 9026W        W24157   3.021   6.505   1.776  0.0553  0.1143  0.0747
 9027W        W24158  11.799  11.410  15.720 -0.1904  0.3307 -0.0643
 9028W        W24159  18.012   5.029   3.310  0.2333 -0.0517 -0.2209
 9029W        W24160  10.937  12.747   3.606  0.1276  0.0235 -0.1442
 9030W        W24161  15.718   7.557   1.202 -0.0219  0.2940  0.2145
 9031W        W24162  14.676   7.057  13.633 -0.2079 -0.1179  0.0578
 9032W        W24163  16.839   0.908  13.162 -0.0854  0.3655 -0.3041
 9033W        W24164   4.974   5.963  11.635  0.0237 -0.3184  0.4569
 9034W        W24165   3.143  10.687   3.219 -0.0931  0.0638  0.2364
 9035W        W24166   3.844  11.259  14.463 -0.2153 -0.2276  0.0690
 9036W        W24167   2.584  12.971   0.875 -0.0149 -0.0841  0.1391
 9037W        W24168   0.974   5.461  14.507 -0.0154  0.0331 -0.0811
 9038W        W24169   5.142  15.168   1.600 -0.1660  0.0048  0.1158
 9039W        W24170  17.823   2.223   9.680  0.2243  0.0051 -0.1805
 9040W        W24171   7.344   5.480  15.991 -0.1635 -0.1160  0.1677
 9041W        W24172  15.139  15.909  11.117  0.0821  0.1521 -0.1636
 9042W        W24173   1.150  12.456   2.416 -0.1120  0.1391  0.0643
 9043W        W24174  17.451  11.810   1.693 -0.0828 -0.1170 -0.1049
 9044W        W24175   5.453   4.650   0.033 -0.1204 -0.2308 -0.0630
 9045W        W24176   3.009  13.647  11.837  0.3158  0.0210 -0.3475
 9046W        W24177  10.822  16.408  14.266 -0.0385 -0.0381  0.2117
 9047W        W24178   9.041   3.857  13.726  0.1722  0.1921  0.3025
 9048W        W24179   9.019  16.485   3.966  0.0040 -0.1071 -0.1461
 9049W        W24180  14.025  10.370   4.785 -0.0198 -0.4670  0.2252
 9050W        W24181  10.249   1.484  14.156 -0.1809 -0.1651 -0.1694
 9051W        W24182   7.812  16.511  14.206 -0.1448 -0.0407  0.2237
 9052W        W24183  14.185  12.579  10.263 -0.0697 -0.0361 -0.1490
 9053W        W24184  15.717  17.313   3.532 -0.0209 -0.1036 -0.0730
 9054W        W24185  10.520  14.447   3.071  0.0748  0.1631 -0.0333
 9055W        W24186  13.077  15.937  14.613  0.1850  0.1291  0.2396
 9056W        W24187   7.473   7.141  13.900  0.0724  0.2123  0.0111
 9057W        W24188  10.013   1.255   3.511 -0.0793  0.0587 -0.1240
 9058W        W24189  12.811  11.894  10.409  0.1545 -0.1991  0.1320
 9059W        W24190   9.312   8.357   3.133  0.0922  0.1494 -0.0097
 9060W        W24191  10.458   0.954  10.964 -0.1294  0.0589  0.1522
 9061W        W24192   9.371   3.592  11.954  0.2627 -0.0527 -0.1190
 9062W        W24193  13.601   8.604  15.807 -0.2190  0.0746  0.0377
 9063W        W24194   9.605   1.537  11.287 -0.0719 -0.3532 -0.0470
 9064W        W24195  11.721  16.153   0.209  0.0599 -0.3047  0.0418
 9065W        W24196  17.932   1.315  14.856  0.1341  0.1432  0.0887
 9066W        W24197  17.156  11.842  11.498  0.1223  0.1943 -0.0974
 9067W        W24198  14.338  14.645   4.476  0.1999 -0.2260  0.1083
 9068W        W24199  16.414   1.527  15.618 -0.1601 -0.0996 -0.0532
 9069W        W24200   3.783  15.646  11.100  0.1961 -0.2586 -0.0993
 9070W        W24201   8.464   5.791  12.047 -0.0210  0.1814  0.2342
 9071W        W24202   5.496  13.774   4.975  0.0185 -0.0051 -0.1768
 9072W        W24203  16.369   9.443   4.355 -0.2444 -0.0795  0.0388
 9073W        W24204  12.886  17.676   3.381 -0.0775  0.2656 -0.0748
 9074W        W24205   1.861  14.226   5.262 -0.1509  0.1080 -0.0510
 9075W        W24206   1.153  11.345  15.540 -0.4548  0.2097 -0.1371
 9076W        W24207  15.220   9.558   0.837 -0.2970 -0.0955 -0.3177
 9077W        W24208   9.735   4.004   5.899  0.0716 -0.1914  0.1286
 9078W        W24209  17.559  12.059  15.476  0.1626  0.0482  0.4331
 9079W        W24210  14.826  10.332   5.592 -0.0074  0.0776  0.0133
 9080W        W24211   8.564  12.245  12.983 -0.1488  0.2237 -0.0305
 9081W        W24212   6.842   2.092   5.327 -0.2511 -0.1096 -0.2505
 9082W        W24213   7.363  11.672   1.686  0.1229  0.2381 -0.2385
 9083W        W24214   6.302  14.952   4.668  0.3388  0.1196 -0.0900
 9084W        W24215  17.957  12.360   2.005  0.2799  0.0748 -0.1511
 9085W        W24216  17.802  13.656   1.588 -0.0670  0.3699  0.0864
 9086W        W24217  14.805  14.514   2.063  0.0607  0.0981 -0.0300
 9087W        W24218   6.115   1.781   2.711  0.0636 -0.0495  0.0610
 9088W        W24219   2.049   0.591  13.630  0.1139  0.0114  0.0097
 9089W        W24220  16.196  15.184   1.272 -0.0260  0.1518  0.3705
 9090W        W24221  15.278  14.331   1.365 -0.1120 -0.4552 -0.1073
 9091W        W24222   2.634   0.194   0.258  0.0581  0.3385  0.1242
 9092W        W24223  11.997   7.443   0.077  0.2095 -0.1868 -0.1723
 9093W        W24224   6.870  15.289  11.891  0.1711  0.2257 -0.0486
 9094W        W24225  14.573   7.183  13.104  0.1634 -0.1338  0.0955
 9095W        W24226   3.269  16.445  11.176  0.0193 -0.0265  0.0299
 9096W        W24227   6.537  17.371   1.936  0.0325 -0.2771  0.0621
 9097W        W24228   9.094  10.467   4.303 -0.0741  0.1214  0.3355
 9098W        W24229   9.441   1.434   4.011 -0.1331  0.1507 -0.0741
 9099W        W24230   1.343  13.302   4.385 -0.0767 -0.1864  0.5531
 9100W        W24231  11.317  10.101  13.680 -0.1356  0.1694 -0.1274
 9101W        W24232  14.848  14.513  15.000  0.0009  0.1486  0.0441
 9102W        W24233  14.455  14.992  11.056  0.2739 -0.0745  0.1918
 9103W        W24234   2.862   2.935   2.021  0.0429 -0.1309 -0.2188
 9104W        W24235   9.509  11.870   0.602  0.0042 -0.0038 -0.2778
 9105W        W24236  12.009   6.681  13.974  0.1066  0.3490 -0.0529
 9106W        W24237   4.873   2.476  11.998 -0.3157 -0.1088  0.1305
 9107W        W24238  10.797   7.406  13.856 -0.0592  0.0728  0.0422
 9108W        W24239   2.467   2.377   0.056  0.2359  0.2543  0.2627
 9109W        W24240  14.841  15.053  15.349 -0.2118 -0.0394  0.1822
 9110W        W24241  14.129   7.359   4.827  0.0030  0.0105  0.1725
 9111W        W24242  13.380  10.227  15.014 -0.2842 -0.3304 -0.3069
 9112W        W24243  15.291   2.925   2.802 -0.0314  0.0404 -0.1198
 9113W        W24244   4.427  17.353   3.714 -0.2092 -0.0311 -0.2087
 9114W        W24245  17.754   7.015  13.162 -0.3320  0.0054 -0.2447
 9115W        W24246   8.774  17.067  15.381 -0.1300  0.2808  0.1027
 9116W        W24247  11.723  10.828  11.344 -0.0203 -0.0187  0.0084
 9117W        W24248   0.867  10.852   4.035 -0.1692  0.1809 -0.1805
 9118W        W24249   3.958   3.424  11.350  0.0952 -0.1325 -0.2622
 9119W        W24250   9.511   6.708   2.941  0.0917  0.1436  0.0981
 9120W        W24251   1.475  12.830  15.835 -0.3073  0.0140 -0.1269
 9121W        W24252  14.789  10.457   3.505 -0.0754 -0.0519  0.0865
 9122W        W24253  14.723   4.367   4.540  0.1872  0.1901  0.0502
 9123W        W24254   6.957   7.901  13.787 -0.1970  0.2479  0.2932
 9124W        W24255   7.799   1.895  16.024 -0.0991 -0.2143 -0.3163
 9125W        W24256  12.695  17.287   3.147  0.2605  0.0630 -0.0616
 9126W        W24257  14.915   8.934   1.568  0.0396 -0.1945 -0.1706
 9127W        W24258   1.337   5.774   3.534  0.0561  0.1198  0.4562
 9128W        W24259   4.131   8.830  15.992  0.0554  0.1351  0.3572
 9129W        W24260  11.041  11.855  13.705  0.2712 -0.1104  0.1998
 9130W        W24261   5.334   4.851   5.838  0.0299  0.2245 -0.0880
 9131W        W24262   4.830   9.337  13.787 -0.2165 -0.0206 -0.1106
 9132W        W24263   5.961   1.052  15.085 -0.0358  0.3254  0.0103
 9133W        W24264   3.893  18.033   1.787  0.0708  0.1780  0.0649
 9134W        W24265  11.331   9.523   4.861 -0.0841  0.2633  0.1279
 9135W        W24266  13.971  11.588   1.908 -0.1240  0.2101  0.1199
 9136W        W24267   3.896   4.004  12.100 -0.1413  0.0893  0.1101
 9137W        W24268   5.980   7.677  16.118  0.2710  0.0045 -0.0327
 9138W        W24269   0.389   0.857   0.495 -0.1828 -0.2391  0.0594
 9139W        W24270   6.365  12.785   0.055  0.2977  0.0511  0.1506
 9140W        W24271  14.434   5.040  14.658 -0.1876 -0.0825  0.2129
 9141W        W24272  13.169   9.532   2.184 -0.0224 -0.1294  0.0463
 9142W        W24273  14.328  16.372  11.487 -0.2867 -0.2631  0.1523
 9143W        W24274  13.561   4.050  15.703  0.2420 -0.2003  0.2393
 9144W        W24275  13.827   3.751  14.056 -0.1081 -0.1196 -0.0597
 9145W        W24276  11.880   4.769  13.259 -0.0657 -0.0987  0.1229
 9146W        W24277  16.465  10.666  14.239  0.1333 -0.1672  0.4691
 9147W        W24278  14.631   1.240  15.297 -0.3315 -0.2118 -0.2869
 9148W        W24279  14.646  14.727  12.425  0.2614 -0.0781 -0.0444
 9149W        W24280  17.373  10.537   4.117 -0.1980 -0.2712  0.3833
 9150W        W24281  10.673  16.559   0.309 -0.1149  0.0989  0.0411
 9151W        W24282  15.304   7.596   2.879 -0.2260 -0.2918 -0.1038
 9152W        W24283  11.201   0.126  15.710 -0.0265 -0.1370 -0.1247
 9153W        W24284  13.233   5.586   3.783 -0.2718 -0.0750  0.2242
 9154W        W24285   6.621  17.465   5.340 -0.1418  0.1048  0.1813
 9155W        W24286   6.978  10.738  11.968  0.1846  0.0467  0.0977
 9156W        W24287   3.703   4.434  13.890 -0.0042  0.1116 -0.1444
 9157W        W24288   0.884  13.696   1.129 -0.2402  0.0673 -0.1591
 9158W        W24289  11.141  12.812  13.172  0.2129 -0.0920  0.1538
 9159W        W24290  16.963   2.828  13.687  0.2236 -0.2827 -0.0407
 9160W        W24291   8.130   2.528  13.434  0.0187 -0.0153 -0.0506
 9161W        W24292  13.960  14.190   0.154 -0.3910 -0.0413 -0.0498
 9162W        W24293   8.256   0.392  14.759  0.0569 -0.1304 -0.2146
 9163W        W24294   3.819  13.019  14.856  0.0177  0.0956 -0.0241
 9164W        W24295   8.636  14.638   4.867 -0.0219  0.1180  0.0075
 9165W        W24296  17.769  14.354   3.376  0.4191 -0.0018  0.1140
 9166W        W24297   3.961  17.103   4.574 -0.4250 -0.1043  0.1015
 9167W        W24298   3.762   1.188   4.409 -0.1118  0.0710  0.2238
 9168W        W24299   1.441  12.936   5.374 -0.1620  0.1286 -0.1005
 9169W        W24300   7.713   4.986   1.597  0.0015 -0.1328  0.1004
 9170W        W24301  10.826  15.824  13.490 -0.1222  0.4347 -0.4325
 9171W        W24302   4.030  15.381   1.188 -0.1809 -0.1407  0.2184
 9172W        W24303   3.685   2.042  14.255 -0.1483  0.3732 -0.0027
 9173W        W24304  11.826   3.072   3.099 -0.2287  0.1125  0.2464
 9174W        W24305  11.177   9.363  12.989 -0.2375  0.2238  0.0067
 9175W        W24306   1.832   5.048  11.525 -0.3960  0.0778 -0.2740
 9176W        W24307  17.620  15.958  12.135  0.1742  0.2182  0.1741
 9177W        W24308  17.177  13.163   0.883 -0.1745 -0.0075  0.2750
 9178W        W24309  13.136  14.866  15.804  0.0632  0.3508  0.1649
 9179W        W24310  11.743   1.173   0.783  0.2198 -0.1382 -0.0347
 9180W        W24311  16.788   1.291   4.926  0.1475 -0.1733 -0.3807
 9181W        W24312   9.551   3.818  14.540  0.1985 -0.0945 -0.0382
 9182W        W24313  16.218   2.988  15.089 -0.1214 -0.1819 -0.1673
 9183W        W24314   3.844  11.371   5.454  0.4606 -0.0061  0.1782
 9184W        W24315   6.387  15.393   4.502 -0.0941  0.2829  0.2013
 9185W        W24316  11.480  12.931   6.024  0.2153  0.3055  0.3008
 9186W        W24317   9.760  14.191  14.462 -0.1175  0.3165  0.3479
 9187W        W24318   4.278   7.880   3.395  0.1884  0.4814 -0.0783
 9188W        W24319  13.937   7.682   1.226  0.1532 -0.2792  0.2558
 9189W        W24320  13.624  16.560  13.862 -0.2889 -0.0153 -0.1294
 9190W        W24321  13.872   3.955  13.276  0.0708 -0.1094 -0.1266
 9191W        W24322  17.274   5.199  12.451 -0.0905 -0.5212  0.4416
 9192W        W24323  11.585   5.716   3.633  0.0402  0.0091  0.0030
 9193W        W24324  16.103   1.881  15.036 -0.1760 -0.0523 -0.0229
 9194W        W24325  13.202  13.229  12.609 -0.0928 -0.0998 -0.3014
 9195W        W24326  12.978   4.058  13.842  0.0803 -0.1096 -0.0093
 9196W        W24327  10.966  15.915  15.802 -0.1172 -0.0680  0.2483
 9197W        W24328   5.102  14.080   1.126  0.2607  0.1179 -0.2811
 9198W        W24329   3.373  12.694   0.765 -0.0595  0.0244  0.2695
 9199W        W24330   9.933   6.981   0.506  0.3598 -0.2480  0.0638
 9200W        W24331   8.073   7.795   0.992  0.4040  0.0293  0.0098
 9201W        W24332  17.308   9.601   5.319  0.0507 -0.1091  0.3770
 9202W        W24333   6.478   7.104  14.516  0.1807 -0.0494  0.2039
 9203W        W24334  11.298  16.018  11.669  0.3044 -0.0342 -0.0229
 9204W        W24335  17.167   9.330   4.917  0.1266 -0.0050 -0.0676
 9205W        W24336   9.217   7.863   4.976 -0.0692  0.0125 -0.2450
 9206W        W24337  12.411  10.858  13.147 -0.2355 -0.0726  0.0336
 9207W        W24338   6.045   0.504  10.958  0.0695  0.2168 -0.4588
 9208W        W24339  14.657   9.441   2.250 -0.3326  0.2281 -0.1658
 9209W        W24340  13.360  12.352  15.028 -0.0480  0.0067  0.0098
 9210W        W24341  10.036  11.261  15.539 -0.1678  0.0119  0.2586
 9211W        W24342   1.126   5.101   4.426  0.1195 -0.3123  0.0203
 9212W        W24343   0.070   1.719  12.765 -0.2136  0.1120  0.0318
 9213W        W24344  14.324  14.299   6.051  0.2571 -0.0169 -0.1640
 9214W        W24345   0.891  13.012  15.103  0.1237  0.1276  0.1850
 9215W        W24346   7.782  12.699  15.515  0.0349 -0.1515 -0.0809
 9216W        W24347   2.126  16.714   0.085  0.0742 -0.4222  0.5846
 9217W        W24348   7.307  11.966  15.711  0.1495 -0.0774  0.0815
 9218W        W24349   1.475  12.186   2.081 -0.0002 -0.1144  0.2259
 9219W        W24350   8.809   8.620  15.589  0.0843 -0.3098  0.1164
 9220W        W24351  15.426  16.228  10.657  0.4208  0.0705  0.0213
 9221W        W24352   8.513   2.496   4.136 -0.1567 -0.2060 -0.1222
 9222W        W24353  10.637  16.963   2.982  0.1701  0.1933  0.1859
 9223W        W24354  17.330   6.892  10.198 -0.1251 -0.0076  0.1799
 9224W        W24355  15.888   0.311  13.311  0.0158  0.3626 -0.2143
 9225W        W24356   1.899   5.245   5.553 -0.0792  0.0178  0.0323
 9226W        W24357  14.732   2.704   0.323 -0.0657  0.1696 -0.1525
 9227W        W24358   7.895   5.097   1.115  0.0714 -0.1255 -0.0782
 9228W        W24359   6.721  10.547   3.594 -0.0697  0.4085  0.3248
 9229W        W24360   3.304  14.160  15.450  0.1304 -0.0582 -0.0181
 9230W        W24361   5.046  12.582  12.243 -0.3589  0.0483 -0.1975
 9231W        W24362   5.886  14.036  10.829 -0.1745  0.0582  0.0045
 9232W        W24363   7.632   6.406   0.958  0.0542 -0.0044  0.0765
 9233W        W24364  17.898   9.992  14.424  0.0542 -0.0179  0.1957
 9234W        W24365   0.023   7.354   1.828 -0.0360  0.1857 -0.1373
 9235W        W24366   4.540   6.646   0.624 -0.0201 -0.2028 -0.1016
 9236W        W24367  13.980   8.698   5.076 -0.0154  0.3153 -0.1590
 9237W        W24368  12.167  12.363   1.458 -0.0587  0.1250  0.0432
 9238W        W24369  10.172   0.469  12.141  0.1191  0.0125 -0.0825
 9239W        W24370  11.253   4.575   0.136 -0.2644 -0.1902  0.1970
 9240W        W24371   2.004   4.414   2.600 -0.0465  0.1449 -0.2272
 9241W        W24372  15.370  12.835  15.056  0.1140 -0.0666  0.2126
 9242W        W24373  12.997   7.515   2.499  0.1086  0.0571 -0.0964
 9243W        W24374  15.822   6.173  15.939 -0.2851  0.1146 -0.0823
 9244W        W24375   1.298   2.223   5.174  0.0821 -0.1222  0.1253
 9245W        W24376   4.866   4.692   1.484  0.1546  0.0940 -0.2690
 9246W        W24377  11.165   5.472  14.761  0.0756  0.1324 -0.2097
 9247W        W24378  13.054  12.303   0.532  0.1425 -0.1318 -0.0648
 9248W        W24379   7.983   1.636  11.439  0.0540 -0.2271 -0.0086
 9249W        W24380   8.399  10.163   1.649 -0.0656  0.0397 -0.0730
 9250W        W24381  17.744  12.348   0.056 -0.1080  0.2076  0.0423
 9251W        W24382  12.617   2.443   3.719  0.0714  0.2054  0.2215
 9252W        W24383   3.961  11.914  13.707  0.2314  0.2783 -0.1196
 9253W        W24384   4.636  10.947   1.506 -0.0453 -0.3018 -0.1376
 9254W        W24385   5.201  10.195  13.734  0.0425  0.0643 -0.4241
 9255W        W24386   3.832   3.864   1.423 -0.0675 -0.1875 -0.2186
 9256W        W24387   1.013   0.706   3.175  0.2264 -0.0724  0.1005
 9257W        W24388   2.038   4.770   4.148 -0.0046  0.2768 -0.3255
 9258W        W24389   5.989   0.750   3.210  0.0155  0.1607 -0.0530
 9259W        W24390   8.323   7.460   3.153 -0.0514  0.2308 -0.0673
 9260W        W24391   1.389  16.664  11.050  0.1291 -0.0354 -0.1000
 9261W        W24392  16.709   3.943   2.764 -0.0450 -0.1442 -0.0129
 9262W        W24393   5.933  12.388   0.060  0.0384 -0.0828 -0.0833
 9263W        W24394   4.921   0.882  14.432  0.0918 -0.3594  0.0974
 9264W        W24395   5.110  14.100   2.040 -0.0874  0.1915  0.1269
 9265W        W24396  14.638  11.688   5.540 -0.0961  0.2277 -0.0936
 9266W        W24397   4.116   1.434   3.542  0.1216 -0.1242  0.0100
 9267W        W24398   4.865   1.416  11.900 -0.0938  0.1089  0.0911
 9268W        W24399   1.940   7.045   5.279 -0.0196 -0.1629 -0.2140
 9269W        W24400  11.314  17.954  11.688  0.4125  0.2721 -0.0231
 9270W        W24401  10.337   3.596  14.027  0.3427  0.3111  0.0185
 9271W        W24402   5.430   1.721  11.794  0.0827 -0.0548 -0.0670
 9272W        W24403  13.324  11.302   0.273  0.0556 -0.1666  0.0886
 9273W        W24404  15.546   4.406  15.006  0.1090 -0.1312  0.1584
 9274W        W24405   7.889   7.502  16.204  0.0467  0.0712 -0.1420
 9275W        W24406  14.668   9.660  14.370  0.0387  0.4532 -0.1688
 9276W        W24407  15.029  14.749   5.934 -0.0182  0.2024 -0.2412
 9277W        W24408   7.385  13.062   0.844  0.1804 -0.1901  0.1647
 9278W        W24409  10.182  13.888  11.066 -0.0535 -0.0935  0.0012
 9279W        W24410  16.448   3.555   0.330 -0.1102 -0.0695  0.3036
 9280W        W24411  11.915  14.789  11.256  0.0095  0.1250  0.0273
 9281W        W24412  12.239   2.029   2.044 -0.3183  0.0357 -0.1249
 9282W        W24413   0.100  17.021  10.344  0.0479  0.3228  0.2507
 9283W        W24414   3.965   8.589   3.281 -0.0713 -0.2004 -0.1806
 9284W        W24415  16.997  15.932  11.142  0.1109  0.0721 -0.2121
 9285W        W24416   6.869   0.123   4.667  0.2612  0.2638  0.0051
 9286W        W24417  17.904   9.834  13.589 -0.0008  0.4459 -0.0610
 9287W        W24418  18.088  14.388  12.182  0.0081 -0.3572 -0.1234
 9288W        W24419  11.042  17.060  11.408  0.0325  0.0339  0.2025
 9289W        W24420   7.866   9.783  13.719  0.2646 -0.0404 -0.0129
 9290W        W24421   3.511  17.248  13.771 -0.0116  0.2046  0.4488
 9291W        W24422   3.563  16.758  13.965 -0.3324  0.0764 -0.0445
 9292W        W24423   1.974   5.361   2.860 -0.1075  0.3000  0.2164
 9293W        W24424  14.454  12.290   4.556 -0.0140 -0.3043 -0.4109
 9294W        W24425  13.442   8.724  14.907  0.1881 -0.1893  0.0942
 9295W        W24426   6.439  12.221  12.029  0.0371 -0.1118  0.0828
 9296W        W24427   6.866  10.325  11.656  0.1762 -0.1635 -0.1716
 9297W        W24428  12.889  13.851   5.198 -0.2719  0.0888  0.0338
 9298W        W24429  13.987   7.894  15.156 -0.0983 -0.0005 -0.1217
 9299W        W24430  16.906   4.623   1.530  0.1718  0.1172  0.3181
 9300W        W24431  13.330   6.645  12.793 -0.0287 -0.0751 -0.0875
 9301W        W24432  11.056  10.037   2.960 -0.1355 -0.2080  0.0070
 9302W        W24433  11.513  14.403  11.415 -0.1480  0.1251  0.0894
 9303W        W24434   9.246  13.558  13.448  0.0590 -0.0927 -0.1770
 9304W        W24435  13.132   7.256   5.326  0.0711 -0.0924  0.2317
 9305W        W24436  10.217   6.080  14.461  0.0979 -0.0818 -0.1108
 9306W        W24437  11.015   2.762   3.927 -0.1344  0.1044  0.3149
 9307W        W24438   5.950  14.390  14.479  0.0583 -0.0026  0.1533
 9308W        W24439  17.991   8.061   4.915 -0.0674  0.1278  0.1306
 9309W        W24440   3.993   0.514   3.314 -0.2002 -0.0659  0.2355
 9310W        W24441  11.154   7.235  14.131 -0.0262  0.0191 -0.2416
 9311W        W24442  12.369   2.835   4.704  0.0859 -0.0367 -0.1186
 9312W        W24443  10.193   2.564  12.446  0.0501 -0.1217  0.0327
 9313W        W24444  14.850   7.597  15.255  0.1814 -0.1356  0.0117
 9314W        W24445  10.262  11.146  15.102 -0.0567  0.1450  0.1604
 9315W        W24446   4.388  13.552  13.394  0.0748 -0.2706 -0.1665
 9316W        W24447  17.897   3.724   4.500 -0.1420  0.1592 -0.1126
 9317W        W24448  13.341  14.832  10.313 -0.2150 -0.0095  0.3219
 9318W        W24449   5.770   3.122  11.507  0.0171  0.2943  0.1292
 9319W        W24450   3.021   5.212   0.806 -0.1675  0.1281  0.0359
 9320W        W24451   9.821   6.857   0.002 -0.0214  0.2915 -0.1439
 9321W        W24452   8.283   5.810  10.815 -0.0086 -0.0858 -0.0797
 9322W        W24453   4.705  12.450   2.046  0.0482 -0.1858 -0.1459
 9323W        W24454  15.692  17.311  15.177  0.4458  0.2828 -0.0542
 9324W        W24455  16.644  17.206  11.318  0.0844  0.1069 -0.2920
 9325W        W24456  12.788  16.733  14.283 -0.2192 -0.2335 -0.2093
 9326W        W24457   4.992  16.384  12.472 -0.0506 -0.1287 -0.1100
 9327W        W24458  16.448  15.691  15.216  0.4280  0.0697 -0.3877
 9328W        W24459   1.557  15.697  13.963  0.0688  0.1051  0.3332
 9329W        W24460   2.379  15.034   2.026  0.0778  0.0249 -0.1195
 9330W        W24461  16.505   7.419   1.584 -0.0247 -0.1729  0.0555
 9331W        W24462  10.038   7.602   5.334  0.2033  0.1366 -0.2682
 9332W        W24463   9.239  12.411   2.791  0.2276  0.1091 -0.0340
 9333W        W24464  15.078   7.158  13.293 -0.1726 -0.0350  0.0142
 9334W        W24465   2.037  11.095  15.375  0.2589  0.1104 -0.0959
 9335W        W24466  11.215   2.283   4.345 -0.1410  0.0841 -0.2124
 9336W        W24467   8.477  16.588  12.969  0.0598  0.1553 -0.0967
 9337W        W24468   2.165   6.721  14.960  0.0156 -0.1053  0.3202
 9338W        W24469  10.287  13.212   2.131  0.2968 -0.0123 -0.2741
 9339W        W24470  14.973   9.446  15.864  0.0867  0.3689 -0.0474
 9340W        W24471   0.553  14.983   4.168  0.3718  0.0401 -0.0518
 9341W        W24472  15.977   3.666  16.229  0.3539 -0.3203  0.1961
 9342W        W24473   6.129   6.000   0.628  0.2262  0.0551  0.2488
 9343W        W24474   1.084   0.046  13.694  0.2813 -0.2288 -0.0433
 9344W        W24475   5.585  14.261   4.631 -0.1660  0.1863 -0.0766
 9345W        W24476   2.674   5.162  14.003 -0.0115 -0.3642  0.3900
 9346W        W24477  15.262  15.677  16.094 -0.0954  0.0626 -0.3238
 9347W        W24478   8.453   3.998  14.576  0.0557  0.0293  0.0302
 9348W        W24479  17.817   5.601   4.096 -0.2640  0.1064  0.1071
 9349W        W24480   1.346  10.895   3.414  0.0802  0.2743  0.1751
 9350W        W24481  10.058   2.297  13.683 -0.1742  0.0173  0.0239
 9351W        W24482   7.440   4.866  15.056  0.3198  0.1126  0.1323
 9352W        W24483   3.551   2.416  11.265  0.1392 -0.1045  0.2407
 9353W        W24484   1.352   7.123   4.007  0.2223 -0.0109  0.0606
 9354W        W24485   9.676   6.647  15.704 -0.2211 -0.0521 -0.0823
 9355W        W24486   2.738   0.799  13.037 -0.0261 -0.0185  0.0486
 9356W        W24487   0.833  16.907  11.493  0.0064  0.3948  0.1815
 9357W        W24488  17.924   8.036  14.602  0.3263  0.1735 -0.0228
 9358W        W24489  14.574  11.899   4.277 -0.1741 -0.3850 -0.0378
 9359W        W24490   0.957   2.308  14.227 -0.1007  0.1245  0.0912
 9360W        W24491   9.464  17.211   4.353  0.0524 -0.1132  0.0072
 9361W        W24492   3.286  10.690   3.711  0.2281  0.1414  0.2058
 9362W        W24493  10.952  12.272   4.553 -0.0694  0.0082  0.0467
 9363W        W24494   6.135   1.195   2.569  0.1644  0.2394  0.0054
 9364W        W24495  10.991   1.195   0.936 -0.1036 -0.1486 -0.1504
 9365W        W24496   6.540  16.955  10.677  0.0694  0.3611 -0.0603
 9366W        W24497   5.028   8.396  11.422 -0.1129  0.3994 -0.0812
 9367W        W24498  15.376   2.865   4.946 -0.1470 -0.1554 -0.2137
 9368W        W24499  17.992  16.201  12.429 -0.2058  0.0603  0.0941
 9369W        W24500  17.056   5.245   5.619 -0.0003  0.1887  0.1943
 9370W        W24501   2.192   2.809  15.593  0.0382 -0.2364 -0.4547
 9371W        W24502   4.567   4.546   3.842 -0.1306  0.2673 -0.0590
 9372W        W24503  10.100   8.546  15.747  0.0967 -0.0258  0.0614
 9373W        W24504   0.653   9.158  11.521  0.4467 -0.0628 -0.0640
 9374W        W24505   5.638  17.455  13.544 -0.4222 -0.1588 -0.0002
 9375W        W24506   0.004   8.553   5.796 -0.0343  0.0114 -0.1479
 9376W        W24507   5.573  16.441  13.751 -0.3445  0.2991  0.0808
 9377W        W24508  11.556  15.559  11.030  0.0106  0.0723  0.1666
 9378W        W24509   0.275   2.743   3.199  0.1117  0.1319 -0.0832
 9379W        W24510  16.328   6.190   0.862 -0.4574 -0.3542 -0.1546
 9380W        W24511   7.024   8.299  16.174  0.0717  0.1428 -0.3650
 9381W        W24512   0.461   7.573  13.005 -0.1668 -0.2652 -0.1553
 9382W        W24513   8.481   3.176  14.973 -0.1442 -0.1967  0.1522
 9383W        W24514   7.528  14.256  12.736 -0.3976  0.0296 -0.1246
 9384W        W24515  13.417   5.322  14.996 -0.3482 -0.0867 -0.0993
 9385W        W24516   2.663   0.306   4.154 -0.1456 -0.1782 -0.1400
 9386W        W24517  14.846   5.097   3.146  0.3055  0.0196 -0.0481
 9387W        W24518   4.218   8.987  12.293 -0.0269  0.1410  0.1034
 9388W        W24519  16.642   9.845   4.528 -0.5017 -0.1471  0.0593
 9389W        W24520  17.735  17.586   0.712  0.0351 -0.0193  0.0093
 9390W        W24521  13.539   7.693  15.478 -0.3345  0.3525  0.1751
 9391W        W24522   3.614   4.189   2.284  0.0962  0.1325  0.1165
 9392W        W24523  13.930  16.763  11.411  0.2454 -0.0293 -0.0955
 9393W        W24524   2.684  13.513  11.235  0.1540 -0.1902  0.0539
 9394W        W24525  11.357  12.692   2.886  0.1307 -0.1591  0.1092
 9395W        W24526  10.771  18.002  13.082  0.1855 -0.1317  0.2724
 9396W        W24527   8.225  11.443  14.871 -0.0957  0.1737  0.1582
 9397W        W24528   3.256  14.078  10.790  0.2305  0.0344  0.2459
 9398W        W24529  17.139   6.945   0.790 -0.0980  0.0065 -0.1124
 9399W        W24530  12.673   3.268   1.703  0.2761  0.1751 -0.1864
 9400W        W24531   1.825  12.352   3.867  0.0779  0.2022  0.2176
 9401W        W24532  15.026   4.260  11.414 -0.2745  0.2491  0.2580
 9402W        W24533   3.770   4.995   2.461 -0.1779  0.2171  0.4055
 9403W        W24534   7.401   1.588   4.742  0.0126 -0.1756  0.0493
 9404W        W24535  16.836   6.940  15.990  0.1171 -0.0528 -0.3659
 9405W        W24536  15.273   7.663  13.341  0.1175  0.1555 -0.0472
 9406W        W24537  12.561   7.750   0.729 -0.0597  0.0606  0.2271
 9407W        W24538   6.756  11.097  14.640 -0.0124 -0.1928 -0.0117
 9408W        W24539   6.481  16.121   5.220  0.2022 -0.2093  0.1683
 9409W        W24540   2.192  13.122   3.964  0.0390  0.0602  0.1218
 9410W        W24541  10.598   0.727   4.528 -0.0832  0.1192  0.1596
 9411W        W24542  11.113   6.250  14.427 -0.0943 -0.2043  0.0311
 9412W        W24543   0.605  10.361  13.695 -0.2457 -0.0185 -0.0171
 9413W        W24544   5.643  14.012  12.430 -0.0951 -0.1168  0.4769
 9414W        W24545   6.029   3.430  12.038  0.1482 -0.0240 -0.1711
 9415W        W24546   2.782   2.571   4.848  0.3594  0.1970 -0.0246
 9416W        W24547   9.172   9.276   1.398 -0.1654 -0.0589 -0.1155
 9417W        W24548  13.793  11.085   0.537 -0.0431 -0.2125 -0.2253
 9418W        W24549   2.321   0.260   4.550  0.2431  0.2867  0.4653
 9419W        W24550  15.925   7.796  11.977  0.1789 -0.0122 -0.1070
 9420W        W24551   8.063   8.307  10.867  0.0972 -0.2194  0.1052
 9421W        W24552   8.230   0.930   2.641 -0.1153 -0.2033  0.1907
 9422W        W24553   7.433  11.458  13.828 -0.0957  0.1947 -0.4500
 9423W        W24554   6.253   3.245  13.601  0.0251 -0.1832 -0.1708
 9424W        W24555   6.133   6.302  13.883 -0.2719  0.1022 -0.1314
 9425W        W24556   1.722   4.968  13.804  0.0958 -0.1357  0.1069
 9426W        W24557  13.995  16.174  14.950 -0.2023 -0.0987 -0.2117
 9427W        W24558   4.461  11.378  16.059 -0.0312 -0.3029 -0.1493
 9428W        W24559  10.782   3.136   5.535  0.4249 -0.1835  0.1546
 9429W        W24560   3.706   3.472  13.068  0.1342 -0.2375 -0.1581
 9430W        W24561  16.013  12.495   5.107  0.2294 -0.0143  0.2802
 9431W        W24562   7.540   6.680   5.113 -0.0034 -0.2374 -0.1328
 9432W        W24563  10.121  15.233   2.891  0.2148 -0.0401 -0.1044
 9433W        W24564  11.729  10.950   0.823  0.1853  0.2440  0.1268
 9434W        W24565   6.794   2.588   5.476  0.2724 -0.1194 -0.0975
 9435W        W24566   8.538  17.132   4.226 -0.0415  0.0180  0.0967
 9436W        W24567   8.105   8.852  13.380 -0.3731  0.1104  0.0968
 9437W        W24568   0.672  11.987  14.085  0.0228 -0.1503 -0.0438
 9438W        W24569   4.185   9.162   0.157  0.2583  0.1623  0.2596
 9439W        W24570  12.188  15.032   1.488 -0.2788 -0.1122 -0.1460
 9440W        W24571  17.793   8.775   0.646  0.2217 -0.0251 -0.0968
 9441W        W24572   9.683  13.335   3.820  0.1011 -0.1260  0.0641
 9442W        W24573  14.256  12.078   2.419 -0.0491  0.0517  0.0651
 9443W        W24574   8.349   1.826  15.469 -0.0272  0.0864 -0.1579
 9444W        W24575   3.883  14.370  11.346  0.0667  0.2258  0.2347
 9445W        W24576   4.233   4.231  13.974  0.0946 -0.0316  0.2421
 9446W        W24577   8.958   1.486  13.049 -0.0451 -0.0233 -0.1374
 9447W        W24578  14.745   4.633   1.354  0.1295 -0.2433  0.0310
 9448W        W24579  17.784  10.315  13.444 -0.0123  0.0033  0.1708
 9449W        W24580  15.371  17.221  10.424 -0.1900 -0.0345  0.0273
 9450W        W24581  12.926  15.659   5.978  0.1012  0.0915 -0.1272
 9451W        W24582   9.842  17.250   2.956  0.1137  0.0494 -0.2472
 9452W        W24583   4.189  10.475   4.441 -0.3055  0.0973  0.1143
 9453W        W24584   9.197   4.328   2.118  0.0510  0.0244  0.2300
 9454W        W24585   8.492   0.026  12.157  0.1616 -0.2694  0.4260
 9455W        W24586  17.669  11.511   0.149  0.0323  0.1438 -0.0698
 9456W        W24587   0.987  15.600  14.669  0.0530  0.2427  0.2881
 9457W        W24588   4.107   4.114   0.963 -0.1514 -0.1023  0.1730
 9458W        W24589   6.203  10.937   0.639 -0.0016  0.1771 -0.0981
 9459W        W24590   5.649  12.867   4.432 -0.1394  0.1135 -0.0381
 9460W        W24591   2.674   2.223  11.477 -0.1380 -0.0365 -0.2281
 9461W        W24592  17.520   9.599  15.306 -0.1537 -0.0025 -0.2038
 9462W        W24593  12.188  16.448  15.647 -0.2390 -0.4343 -0.0914
 9463W        W24594  10.460   4.605  11.562  0.0719  0.1266  0.1137
 9464W        W24595  10.773   0.212   2.155  0.3358  0.4056  0.3469
 9465W        W24596  15.696  10.911   3.729 -0.0110 -0.1837  0.1272
 9466W        W24597   6.395  10.390   5.287  0.0447  0.0590 -0.0699
 9467W        W24598   5.721   9.882   3.379 -0.1219  0.0946  0.0903
 9468W        W24599   2.777   2.283  12.462 -0.0606 -0.1287  0.0322
 9469W        W24600   0.109  17.919  15.625 -0.1095 -0.1438  0.2874
 9470W        W24601   3.370   3.318   1.312  0.0500  0.2331  0.1563
 9471W        W24602   4.524   2.523  16.079 -0.1156  0.1936 -0.0261
 9472W        W24603   8.439  15.269  14.259 -0.3514  0.2857 -0.0256
 9473W        W24604   6.061  14.220   4.485 -0.2134  0.1720  0.3214
 9474W        W24605   8.540  14.254  12.325 -0.2195 -0.0703  0.1894
 9475W        W24606  11.147   8.161   3.006 -0.3164 -0.1014  0.0033
 9476W        W24607   4.518  14.831  14.305  0.2676 -0.0443 -0.0049
 9477W        W24608   0.923   4.937  15.045  0.1336  0.1263  0.0369
 9478W        W24609   3.277  13.946   1.542  0.0279  0.1746 -0.2402
 9479W        W24610   6.261   3.003  15.412 -0.2675 -0.4149 -0.0153
 9480W        W24611   2.630   9.084   0.065  0.0403  0.3687  0.1967
 9481W        W24612   0.808  17.188  15.518  0.3178 -0.2349  0.2501
 9482W        W24613   5.311  16.783   5.258 -0.3457 -0.1389  0.2621
 9483W        W24614   2.756   7.637   5.676 -0.0160  0.0363  0.2848
 9484W        W24615   6.158   1.076  11.716 -0.2408  0.2982  0.1942
 9485W        W24616   1.205  11.325  12.739  0.1676  0.1817  0.1207
 9486W        W24617   3.301  10.193  15.738 -0.1621 -0.1503  0.1382
 9487W        W24618  17.846   0.365   3.256 -0.1466 -0.1253 -0.2370
 9488W        W24619  11.283  10.577  14.100  0.1114 -0.1697 -0.1616
 9489W        W24620   7.352   9.083   5.189 -0.3412  0.2445  0.1249
 9490W        W24621  18.065  11.335  11.219 -0.2581 -0.2984  0.2086
 9491W        W24622   7.560  13.132  15.691 -0.1098  0.3931  0.3001
 9492W        W24623  16.785   3.821  13.987  0.0235  0.0494  0.0526
 9493W        W24624   0.400  16.003  13.586 -0.1301 -0.1394  0.3038
 9494W        W24625   1.636   8.923   0.491 -0.1912 -0.0167  0.3390
 9495W        W24626   1.161   6.462   3.243 -0.0056  0.0268 -0.0466
 9496W        W24627   8.051   0.265  13.652  0.0965  0.1564  0.2953
 9497W        W24628   5.508   6.833  12.035 -0.1296  0.1546  0.0249
 9498W        W24629   3.483   4.502   0.561  0.1571  0.3031  0.1291
 9499W        W24630   5.802  16.253   3.856  0.0809  0.0416  0.0680
 9500W        W24631   8.462   6.745   9.917 -0.1452 -0.1123 -0.2980
 9501W        W24632   4.405   6.277  15.498  0.0207  0.2855  0.0023
 9502W        W24633   6.968  10.637   4.187  0.0406 -0.0820  0.1925
 9503W        W24634  10.660   8.713   2.285 -0.0987  0.1647  0.0253
 9504W        W24635  10.121  10.859   1.334 -0.4346 -0.0119 -0.0931
 9505W        W24636   0.672   6.753  15.207  0.0303 -0.0357  0.0649
 9506W        W24637  11.928   2.371   1.846 -0.2726  0.1095 -0.0512
 9507W        W24638   8.498   2.234   2.763 -0.0100  0.0485 -0.0234
 9508W        W24639  12.323   4.589   5.031  0.0306 -0.0709  0.1807
 9509W        W24640  11.956  12.041   3.233 -0.0552  0.0476 -0.3988
 9510W        W24641  10.115   0.575   1.531  0.1992 -0.0091 -0.0198
 9511W        W24642   7.549  14.902   5.513 -0.0772 -0.0959 -0.1223
 9512W        W24643  17.957   5.460   0.487 -0.1296  0.1344 -0.0530
 9513W        W24644   6.805  17.093   3.203 -0.2233  0.2649  0.0117
 9514W        W24645   3.882   6.196  13.033  0.1363  0.1008  0.0491
 9515W        W24646  11.259  15.587  10.008 -0.2069 -0.3908  0.1124
 9516W        W24647   8.645  11.035   2.065 -0.3459 -0.1107 -0.1951
 9517W        W24648  13.241  17.663  12.668 -0.4295  0.0219  0.1059
 9518W        W24649   7.697   4.581  11.708 -0.0608  0.0064  0.0491
 9519W        W24650   3.769  15.592  13.317 -0.3110 -0.0682  0.0134
 9520W        W24651  16.699   2.106  14.772 -0.0680  0.2013 -0.1503
 9521W        W24652   8.869   7.607  15.766 -0.2119  0.1536 -0.3169
 9522W        W24653   4.339  14.013   1.517  0.2982  0.0921  0.1350
 9523W        W24654  11.269   1.977  12.894  0.1916  0.0461  0.3047
 9524W        W24655   3.672   5.705   2.877 -0.1888 -0.0388 -0.1667
 9525W        W24656   2.248   1.419  10.619 -0.1319  0.1016  0.0470
 9526W        W24657   6.288   9.089   4.673  0.0081 -0.1384  0.1932
 9527W        W24658  11.723   1.906   1.745  0.0041  0.0188  0.2713
 9528W        W24659   8.169   7.372   0.655 -0.0118 -0.0516 -0.1474
 9529W        W24660   6.580   0.705  14.621 -0.0365 -0.1971  0.2706
 9530W        W24661   2.501  15.196   2.532  0.3909 -0.1001 -0.1275
 9531W        W24662  13.986  13.080   2.779  0.1077 -0.0216  0.2982
 9532W        W24663   5.233   1.687  15.952  0.1399  0.0655  0.0405
 9533W        W24664  11.662  11.653   1.294  0.1671  0.1030 -0.0702
 9534W        W24665   5.329   9.465   1.621 -0.1376 -0.0484 -0.0475
 9535W        W24666   1.699   8.049   3.792 -0.3006 -0.1621  0.1103
 9536W        W24667  14.071   5.154  14.352 -0.0356  0.0235 -0.0139
 9537W        W24668  15.139   2.577   5.244  0.2274 -0.1134 -0.1086
 9538W        W24669  16.690   9.792   0.035 -0.1620 -0.0026 -0.1897
 9539W        W24670  14.810   1.270   4.158  0.1396 -0.2098 -0.0929
 9540W        W24671   9.635  17.538  11.280 -0.0858 -0.0330 -0.1657
 9541W        W24672   3.282  11.461   3.158  0.0787  0.0581 -0.1876
 9542W        W24673   2.847  17.062  12.037  0.0124 -0.0635 -0.5020
 9543W        W24674   6.563  15.488   3.486 -0.3932 -0.2221  0.1181
 9544W        W24675  11.710  13.612  14.861 -0.3015 -0.1564  0.1033
 9545W        W24676   0.221  10.573   0.894  0.0946 -0.0481 -0.0021
 9546W        W24677   2.855   6.670  13.680  0.0263  0.0374 -0.0453
 9547W        W24678   4.767   3.971  14.729  0.1364 -0.0945 -0.0411
 9548W        W24679   6.685  16.984  13.317 -0.2618 -0.1611 -0.0443
 9549W        W24680   9.477   3.037  14.125  0.1319  0.0105  0.1329
 9550W        W24681   4.801  17.303  11.729 -0.3845  0.0992  0.1289
 9551W        W24682   4.665  12.570   5.342  0.0036  0.1576  0.2020
 9552W        W24683   0.208  17.533  14.732  0.1585 -0.1905 -0.0966
 9553W        W24684  16.534  10.669   3.332 -0.0024 -0.1699  0.0166
 9554W        W24685   9.725  11.126   1.835  0.0441 -0.1532 -0.1262
 9555W        W24686  16.944   1.488   3.362  0.1329  0.2371 -0.0857
 9556W        W24687   8.486   1.625   6.210  0.0906 -0.1906 -0.0728
 9557W        W24688   1.339  11.027   5.233 -0.1833  0.1531 -0.2512
 9558W        W24689  15.519  13.469   3.745  0.0137  0.0286  0.0497
 9559W        W24690  17.894  13.166   3.312  0.3839 -0.2558  0.2689
 9560W        W24691  13.080   8.499  12.266 -0.0493 -0.0968  0.1102
 9561W        W24692  14.513   0.054   3.881 -0.1218  0.0098 -0.2153
 9562W        W24693   4.871  14.613   0.854  0.0294 -0.0844 -0.0464
 9563W        W24694  15.046  14.717   1.674 -0.0026  0.1250  0.1470
 9564W        W24695  14.979  14.051  15.300  0.0335 -0.2334 -0.0749
 9565W        W24696  14.345  16.745   1.679 -0.0416 -0.2651 -0.1574
 9566W        W24697   4.600  11.819   2.634  0.1228  0.1345 -0.2191
 9567W        W24698   0.177  17.295  10.956 -0.2709 -0.3470  0.1495
 9568W        W24699   6.554   5.438   1.731 -0.0992  0.0231 -0.1171
 9569W        W24700  14.242   1.945  16.111  0.0835  0.1592 -0.1124
 9570W        W24701   8.951   9.740   1.531 -0.1231 -0.1042 -0.1206
 9571W        W24702   8.589   8.522  13.036  0.2782 -0.0364 -0.1271
 9572W        W24703   5.182  17.521  10.775  0.0383  0.1218 -0.2619
 9573W        W24704   7.735   3.455   0.501  0.0214 -0.1391  0.0250
 9574W        W24705  17.915  11.749  12.055  0.5637 -0.3077  0.0583
 9575W        W24706  13.404  14.514  15.490  0.3268 -0.1614  0.0443
 9576W        W24707  14.298   1.170  13.493 -0.2771 -0.0278 -0.0324
 9577W        W24708  10.468  13.715   4.324  0.0153  0.1858  0.0054
 9578W        W24709  14.504   8.819   4.080 -0.0791 -0.2913  0.3385
 9579W        W24710   4.450   7.301  13.574  0.2289  0.1354 -0.2644
 9580W        W24711  10.330  10.175  11.549  0.0866 -0.0422 -0.0572
 9581W        W24712   1.697   1.397   2.136  0.0291 -0.1365 -0.0815
 9582W        W24713  16.488   8.386   5.166 -0.0336 -0.3016 -0.0254
 9583W        W24714   1.479   9.117   1.869 -0.1102 -0.0597 -0.0967
 9584W        W24715   6.818   2.369  14.559 -0.0076  0.2334  0.1269
 9585W        W24716  13.054   1.861   1.473 -0.3270 -0.2490  0.2149
 9586W        W24717   8.323   4.434   9.847  0.0244 -0.0501 -0.0112
 9587W        W24718   8.881   5.432   3.408 -0.4100  0.1297 -0.1187
 9588W        W24719  17.731  14.457   5.251  0.3141 -0.1146 -0.1943
 9589W        W24720   2.705   7.986  15.006 -0.2213  0.2105  0.3939
 9590W        W24721  16.994   9.387  14.329  0.2746 -0.0585  0.1260
 9591W        W24722  10.287   3.840   3.616  0.1082 -0.2043  0.0928
 9592W        W24723   5.359  11.680  11.341  0.2040  0.0998 -0.1668
 9593W        W24724   2.912  15.462  15.306 -0.0443  0.1162  0.2389
 9594W        W24725  11.439  14.640  13.881  0.1017 -0.0038  0.2145
 9595W        W24726   0.029   0.151  13.489 -0.1542  0.3483  0.2429
 9596W        W24727  13.115   5.256  13.163 -0.0439  0.0668 -0.0872
 9597W        W24728   2.728   5.129   0.404  0.1708 -0.1072 -0.0305
 9598W        W24729   5.704  16.577   0.532 -0.0925 -0.0382  0.1957
 9599W        W24730   3.029  17.656   3.705  0.3103 -0.2847  0.0714
 9600W        W24731  14.385  11.755  12.666 -0.0371  0.2779  0.0639
 9601W        W24732  15.477   7.592  12.182 -0.0252 -0.0022  0.0416
 9602W        W24733   4.828  17.845  13.889  0.3057 -0.2983  0.1070
 9603W        W24734  11.045  17.246   1.411  0.2255 -0.1259  0.0567
 9604W        W24735  15.889  15.577  13.964  0.0032 -0.2884  0.1991
 9605W        W24736  15.898  11.159   2.312 -0.0551  0.0280 -0.1519
 9606W        W24737  13.608   1.839  14.699  0.3318  0.0040 -0.0151
 9607W        W24738   0.490   0.509   0.097 -0.0351  0.0157 -0.4268
 9608W        W24739  13.996  10.079   3.960  0.1530  0.1522  0.2102
 9609W        W24740   0.117  18.099   0.630  0.0127  0.1701 -0.0707
 9610W        W24741   3.935   1.058   4.842 -0.2890 -0.2369 -0.0598
 9611W        W24742  10.185  11.256   2.012  0.2717  0.0247 -0.1328
 9612W        W24743   9.397  17.292  16.090  0.0174 -0.2021  0.0425
 9613W        W24744  15.119   9.505  11.802  0.0588  0.0882 -0.1909
 9614W        W24745   8.282  14.051  13.102  0.0117 -0.1853  0.1149
 9615W        W24746   6.894   4.680  12.169 -0.3053 -0.0491  0.2515
 9616W        W24747   8.611  14.935   5.722 -0.4138  0.3951 -0.0898
 9617W        W24748   3.334  10.118  12.320 -0.0572  0.1088 -0.3593
 9618W        W24749   2.781  17.212   1.080 -0.0007  0.1803 -0.2665
 9619W        W24750   4.019   5.693  11.286  0.0004  0.2050  0.0694
 9620W        W24751  11.369   3.402  13.909 -0.0786  0.1048 -0.0365
 9621W        W24752   6.154  15.235  15.602  0.2440  0.1007  0.1614
 9622W        W24753   0.689  11.217  12.434  0.1343 -0.1603 -0.4085
 9623W        W24754   4.066   2.776  12.028  0.1973 -0.1222 -0.0212
 9624W        W24755   9.964   6.472   1.570  0.2623  0.0989  0.0597
 9625W        W24756  15.740   8.082   3.396  0.1164 -0.1247  0.1076
 9626W        W24757   8.644   0.260   0.933  0.0857  0.1978 -0.0983
 9627W        W24758   0.892  11.503   4.884  0.0463 -0.1326  0.0208
 9628W        W24759  16.770  13.346   3.657  0.0861 -0.0649 -0.3951
 9629W        W24760  10.656  14.982   0.660  0.1129  0.0310 -0.0580
 9630W        W24761   3.280   8.223  13.737 -0.0662 -0.1569  0.2964
 9631W        W24762   7.247   7.417   1.206 -0.1938 -0.0872  0.4061
 9632W        W24763  14.916   9.271  12.295  0.0151 -0.0002 -0.3442
 9633W        W24764  13.184   8.804   5.549 -0.0210  0.1512  0.1582
 9634W        W24765  14.800   1.711  14.959  0.1201 -0.0408 -0.3050
 9635W        W24766   9.603  15.975  14.778 -0.0656 -0.1286  0.3213
 9636W        W24767   5.565   4.947   0.558  0.1067 -0.0814  0.1360
 9637W        W24768  13.557   9.678   5.667 -0.1389  0.2162 -0.1570
 9638W        W24769  15.683   0.395   0.589  0.1285  0.0524  0.1336
 9639W        W24770  14.113   1.315  15.273 -0.3850  0.4021 -0.0623
 9640W        W24771  12.266  11.552  15.757 -0.1549  0.2237  0.0915
 9641W        W24772   1.262  14.390  15.032  0.1059 -0.0681 -0.1781
 9642W        W24773  10.923  15.625  11.797 -0.3659  0.1680  0.1052
 9643W        W24774   6.175   5.724  14.830 -0.0871  0.0355  0.1768
 9644W        W24775  14.181  17.679   1.129  0.0488  0.0147 -0.0812
 9645W        W24776  18.031  18.040   0.137  0.2271  0.0745 -0.1084
 9646W        W24777   3.678   9.173   0.358  0.1983  0.0811 -0.0033
 9647W        W24778   2.717   6.915   0.826  0.0655 -0.2371  0.2703
 9648W        W24779  10.270  15.513  15.605 -0.1054  0.1057 -0.1310
 9649W        W24780  16.405   9.561   4.943 -0.0326  0.0512  0.0236
 9650W        W24781  14.880  12.938   4.843 -0.4079  0.2229  0.2281
 9651W        W24782  17.615  15.238  12.207 -0.2667  0.0657  0.0335
 9652W        W24783  11.324  15.131   1.801 -0.0504 -0.0205  0.2485
 9653W        W24784   0.360   7.739  11.949  0.3117 -0.1710 -0.0972
 9654W        W24785  17.811   9.952   4.007 -0.0091  0.1738  0.0041
 9655W        W24786  11.595  14.133   1.136  0.2999  0.0289 -0.1543
 9656W        W24787  17.802   0.682   0.920  0.0507 -0.2450  0.1263
 9657W        W24788   1.124  10.469  11.408  0.0975 -0.2249 -0.0372
 9658W        W24789   9.324  17.287  13.568  0.1212 -0.0570 -0.3833
 9659W        W24790   1.745  16.327   2.433  0.0250 -0.2661 -0.3758
 9660W        W24791   0.681   5.763  11.674 -0.1846 -0.1380 -0.2751
 9661W        W24792   0.450  12.433   4.153 -0.2855  0.1307 -0.3269
 9662W        W24793  12.879  10.921   0.316  0.2093 -0.2166 -0.0390
 9663W        W24794  12.144   5.603  13.260 -0.1790 -0.0103 -0.0133
 9664W        W24795   2.613   8.055   1.793 -0.2076  0.1744 -0.1114
 9665W        W24796   3.189   5.953   4.692  0.1009 -0.0887  0.3042
 9666W        W24797   0.130  11.033   0.084  0.2350 -0.1409  0.0269
 9667W        W24798  13.644  12.953  14.705 -0.0858 -0.0534 -0.1011
 9668W        W24799  17.605  15.543  11.819  0.2681 -0.0463  0.0023
 9669W        W24800   2.767   1.607   0.074 -0.1061  0.0331 -0.0644
 9670W        W24801   5.418   2.528  15.009  0.0261  0.0348  0.2193
 9671W        W24802  13.356   1.843   3.508 -0.0348 -0.1653 -0.1223
 9672W        W24803   9.781  10.455   2.070 -0.0801  0.2148  0.0653
 9673W        W24804  10.922   9.398  12.528 -0.1847 -0.0364  0.0302
 9674W        W24805   8.040   1.019  13.720 -0.0380 -0.1464  0.1838
 9675W        W24806  13.100   2.474   3.933  0.1833 -0.0631  0.1188
 9676W        W24807  15.276   9.485   3.523  0.1874 -0.1111  0.2452
 9677W        W24808  14.728   7.688   2.306 -0.2124 -0.2984 -0.1266
 9678W        W24809  11.632  13.457  13.389  0.2312  0.2482 -0.2056
 9679W        W24810  17.151   3.255   1.952 -0.1411 -0.2811  0.0741
 9680W        W24811  11.214  12.476   4.173 -0.0255 -0.0675  0.0838
 9681W        W24812  12.741   3.024  15.048  0.2197 -0.4496  0.2458
 9682W        W24813   8.215   8.093  10.410  0.3483 -0.0393  0.1377
 9683W        W24814   8.279  14.965   4.661  0.1576  0.0872 -0.1113
 9684W        W24815  15.112   4.408   2.224  0.0847  0.1143 -0.0761
 9685W        W24816   8.325  15.004   4.052  0.1462  0.1687  0.1101
 9686W        W24817  11.201   3.542  15.086  0.1542  0.1605  0.0496
 9687W        W24818   6.869   4.479  13.808  0.3186 -0.2252  0.4445
 9688W        W24819  12.039   5.452   1.719 -0.1546  0.1475  0.0567
 9689W        W24820   1.629   5.717   2.229  0.0275 -0.3429 -0.1461
 9690W        W24821   0.669   3.468  11.076 -0.2667 -0.1686 -0.0003
 9691W        W24822  16.716   5.286  12.959 -0.0442 -0.1086 -0.0671
 9692W        W24823  10.499  11.139   5.505  0.0296  0.2056 -0.2166
 9693W        W24824   2.542  17.297   0.656 -0.1378 -0.0905 -0.1866
 9694W        W24825  12.025   6.688   4.372  0.3097 -0.0552  0.4079
 9695W        W24826  11.561   1.896   1.156  0.1678 -0.1766 -0.0018
 9696W        W24827  17.279   2.477   3.610 -0.1506 -0.0881 -0.4619
 9697W        W24828   4.821   3.370   0.423  0.0128 -0.0638  0.0894
 9698W        W24829   9.605   9.382  13.951  0.0712 -0.0509 -0.0423
 9699W        W24830   7.359  17.463   4.481  0.2532  0.1386 -0.0417
 9700W        W24831  13.979   5.462  10.100 -0.2525 -0.1325  0.1114
 9701W        W24832  13.993  16.686   4.897  0.0669  0.0368  0.1729
 9702W        W24833  17.208  16.740   1.507 -0.3305 -0.0758 -0.0689
 9703W        W24834   3.970   4.905  11.378 -0.2301  0.0529  0.2863
 9704W        W24835   1.325   3.051  13.191  0.1636  0.2607 -0.1227
 9705W        W24836   0.669   0.274   1.815  0.0145 -0.0741 -0.2596
 9706W        W24837  10.019  15.841   3.357  0.2125 -0.0774  0.0426
 9707W        W24838   2.754  12.424   5.101 -0.0379  0.2470 -0.1064
 9708W        W24839   6.451  17.520   4.558  0.0878  0.1238  0.0639
 9709W        W24840   6.509   1.883  15.227 -0.2092 -0.0353 -0.0503
 9710W        W24841   8.232   9.499   4.402 -0.1238  0.0075  0.2804
 9711W        W24842   3.402   2.434  16.151  0.2643  0.0154 -0.1046
 9712W        W24843  15.074  14.985  11.980 -0.0275  0.1219  0.1632
 9713W        W24844  16.797   6.357  13.508 -0.0777  0.0495  0.1073
 9714W        W24845   6.036   5.414  13.160  0.2124 -0.3347 -0.1439
 9715W        W24846   4.483  11.184   1.011  0.2573  0.1290 -0.2352
 9716W        W24847  11.109  10.917  11.391  0.0945  0.1586 -0.1656
 9717W        W24848  14.527   1.491  14.414  0.2203 -0.2313 -0.4041
 9718W        W24849   5.439  12.821  13.411  0.1967 -0.1650 -0.0417
 9719W        W24850  11.639   2.712   1.610 -0.1031  0.0115  0.0580
 9720W        W24851   8.913   0.201   5.325  0.0917 -0.2210 -0.4663
 9721W        W24852   0.238  15.282   3.206  0.0832  0.0568 -0.0991
 9722W        W24853   0.200   9.187  12.751 -0.1153 -0.1259  0.1517
 9723W        W24854   8.819   1.732   5.009  0.3163 -0.1921 -0.0267
 9724W        W24855   4.397   1.172  11.835  0.0367  0.1813  0.2852
 9725W        W24856  13.931   9.273  11.516  0.0618 -0.0820 -0.3033
 9726W        W24857  18.004  11.821   2.800 -0.0342  0.2194  0.0934
 9727W        W24858  12.161   4.197   4.756 -0.0174  0.0540  0.0877
 9728W        W24859   5.140   4.412   4.644 -0.0464 -0.0180  0.1952
 9729W        W24860  14.011   3.359  14.268 -0.4845  0.0245 -0.3880
 9730W        W24861   5.997  10.291   5.572  0.2630 -0.0146  0.2282
 9731W        W24862   5.068   1.468  12.487  0.1760 -0.0640  0.1933
 9732W        W24863   4.053   9.791  12.125 -0.0401  0.0834 -0.1352
 9733W        W24864   3.899   5.584  13.505 -0.1634  0.2042 -0.1854
 9734W        W24865   6.086  17.556  14.688 -0.0611 -0.1217  0.0350
 9735W        W24866  15.520   0.411  11.174 -0.1930  0.0886 -0.1769
 9736W        W24867   3.544  17.249   2.074 -0.1185 -0.4133 -0.2120
 9737W        W24868  13.059   0.045  12.588  0.3505 -0.0759 -0.0180
 9738W        W24869  11.475   6.275  10.718 -0.2342  0.0543  0.2525
 9739W        W24870   5.180   9.445   0.519  0.0266 -0.1985  0.2136
 9740W        W24871  15.641   0.129  12.471  0.1737  0.1295 -0.2184
 9741W        W24872   7.159   2.579   2.187  0.0402  0.2520  0.0041
 9742W        W24873   7.155  10.688  11.493  0.0996  0.0942 -0.3152
 9743W        W24874   6.642  14.824   4.254  0.2205  0.1888 -0.1812
 9744W        W24875  14.639  10.007  13.832  0.4271 -0.1964  0.2298
 9745W        W24876   8.701   7.762  14.225 -0.0180  0.0767  0.1716
 9746W        W24877  10.833   3.730   0.706 -0.1052 -0.0010 -0.2747
 9747W        W24878   4.158   9.405  15.007  0.1019  0.1675 -0.0444
 9748W        W24879  11.498   0.278   4.841  0.2816  0.3818  0.0017
 9749W        W24880  12.427   9.593  11.641 -0.0857 -0.0869 -0.0204
 9750W        W24881   8.086   2.336   1.087 -0.1996  0.0382  0.0357
 9751W        W24882   4.287   7.128   5.013  0.0460 -0.0321  0.1554
 9752W        W24883   5.358  13.706  10.116  0.0737  0.1203  0.1695
 9753W        W24884   6.892  18.071   2.373  0.1074 -0.0835 -0.1539
 9754W        W24885  16.066   4.408  14.844  0.1797 -0.0155  0.1631
 9755W        W24886  12.658  13.755   1.150  0.0150  0.1313 -0.1141
 9756W        W24887   0.187  10.599  15.041  0.1062  0.1067  0.0909
 9757W        W24888   2.592   1.810   5.218 -0.2503  0.1557  0.0389
 9758W        W24889   7.062   1.925  14.642  0.1206 -0.1731 -0.2753
 9759W        W24890  10.172  11.539  10.829 -0.2397  0.3730  0.0787
 9760W        W24891   1.490   8.248   4.160 -0.1299 -0.3864 -0.1000
 9761W        W24892   9.895   6.898  15.327 -0.2854 -0.0106 -0.0475
 9762W        W24893  16.131  14.738   2.585 -0.2496 -0.0691  0.0486
 9763W        W24894  10.456  12.361  10.906  0.0384 -0.2784  0.0375
 9764W        W24895  16.729   1.126   3.024 -0.1033  0.0250  0.0610
 9765W        W24896  12.708   1.666   1.879  0.3483  0.0317 -0.2329
 9766W        W24897   2.106  12.330   2.055  0.0814 -0.1651 -0.0315
 9767W        W24898  16.052  10.817  14.793  0.0916  0.1106 -0.2935
 9768W        W24899   2.787  13.779  15.073 -0.0711  0.1299  0.0560
 9769W        W24900  13.596   1.801   4.511  0.0197  0.1299  0.0042
 9770W        W24901   8.357   4.326  13.078  0.0232  0.1953 -0.0146
 9771W        W24902   1.493   1.176  14.731  0.0752 -0.0386 -0.0444
 9772W        W24903   6.716   6.332  11.770  0.3323 -0.0492  0.1730
 9773W        W24904   2.027   5.266   3.871 -0.0059 -0.2967  0.2877
 9774W        W24905  12.442   8.576  15.982  0.1574  0.2184 -0.0951
 9775W        W24906   4.070  14.994   1.514 -0.0917  0.1509  0.0467
 9776W        W24907   7.295   8.016   0.532  0.0794  0.1693 -0.2774
 9777W        W24908   6.556   2.186  15.670 -0.0285  0.2604  0.2489
 9778W        W24909  10.993   9.631   5.238 -0.0424  0.0613  0.0982
 9779W        W24910   9.839  10.079  14.097 -0.1248  0.2057 -0.3888
 9780W        W24911  13.158   5.994   3.500  0.0634  0.0042  0.0566
 9781W        W24912   1.245  15.659  11.426 -0.3203 -0.2313 -0.4807
 9782W        W24913   5.438   0.921  14.293 -0.1713 -0.0098 -0.1571
 9783W        W24914   4.498  16.115   0.174  0.0822  0.1137 -0.2966
 9784W        W24915   7.401  13.644  11.819  0.1314  0.0440  0.0075
 9785W        W24916   1.935   7.014  11.664  0.0461  0.1892  0.0361
 9786W        W24917   2.390   8.240   3.343  0.1047  0.0240  0.0054
 9787W        W24918  15.766   2.352  14.183  0.1463  0.0682  0.1359
 9788W        W24919   9.037   7.573  13.757  0.0201 -0.0252  0.0122
 9789W        W24920  14.536  16.860  14.780  0.0470 -0.1830 -0.0573
 9790W        W24921  11.125   9.129  15.997  0.1004  0.2897 -0.0136
 9791W        W24922   8.513   9.600  14.477  0.3661  0.1554 -0.1064
 9792W        W24923  16.391   4.006   4.896 -0.0872  0.0752 -0.0155
 9793W        W24924  10.019  11.691  15.294 -0.0798 -0.0996  0.1417
 9794W        W24925   1.038   2.075  14.708 -0.1617  0.0372  0.0951
 9795W        W24926   4.225   8.829   0.655 -0.0375  0.0632  0.0377
 9796W        W24927   3.821   8.996   4.181  0.0976  0.1331 -0.1684
 9797W        W24928   3.554  12.553  10.791 -0.2106  0.3749  0.2577
 9798W        W24929  16.529  10.531  14.761 -0.0142 -0.1228 -0.1178
 9799W        W24930  14.701  14.224  12.477  0.0581  0.2268  0.3120
 9800W        W24931   5.911   7.155   4.142  0.0935 -0.0190  0.3121
 9801W        W24932  10.681   5.787   3.438  0.0897 -0.1852  0.0954
 9802W        W24933   9.591   1.037   0.468  0.1675  0.3344 -0.0848
 9803W        W24934   0.915  12.359  12.429 -0.0393 -0.2357 -0.0536
 9804W        W24935   8.420   5.092   1.297  0.1702  0.1226 -0.0238
 9805W        W24936  14.441  15.375  15.160 -0.0257  0.0564  0.1539
 9806W        W24937   6.653  14.580   4.673 -0.0868  0.1488 -0.0935
 9807W        W24938   1.065   0.636   2.274 -0.1542  0.2557 -0.2504
 9808W        W24939   1.367   7.043   5.940 -0.0440 -0.1000  0.0134
 9809W        W24940   3.344  14.365  12.976  0.2724 -0.1069  0.0054
 9810W        W24941  10.445  17.623  11.634  0.1952  0.1290  0.3653
 9811W        W24942   1.985   8.678   3.284  0.1972  0.3261 -0.0992
 9812W        W24943  11.486  10.380  10.636 -0.3576  0.1890 -0.3065
 9813W        W24944   2.062   8.875  12.861 -0.3395  0.0781 -0.0449
 9814W        W24945  12.166   3.381  12.889  0.1928  0.1445 -0.0985
 9815W        W24946  10.833  16.376  15.908  0.1602  0.2927 -0.1714
 9816W        W24947   0.691   7.692  11.499  0.1729 -0.1650  0.2329
 9817W        W24948   1.210   5.904  12.261  0.0308  0.1417  0.2615
 9818W        W24949   6.734   7.213  13.173 -0.0597  0.1135  0.2036
 9819W        W24950   8.625   0.586   1.386 -0.0523 -0.0218  0.1505
 9820W        W24951   6.462   1.334   3.721  0.0260 -0.1770  0.0180
 9821W        W24952  17.935  12.639  10.280 -0.2897 -0.0850  0.0145
 9822W        W24953  15.552   4.967  11.860  0.0109  0.0509 -0.3931
 9823W        W24954   1.761   6.059  11.348  0.1119  0.0723 -0.0407
 9824W        W24955  13.510   3.111   0.585 -0.2098  0.0753 -0.0754
 9825W        W24956   4.890   9.785  12.660 -0.2812 -0.1155 -0.0199
 9826W        W24957   1.206   4.704  13.101  0.1191  0.0700  0.3247
 9827W        W24958  17.824  13.895   5.250 -0.2536 -0.0076  0.1433
 9828W        W24959   4.190   9.987  12.583 -0.0346  0.1131 -0.0287
 9829W        W24960   2.397   6.079  15.584 -0.1806  0.2448 -0.2668
 9830W        W24961   5.633  14.188   3.122 -0.1530 -0.1522 -0.1682
 9831W        W24962   2.228  11.485   0.978 -0.1620 -0.0767 -0.2569
 9832W        W24963  13.976   3.622   1.632 -0.0680 -0.4076  0.0224
 9833W        W24964   5.187  14.805   0.529  0.0468 -0.0261  0.1472
 9834W        W24965  14.795   6.023   3.231 -0.2542  0.0865  0.0787
 9835W        W24966   2.282  12.929  13.157  0.1486 -0.4133 -0.0646
 9836W        W24967   8.026  14.316  12.766  0.4028  0.0599 -0.3085
 9837W        W24968   6.246  15.538  14.179  0.0573  0.0251 -0.0852
 9838W        W24969  11.604  10.779  10.372  0.0743 -0.2613  0.3315
 9839W        W24970   8.506  11.283  14.478  0.1513  0.1695  0.1320
 9840W        W24971   0.481   7.391  15.902  0.3209  0.0518  0.3217
 9841W        W24972   7.948   5.107  11.750  0.0162 -0.0236 -0.2751
 9842W        W24973  13.804   0.930   5.009 -0.1467 -0.3504  0.1034
 9843W        W24974   3.508  14.221  14.612  0.1548  0.2051 -0.0583
 9844W        W24975   0.504  14.031  12.790  0.3784  0.1232  0.0865
 9845W        W24976  15.516   0.282   5.183  0.1671 -0.2404  0.4662
 9846W        W24977   6.919  13.987  16.155 -0.0889 -0.1247  0.0070
 9847W        W24978  10.114   9.771  12.263 -0.3034  0.0153 -0.0569
 9848W        W24979  12.924   4.578  15.374 -0.0245 -0.1656 -0.2144
 9849W        W24980  17.449   1.349  12.096  0.0954 -0.0863 -0.0597
 9850W        W24981   9.381  10.215   1.247 -0.1432 -0.0096 -0.1296
 9851W        W24982   1.075   8.295   1.527  0.2823  0.0565  0.0450
 9852W        W24983   8.253   9.888  13.064 -0.0236 -0.4758  0.0308
 9853W        W24984   1.723   3.944   4.326 -0.1049  0.0151  0.1506
 9854W        W24985  14.490   3.929   3.524 -0.0654  0.1323 -0.0407
 9855W        W24986   1.725   8.685  14.184 -0.1723 -0.3114 -0.1993
 9856W        W24987   6.761   8.941  13.021  0.1332 -0.1220 -0.0729
 9857W        W24988  16.901   8.161   1.876  0.0257 -0.2321 -0.0707
 9858W        W24989   1.274   6.420   5.277  0.2382 -0.2400  0.1125
 9859W        W24990   4.469  10.404  13.040 -0.0906 -0.1532  0.0624
 9860W        W24991   0.413   8.408  13.892 -0.1841  0.0365  0.0212
 9861W        W24992   9.978  17.177   0.543 -0.4260  0.1985 -0.2216
 9862W        W24993   3.538  10.987   3.407  0.0652  0.1502 -0.1040
 9863W        W24994  13.924   2.762   1.394  0.0429 -0.0994 -0.1853
 9864W        W24995  11.181   5.708  13.761 -0.0403  0.3743 -0.1395
 9865W        W24996  15.822   0.457   1.669 -0.1757  0.0973 -0.1301
 9866W        W24997   7.653  11.902  10.745  0.0896  0.0168  0.0020
 9867W        W24998   1.279  15.439   1.099 -0.0439 -0.0113 -0.2164
 9868W        W24999   0.169  17.951  13.911  0.1070  0.0475 -0.0338
 9869W        W25000  10.448   6.889  15.596 -0.0595  0.0548  0.3157
 9870W        W25001  13.375   8.043  16.223  0.2041 -0.2900  0.0172
 9871W        W25002   6.554  15.533   2.020  0.1279  0.0445  0.0301
 9872W        W25003   0.049  17.168   3.288 -0.0258  0.0981  0.1429
 9873W        W25004   2.718   7.692   3.697 -0.1204  0.2170 -0.0141
 9874W        W25005   7.564   5.024   2.904  0.0066 -0.0164 -0.1325
 9875W        W25006   3.436  16.016   3.819  0.1147  0.0101 -0.1879
 9876W        W25007   5.215   2.361  13.542  0.0200 -0.0016  0.1107
 9877W        W25008  11.677   8.110   1.232 -0.1210 -0.1066 -0.0730
 9878W        W25009   0.244   9.507  11.285  0.1754 -0.2832  0.0389
 9879W        W25010  12.459  16.676   5.199 -0.0299 -0.1503  0.0120
 9880W        W25011   0.250   4.324   3.468  0.0420 -0.2582  0.2127
 9881W        W25012  14.485  15.833  14.338 -0.0165 -0.3129  0.1564
 9882W        W25013   6.915   3.189   2.819 -0.0224  0.0423  0.1591
 9883W        W25014  16.108  17.616  10.743  0.1740 -0.0965  0.0904
 9884W        W25015  11.841  13.845   3.642  0.0117  0.0367 -0.0602
 9885W        W25016   3.564   4.492  15.776 -0.1063  0.0765  0.0495
 9886W        W25017  17.363  14.844   1.119  0.1780  0.3584 -0.1549
 9887W        W25018  11.026   3.555   3.245  0.2117 -0.1858  0.1280
 9888W        W25019  15.086  10.743   5.469 -0.0877 -0.2140 -0.3687
 9889W        W25020   2.313   7.644   4.073 -0.0891 -0.0346  0.0895
 9890W        W25021   5.293   9.268  13.480 -0.0508 -0.1854  0.4153
 9891W        W25022   6.491   2.751  12.714  0.3113 -0.0674  0.0670
 9892W        W25023  10.536  15.990  15.519  0.1290  0.2256 -0.0434
 9893W        W25024   1.390  14.218   1.577  0.1564 -0.2825  0.1315
 9894W        W25025  10.326  12.029  12.675 -0.1581  0.0347  0.2877
 9895W        W25026  16.588   2.974  12.318  0.2716 -0.1171 -0.0247
 9896W        W25027  10.676   1.931  11.925 -0.0034 -0.4068 -0.0563
 9897W        W25028  11.175   7.935  11.535  0.0401 -0.0733 -0.1587
 9898W        W25029  15.391   2.896   3.773  0.3636 -0.0392  0.3580
 9899W        W25030  14.633   0.430  14.753  0.2085  0.0421 -0.1277
 9900W        W25031  14.616  17.238   5.098 -0.1346 -0.0020  0.1262
 9901W        W25032   5.941  11.321   4.031 -0.2735  0.0913 -0.1529
 9902W        W25033  16.052  11.216  15.586  0.1802 -0.2423  0.2532
 9903W        W25034  16.486   7.753   5.560 -0.0208 -0.3707  0.0880
 9904W        W25035  11.118  13.566   2.236  0.1822 -0.2093 -0.0760
 9905W        W25036  16.294   6.032  13.050 -0.3296 -0.1498 -0.0277
 9906W        W25037   7.354   8.115  11.497 -0.2156 -0.1189 -0.0766
 9907W        W25038  12.279   4.764   2.882 -0.3001 -0.2147 -0.2194
 9908W        W25039  11.107   4.731  13.729  0.0489  0.1143  0.2733
 9909W        W25040   6.204   8.813  11.041 -0.2244  0.0725  0.0677
 9910W        W25041  15.314  11.915  11.923 -0.0879  0.1789  0.0197
 9911W        W25042   7.542  12.734  12.261  0.1691  0.0103 -0.0096
 9912W        W25043  11.374  10.333   4.223 -0.1514 -0.2267 -0.2849
 9913W        W25044  14.514   4.344  14.681 -0.1028  0.2976  0.2021
 9914W        W25045  10.938  15.960   0.619  0.0151 -0.0506  0.1533
 9915W        W25046  13.438   9.751  15.127 -0.1265 -0.1632  0.0763
 9916W        W25047   4.714  13.254   2.581  0.0777  0.1164 -0.0209
 9917W        W25048  16.310   6.300  12.651  0.1139 -0.0939  0.0749
 9918W        W25049  14.784   7.395   1.304  0.1101 -0.1845  0.0505
 9919W        W25050  14.001  16.733  11.954  0.3179  0.0846 -0.3189
 9920W        W25051  17.454   7.691  12.402 -0.0771 -0.2172  0.1189
 9921W        W25052   0.780  16.802  15.800  0.0790  0.1194  0.2009
 9922W        W25053   0.492   4.686   5.566 -0.1986  0.2317  0.1646
 9923W        W25054  14.783   4.343   3.181  0.0668  0.1527 -0.0581
 9924W        W25055   0.037  12.197  11.953  0.0151  0.2871 -0.0367
 9925W        W25056  10.879   0.673   4.068  0.0228 -0.2794 -0.2005
 9926W        W25057   5.916   3.944   1.970  0.0701 -0.2213  0.3049
 9927W        W25058   7.792  10.539   3.344  0.0963 -0.0745  0.1896
 9928W        W25059   8.965   2.425  10.338 -0.0830 -0.0849  0.0667
 9929W        W25060   1.141  16.445  10.672  0.1860  0.1257  0.1128
 9930W        W25061  15.906  12.641  11.987 -0.1112 -0.2177 -0.1330
 9931W        W25062  14.309   5.261   2.041 -0.2661  0.0927 -0.0278
 9932W        W25063  15.083  11.165   5.941  0.1206 -0.1761  0.2034
 9933W        W25064  17.878   4.439  12.829  0.0003 -0.1477 -0.0654
 9934W        W25065   6.373   4.563   4.769  0.2414  0.2332 -0.1307
 9935W        W25066   6.521   4.566   2.867 -0.1013 -0.0608 -0.0271
 9936W        W25067   5.983   2.937  12.842  0.2303  0.1747  0.1309
 9937W        W25068  16.727   0.464   2.266 -0.1743 -0.5213  0.0295
 9938W        W25069   8.251   7.173  11.013 -0.1528 -0.0473 -0.1726
 9939W        W25070  11.822   6.940   0.105  0.2210  0.0709  0.4901
 9940W        W25071   8.345   6.279  15.484  0.0267  0.3203 -0.1975
 9941W        W25072   8.063  12.643   1.482 -0.0705  0.4266  0.1676
 9942W        W25073  12.865  11.926   3.699 -0.0471  0.1427  0.0273
 9943W        W25074  13.854   1.415  14.793 -0.0182  0.0209 -0.0573
 9944W        W25075  16.345   1.041   1.012  0.1176  0.0155  0.1010
 9945W        W25076   2.854  16.346   5.916  0.1221 -0.4413 -0.0804
 9946W        W25077   9.685  12.590   1.550 -0.0248  0.2834  0.0493
 9947W        W25078  15.851   9.790   2.995  0.0765  0.0337  0.1319
 9948W        W25079  17.444   4.440   3.326  0.0002 -0.0738  0.2061
 9949W        W25080   3.689  13.332  10.293  0.0965 -0.3379  0.1994
 9950W        W25081   2.976  14.779  12.958  0.3086  0.1324  0.2259
 9951W        W25082  13.740  12.113  11.013  0.0819  0.1471 -0.4969
 9952W        W25083  11.798  12.182   4.801  0.2130  0.0402  0.1031
 9953W        W25084   0.309   2.172   0.138 -0.0220 -0.0041  0.1558
 9954W        W25085   7.530  16.995  14.083  0.2886  0.0937 -0.1531
 9955W        W25086   8.607  14.014  10.212  0.0076  0.0667  0.2206
 9956W        W25087   0.337   8.510   2.002 -0.0592 -0.1256 -0.0425
 9957W        W25088  14.214   8.961   0.159 -0.4036 -0.2543  0.0542
 9958W        W25089  15.295  15.857  14.345  0.1345 -0.1231  0.0062
 9959W        W25090  10.356  18.053   4.714  0.0146 -0.0427 -0.1986
 9960W        W25091   9.906   0.270  11.269  0.0899  0.0580 -0.0329
 9961W        W25092   3.006   0.287  16.136  0.1931 -0.1456 -0.0741
 9962W        W25093  14.275   9.273   1.088  0.0163 -0.1669  0.1332
 9963W        W25094   6.814   3.864   5.009 -0.0735  0.0091 -0.0160
 9964W        W25095   4.286   9.419   2.406  0.0699  0.0063 -0.2716
 9965W        W25096  15.662  17.185  14.621  0.0415  0.1516 -0.0823
 9966W        W25097   0.241  15.889  11.593  0.1074 -0.2334  0.1311
 9967W        W25098   1.888  10.749  12.431  0.1885  0.1601 -0.2955
 9968W        W25099  15.972   6.678   0.550 -0.2385 -0.0518 -0.1593
 9969W        W25100   3.680   0.646   5.004  0.0480 -0.0569  0.4351
 9970W        W25101  14.305   5.662  13.155 -0.2734 -0.2102  0.2024
 9971W        W25102   2.698  12.707   4.644  0.1849 -0.0124 -0.0968
 9972W        W25103  13.446   1.700  15.135  0.1797  0.0633 -0.0284
 9973W        W25104  11.659   9.746  15.719  0.0747 -0.0458  0.1168
 9974W        W25105  11.616  13.081   3.000 -0.0392 -0.1274 -0.2351
 9975W        W25106   9.208   2.315   0.901  0.3404 -0.1652 -0.2998
 9976W        W25107  13.512   6.364   0.015 -0.0262 -0.1442  0.1817
 9977W        W25108  17.378  10.548   3.529 -0.2570  0.1100 -0.2026
 9978W        W25109  17.738   6.396  12.558 -0.0374  0.0501 -0.1719
 9979W        W25110   5.529  17.498   4.389 -0.1265  0.1733 -0.1340
 9980W        W25111  10.020  12.740   4.557  0.0497 -0.3895 -0.1257
 9981W        W25112  11.452   6.508  13.294 -0.1728 -0.1086  0.1106
 9982W        W25113   3.110  16.529  14.982 -0.0524 -0.1263  0.3497
 9983W        W25114   0.678  17.559   3.730  0.0474  0.2703 -0.0549
 9984W        W25115   6.479  13.133   0.391  0.2930 -0.2045  0.0932
 9985W        W25116   2.335   4.745   3.415  0.2219 -0.1900  0.1466
 9986W        W25117  13.864   3.930   1.190 -0.1068 -0.0136 -0.1540
 9987W        W25118   2.611  13.762  13.611 -0.1745 -0.0706 -0.0040
 9988W        W25119   5.494   5.629   1.307  0.0154 -0.0418  0.3099
 9989W        W25120  16.874   6.458   0.856 -0.0705 -0.1135 -0.2691
 9990W        W25121  14.301   9.315   0.610 -0.2909  0.5000 -0.2943
 9991W        W25122   0.383   7.087  13.839 -0.3545  0.0856  0.3864
 9992W        W25123   0.774  15.307   4.497  0.3857  0.0020 -0.2960
 9993W        W25124   1.525   7.113  10.706 -0.0125  0.0155  0.1104
 9994W        W25125   7.786  14.591  15.149  0.1126  0.0599  0.2679
 9995W        W25126   8.185   7.140  14.633 -0.1202 -0.0758 -0.0583
 9996W        W25127   2.434  11.841  14.985  0.1588  0.1708  0.0455
 9997W        W25128   6.464   4.184  12.752  0.2959  0.4744  0.0457
 9998W        W25129   3.639  10.481  15.688 -0.3032 -0.3741  0.1426
 9999W        W25130   5.409  13.386  10.928 -0.2603  0.0876  0.2370
10000W        W25131   8.797   9.373  13.647  0.0728 -0.2346 -0.0758
10001W        W25132  14.318   6.532   5.341 -0.0427 -0.0373 -0.0109
10002W        W25133   0.776   5.244  15.459  0.0409  0.0853  0.2678
10003W        W25134   7.555  14.203  14.868 -0.2195  0.0962  0.2659
10004W        W25135  14.049   5.651  15.671  0.1557 -0.0297  0.0429
10005W        W25136  14.043  14.027  15.499 -0.1116 -0.1801 -0.1571
10006W        W25137   0.461  16.314  15.720 -0.0392  0.0692  0.1823
10007W        W25138   5.848  16.258  14.096  0.1731  0.1396 -0.3249
10008W        W25139  15.717  16.939   1.431  0.1037  0.0424 -0.0387
10009W        W25140   8.328  14.511  15.344 -0.0661 -0.0871 -0.1436
10010W        W25141  12.000   8.230  11.705  0.0227 -0.1302 -0.1090
10011W        W25142  17.049   9.013  13.007 -0.3253 -0.2330 -0.2008
10012W        W25143   5.166   4.437  13.919 -0.2497  0.1304 -0.1915
10013W        W25144   2.333   1.511  11.107 -0.1444  0.1061  0.0214
10014W        W25145  14.643  13.878   2.102 -0.0393  0.2612 -0.0538
10015W        W25146  13.317  11.617  14.362  0.0540 -0.1714 -0.0607
10016W        W25147  11.422  16.441   3.371 -0.0185  0.0335 -0.1280
10017W        W25148  16.025  15.537  10.128  0.0888  0.1152 -0.2535
10018W        W25149  17.758   9.933  10.566  0.3245 -0.3383  0.0593
10019W        W25150   8.297   8.845  15.696 -0.0132 -0.0901  0.1523
10020W        W25151   5.306  16.279  15.108 -0.0470  0.1536 -0.1306
10021W        W25152   2.604   5.738  13.087  0.2773  0.3037 -0.1649
10022W        W25153  13.640  17.561  14.892  0.0014  0.4779  0.4665
10023W        W25154  10.917   2.879  14.516  0.1075 -0.0899 -0.0526
10024W        W25155  16.789  14.948  11.149  0.2359  0.1833 -0.0461
10025W        W25156   5.471   2.531   5.044 -0.2316  0.1643 -0.0448
10026W        W25157   8.722   3.652   0.301  0.0518 -0.0714 -0.0473
10027W        W25158  17.833  15.737  14.898  0.1409 -0.0255 -0.0732
10028W        W25159  10.188   7.560  12.421  0.0392  0.3070 -0.1811
10029W        W25160  11.916  17.146   1.334  0.1968 -0.3462  0.1434
10030W        W25161   8.717  14.378   4.464  0.2473  0.2459  0.0047
10031W        W25162   6.524   8.251  12.119 -0.1504  0.0804  0.0881
10032W        W25163   1.662   0.167   3.492  0.1835  0.1002  0.0449
10033W        W25164   4.504   1.985   1.092  0.0511 -0.0743 -0.1644
10034W        W25165  10.554   1.391   1.047  0.2182  0.0540 -0.1059
10035W        W25166   1.100  13.814   1.671  0.1077 -0.0938  0.2308
10036W        W25167   0.256   1.792   2.485 -0.0269  0.1501  0.0033
10037W        W25168  16.346   6.069  11.699  0.2692 -0.2289  0.1196
10038W        W25169  11.948   5.183   5.147  0.1283 -0.4153 -0.0231
10039W        W25170   1.793  13.307   5.278  0.1445 -0.4081  0.0623
10040W        W25171  11.706  15.336  13.315 -0.2129 -0.0427 -0.0717
10041W        W25172  12.829  16.929  16.126  0.4835  0.0464  0.0441
10042W        W25173  11.808  11.408  14.278 -0.2031  0.0475  0.0147
10043W        W25174   1.734  12.604  15.458  0.1371  0.1223 -0.0359
10044W        W25175   2.426  15.790   4.690 -0.2320  0.0628  0.0260
10045W        W25176   5.492   3.612  11.450 -0.0913  0.1745  0.0625
10046W        W25177  13.543  15.546   3.268 -0.1258 -0.1242 -0.1194
10047W        W25178   2.304   5.322   4.742  0.1315  0.1966  0.0378
10048W        W25179   5.014  10.837   4.238  0.4778  0.0062 -0.4172
10049W        W25180  14.751  16.106   0.675 -0.0698  0.3164 -0.0184
10050W        W25181  16.838   4.173   3.887 -0.1791  0.0091  0.0588
10051W        W25182   5.023   8.030   1.837 -0.5464 -0.1529  0.0921
10052W        W25183   1.971   5.693   4.291 -0.1569  0.0148 -0.0812
10053W        W25184  16.365   5.512   3.696  0.0711 -0.0007  0.0926
10054W        W25185  13.359  17.293  14.301 -0.0929 -0.3208 -0.1668
10055W        W25186  13.836   6.579  14.962 -0.2650  0.1020 -0.1838
10056W        W25187  10.972  14.857  12.216 -0.0040 -0.1076  0.0015
10057W        W25188  15.110   4.098  14.444 -0.3892 -0.2716  0.0613
10058W        W25189  10.211   4.004  14.924 -0.1467 -0.3635 -0.0712
10059W        W25190   4.943  17.302  12.403 -0.1691 -0.1457 -0.1505
10060W        W25191   9.676   5.261  14.782  0.0974  0.0049  0.1989
10061W        W25192  16.135  13.451  16.189 -0.1209 -0.2685  0.0935
10062W        W25193   5.227   5.937  12.295 -0.1794 -0.1599 -0.1486
10063W        W25194   6.604   8.578  13.841 -0.1499  0.1153 -0.1131
10064W        W25195  11.047  16.514  13.825  0.2553  0.1100  0.1412
10065W        W25196  15.406  12.310  14.927  0.1424 -0.0255  0.1500
10066W        W25197   1.616   3.028  11.614 -0.0494 -0.0400  0.2771
10067W        W25198  17.970   2.945   3.449 -0.1319  0.0891 -0.1020
10068W        W25199  16.415   3.570   4.567 -0.1064  0.3991  0.0873
10069W        W25200   2.513  11.318  12.701 -0.0448  0.1143 -0.0343
10070W        W25201   5.233   1.310  11.561  0.3227 -0.2932 -0.1495
10071W        W25202   7.022  10.769  14.309  0.0476  0.1891 -0.0534
10072W        W25203   0.605  15.064  11.766 -0.0846  0.2119  0.0237
10073W        W25204  17.005   5.697  11.179  0.0955 -0.1521  0.0180
10074W        W25205  12.708   6.355  14.949 -0.0825 -0.3960 -0.0206
10075W        W25206   2.534   3.773   1.625 -0.1512 -0.1541  0.0432
10076W        W25207   7.304  17.113  11.131 -0.1186 -0.0837 -0.0573
10077W        W25208  12.944  16.312  12.667  0.0534  0.5565  0.2114
10078W        W25209   9.660  10.979  11.421 -0.3074 -0.0509 -0.1397
10079W        W25210  15.953   0.113   3.850 -0.1870 -0.2941 -0.0429
10080W        W25211  10.755  12.050   4.962 -0.3202 -0.1261 -0.2161
10081W        W25212   0.952  14.030  11.308 -0.3098  0.1945  0.0840
10082W        W25213   8.269   2.639  12.490 -0.1008 -0.0808  0.0352
10083W        W25214   5.901   9.493   2.872  0.1144  0.1362  0.2189
10084W        W25215   3.014   1.959  15.295  0.1714  0.0943  0.1066
10085W        W25216   9.366  17.850   6.156 -0.1158 -0.1927 -0.2143
10086W        W25217  10.291   5.198  15.645 -0.0130  0.2329  0.3095
10087W        W25218   9.028   4.620   0.625 -0.1291 -0.0174  0.1136
10088W        W25219  12.674   0.648   2.414  0.2247 -0.2605  0.1183
10089W        W25220   0.153   0.928  13.872  0.1786  0.1097 -0.1879
10090W        W25221  13.979  14.525  13.416 -0.1565 -0.2427  0.1296
10091W        W25222   6.947  12.635  13.337  0.1856  0.1332 -0.1517
10092W        W25223   7.075  14.787  11.166 -0.2104  0.1114 -0.2342
10093W        W25224   7.715  12.999  11.029 -0.1286  0.2781  0.0119
10094W        W25225  10.808  15.924   5.235  0.1618 -0.1154  0.1014
10095W        W25226   6.578  16.172   1.047 -0.0923  0.1987  0.4307
10096W        W25227  16.018  13.084   0.408  0.1508  0.1392 -0.1874
10097W        W25228   5.195  13.897  13.520 -0.0425  0.0870 -0.0974
10098W        W25229  17.586  13.502  13.919 -0.0132  0.0876 -0.0886
10099W        W25230   4.849  16.631   2.745 -0.1145 -0.0881  0.0088
10100W        W25231   9.491  10.655  12.007 -0.1171  0.0356 -0.3512
10101W        W25232  11.323   3.704  12.803  0.2496  0.1282  0.0602
10102W        W25233  13.556   4.169  11.954 -0.0623  0.0384  0.0402
10103W        W25234  13.983   0.654  10.558 -0.2384  0.2429 -0.1872
10104W        W25235   0.948  12.712   5.183  0.1559  0.1745 -0.3569
10105W        W25236  14.152   1.779   3.954  0.0227 -0.0474 -0.1506
10106W        W25237  12.984   6.966   5.994  0.0707 -0.2096  0.1842
10107W        W25238  17.122   2.648  14.226 -0.0405 -0.0369  0.3057
10108W        W25239  13.960   3.399   2.089  0.0934  0.0953  0.0580
10109W        W25240  16.651   1.107  15.750 -0.0084 -0.1172 -0.1506
10110W        W25241   8.484   5.344  11.680  0.1480  0.0156  0.1507
10111W        W25242  16.363  17.441   1.540  0.4678  0.2444  0.3861
10112W        W25243  17.196   1.507  13.052  0.0179 -0.1089 -0.1583
10113W        W25244   6.168   7.875   0.290 -0.0590 -0.2491  0.0613
10114W        W25245  11.315   1.865  15.434 -0.1391  0.0610  0.3238
10115W        W25246  17.004  17.089   0.736 -0.0763 -0.0434  0.0818
10116W        W25247   9.780  11.879   2.942  0.1050 -0.0415 -0.2175
10117W        W25248  10.173  14.538   4.094  0.1051  0.1791 -0.1141
10118W        W25249   0.600  10.465   4.969 -0.0403 -0.0715 -0.2621
10119W        W25250  15.241  13.887  11.854  0.1682  0.0340  0.1808
10120W        W25251  11.497   5.954   5.435  0.3111  0.0045 -0.1645
10121W        W25252  14.602   6.921  11.728  0.2441  0.1707 -0.0412
10122W        W25253   3.874   7.337  14.930  0.3435 -0.0350  0.0853
10123W        W25254   3.760  14.981   1.906  0.0556  0.0788 -0.1128
10124W        W25255  12.019   5.394   3.716 -0.0640  0.6674 -0.3203
10125W        W25256   9.374  15.014   1.413  0.0018  0.3009 -0.0907
10126W        W25257   9.211   3.820  12.482 -0.3667 -0.0279  0.0272
10127W        W25258  17.903   6.266  12.067  0.0566 -0.0766  0.1582
10128W        W25259  16.739  11.389  11.550  0.4837  0.1368 -0.0808
10129W        W25260   1.396  10.070   5.514  0.2571  0.1645 -0.0191
10130W        W25261   8.922  12.798   0.654  0.0995  0.0183 -0.0601
10131W        W25262  17.417  10.359  15.944  0.2490  0.3042  0.1001
10132W        W25263   4.558   7.722   3.746 -0.0770 -0.1046 -0.2180
10133W        W25264   9.223   9.727  12.821 -0.2546  0.1713 -0.0658
10134W        W25265  15.514  12.742   4.859  0.1282  0.1714 -0.1961
10135W        W25266  14.288   1.428   4.265  0.0195  0.0739 -0.1906
10136W        W25267   2.318   4.056   2.212 -0.3213  0.3402  0.0325
10137W        W25268  16.544   3.680  13.539 -0.0056  0.0870  0.1049
10138W        W25269  16.575  14.480   1.608 -0.3554 -0.2592 -0.1231
10139W        W25270  11.617   7.532   1.828 -0.2831 -0.0086  0.1176
10140W        W25271  12.624  10.832   3.082 -0.2254  0.0526  0.0591
10141W        W25272  16.643   9.304   3.904 -0.1359  0.0268 -0.1521
10142W        W25273  15.861  10.128  12.003  0.4128 -0.0228 -0.1153
10143W        W25274  12.411  15.999  10.969  0.2924 -0.1183 -0.1458
10144W        W25275   1.440  15.418  15.410 -0.0287 -0.0243 -0.0666
10145W        W25276   6.525  17.149   2.431 -0.3035 -0.1104 -0.2589
10146W        W25277   5.532  16.999  10.929 -0.2074  0.1939 -0.2371
10147W        W25278   8.522   1.314   2.971  0.0974 -0.1037 -0.1024
10148W        W25279   9.211   8.755   4.545 -0.1015  0.0442 -0.2782
10149W        W25280  14.266   4.050  12.321 -0.0800  0.2425 -0.1159
10150W        W25281  16.228   8.388  13.876 -0.0530  0.0394 -0.3014
10151W        W25282   2.361   5.629  15.210  0.3761 -0.0513 -0.1472
10152W        W25283   0.427  17.585  12.016 -0.1315 -0.1855 -0.0716
10153W        W25284  15.562  12.155   3.809 -0.0535 -0.0049  0.0155
10154W        W25285   9.565   7.222  11.371  0.1397  0.1160  0.5338
10155W        W25286   8.522   5.833  12.934 -0.0896  0.1504  0.1460
10156W        W25287  15.150   4.751  11.329 -0.2014 -0.2270  0.0973
10157W        W25288  16.759  15.867   2.794 -0.1410  0.0841  0.2791
10158W        W25289  17.481   5.492  13.327  0.2401  0.0541  0.2659
10159W        W25290   4.665   8.813   1.791  0.1639  0.1433  0.1829
10160W        W25291  13.162  10.576  14.169  0.0174  0.3058  0.3425
10161W        W25292  14.127   2.967   3.483 -0.1209  0.2487  0.0952
10162W        W25293   1.224  10.025   1.796  0.0756 -0.1209 -0.1671
10163W        W25294  13.544   1.288   3.251  0.1582 -0.2387  0.2136
10164W        W25295  12.451  11.357  13.967 -0.2084 -0.2006  0.2555
10165W        W25296  15.451   9.496   4.454 -0.1052  0.0004 -0.0792
10166W        W25297  16.257  14.187   1.345 -0.1389  0.2180  0.0474
10167W        W25298   4.697  16.902  12.242 -0.0104 -0.0005 -0.2035
10168W        W25299   7.740  18.072  15.164 -0.2106  0.0048 -0.2553
10169W        W25300   4.120   9.295  14.523  0.1651  0.2205  0.0026
10170W        W25301   6.063   8.821  14.182 -0.0706  0.0065 -0.1386
10171W        W25302   1.094  10.391   1.501  0.1602  0.3853 -0.0040
10172W        W25303   9.088  17.394  15.638  0.0388  0.1895  0.0438
10173W        W25304   4.139   8.301  16.160 -0.1971  0.0464 -0.0859
10174W        W25305  17.471  15.467   2.143  0.0138 -0.1290 -0.0054
10175W        W25306   1.179   7.799   2.563  0.0900 -0.0911  0.2320
10176W        W25307   6.652   1.404  16.077  0.1850  0.1000 -0.0185
10177W        W25308   2.784   4.612   5.230  0.0368  0.1950  0.1439
10178W        W25309   8.430   8.629   2.472  0.2706  0.1226  0.4832
10179W        W25310   9.816  17.201  15.773  0.3179 -0.2361 -0.0815
10180W        W25311  12.542   0.686   1.968  0.2225  0.2708  0.1384
10181W        W25312  11.061  17.707  14.570 -0.2876  0.2772  0.0218
10182W        W25313   7.938  11.835  12.096  0.0246 -0.0761  0.0261
10183W        W25314  11.763   1.472  13.341  0.1156 -0.1875 -0.1088
10184W        W25315  13.574  17.071  11.185  0.1133 -0.1041  0.0485
10185W        W25316   4.337   4.454  11.321  0.0627  0.1875 -0.2192
10186W        W25317   5.243  15.986  11.217 -0.2269  0.2658 -0.4039
10187W        W25318  15.915   8.382  12.380 -0.2185 -0.0629 -0.1451
10188W        W25319   0.008  15.450  13.756  0.2519 -0.0334  0.0276
10189W        W25320   2.971  16.509  15.543 -0.0448 -0.2222 -0.0364
10190W        W25321   0.205  14.873  14.449  0.0857 -0.1101  0.4748
10191W        W25322  14.813  14.113   4.725 -0.1652 -0.0839  0.3145
10192W        W25323   2.564  11.662   1.425  0.3309 -0.1946 -0.1403
10193W        W25324   2.010   2.395   2.233  0.2349  0.0697  0.1205
10194W        W25325   1.233  11.785   3.860 -0.0780  0.2843  0.2631
10195W        W25326   1.758  16.694  15.977 -0.0335 -0.1809 -0.0981
10196W        W25327   2.021   1.214  14.363 -0.1370 -0.1509  0.1975
10197W        W25328  12.004   9.868  14.445  0.1703  0.0833 -0.0352
10198W        W25329  10.662   8.776   9.921  0.0031  0.0548 -0.0150
10199W        W25330   6.742  13.343  14.588 -0.0823 -0.2035  0.0805
10200W        W25331   8.044  17.555   3.465  0.1550 -0.0149  0.0019
10201W        W25332   0.634   4.455   3.198  0.0635  0.3439  0.1502
10202W        W25333   7.290   8.526  13.151 -0.1526  0.0488 -0.4016
10203W        W25334   2.810   0.485  12.221  0.0661  0.0866  0.1750
10204W        W25335   9.471  17.276  14.303  0.0672 -0.0789  0.1940
10205W        W25336  12.359  12.119   0.005  0.5155  0.1288 -0.1023
10206W        W25337   0.985   2.250   4.727  0.0705 -0.1000  0.0185
10207W        W25338  12.481   5.341   0.071  0.0092  0.2483 -0.0034
10208W        W25339   8.044  17.932   5.393 -0.1459  0.0769  0.0525
10209W        W25340  13.355  10.949  13.189  0.1458 -0.2838  0.0702
10210W        W25341  10.047   9.497  15.342  0.0479 -0.0248 -0.1619
10211W        W25342  13.968   4.478   2.851  0.3133  0.0479 -0.0626
10212W        W25343  17.207  10.228   2.900 -0.0932 -0.0502  0.1464
10213W        W25344  12.797  15.136  16.026 -0.0789  0.0452  0.0589
10214W        W25345  12.905   9.822  15.731  0.3324  0.0691 -0.4596
10215W        W25346   3.232   2.284   1.356  0.0110  0.0163  0.0138
10216W        W25347   5.638  17.833   9.970 -0.1649 -0.0388  0.1017
10217W        W25348   5.275   2.204  12.163  0.1361 -0.3747 -0.1640
10218W        W25349   4.183  15.641   2.279  0.0967 -0.1799  0.3847
10219W        W25350   4.159   6.257  15.061 -0.4189 -0.2767  0.1654
10220W        W25351   2.296  15.147  10.519  0.3251 -0.0780  0.1607
10221W        W25352   8.453   9.954   0.816  0.1612  0.0105  0.1135
10222W        W25353   2.553   9.270  10.306  0.1904 -0.0720 -0.0187
10223W        W25354   0.786   2.899   0.509  0.2642  0.2050 -0.1825
10224W        W25355  15.105   0.785  14.628 -0.4842  0.0877 -0.1203
10225W        W25356   3.256  12.236   0.660 -0.2043 -0.0559 -0.0525
10226W        W25357   0.062  16.481  12.817 -0.0379  0.2690  0.0556
10227W        W25358   9.667   1.089  13.271  0.0524 -0.0902  0.1132
10228W        W25359   8.253  14.796  12.690 -0.0220  0.0235 -0.1255
10229W        W25360   4.390  10.276   4.826 -0.3026  0.0063 -0.1323
10230W        W25361  13.690   1.634  12.542  0.3137  0.0111  0.1248
10231W        W25362  10.828   2.740   3.244  0.1677  0.4641 -0.1991
10232W        W25363   7.916   8.780  15.388  0.0689  0.0546 -0.0637
10233W        W25364   6.022   7.683  12.825  0.0764  0.0077 -0.0692
10234W        W25365   6.633  11.999   4.075  0.0199 -0.0069 -0.0956
10235W        W25366  15.106  15.481  13.446 -0.0537 -0.3178  0.3347
10236W        W25367  13.222  16.567   1.192 -0.1070 -0.1974  0.0762
10237W        W25368   3.234  11.697  10.822 -0.0143 -0.2086  0.0816
10238W        W25369   3.477   0.588   0.465 -0.1397  0.0059  0.2323
10239W        W25370   6.167   0.087  15.069 -0.2679 -0.0366  0.0985
10240W        W25371   9.938   0.472   0.979 -0.2990 -0.2767  0.3231
10241W        W25372  14.845   1.873  13.290 -0.0983  0.0091  0.0108
10242W        W25373   1.279  13.186  14.185 -0.1166  0.2727 -0.4037
10243W        W25374  14.355   2.818  13.721 -0.0240 -0.3315  0.2526
10244W        W25375  11.201  17.137  10.693  0.2354 -0.0043 -0.1916
10245W        W25376   8.377   3.697  14.185 -0.2185 -0.2059 -0.0329
10246W        W25377  14.022  14.986   4.647  0.5085  0.2549  0.0484
10247W        W25378   1.131   2.344   2.405 -0.2267  0.0024  0.0212
10248W        W25379  11.585  11.273   1.651  0.0118  0.2830  0.1278
10249W        W25380   6.530  14.911  14.916  0.4069 -0.0431 -0.0402
10250W        W25381  11.611   9.972   1.150 -0.0134  0.0065  0.0504
10251W        W25382   2.202  12.693  10.892 -0.0533  0.0257  0.1274
10252W        W25383   1.565  13.771   1.842 -0.1957  0.2844 -0.3260
10253W        W25384   3.288  10.671   2.689  0.1079 -0.2320 -0.1008
10254W        W25385   0.231   3.444   2.048  0.2239  0.0916 -0.0897
10255W        W25386   9.868  15.078  12.190  0.1341  0.1141 -0.2172
10256W        W25387  11.764  11.956  12.750 -0.3380  0.1174 -0.0095
10257W        W25388  17.568   4.572  14.691  0.1433 -0.4264 -0.0771
10258W        W25389   5.517  17.661   1.490 -0.0939  0.0782 -0.1538
10259W        W25390  15.470   9.741   5.656  0.1888 -0.1713  0.0487
10260W        W25391   2.979   2.159   4.989 -0.0445  0.0591  0.1951
10261W        W25392   1.441  14.606   1.906 -0.1964 -0.2195  0.0633
10262W        W25393   2.558   9.180  13.051  0.1193  0.0847 -0.0488
10263W        W25394   0.550   3.439   1.030 -0.2224 -0.4338 -0.0598
10264W        W25395  13.850   8.493  11.966 -0.0913  0.4204  0.1030
10265W        W25396   3.202   0.055  15.688 -0.1116 -0.3136 -0.1795
10266W        W25397  17.954   7.974  12.327  0.0872  0.2438  0.1131
10267W        W25398  14.030   3.150   2.973 -0.2052  0.0081  0.0848
10268W        W25399   9.300   4.770  14.135 -0.2204 -0.0758  0.1215
10269W        W25400   1.450  12.930   0.097  0.1599  0.3163 -0.1509
10270W        W25401  10.248  15.333   4.085 -0.1359 -0.0557  0.1840
10271W        W25402   6.684   0.271  12.212 -0.1780  0.1612  0.0707
10272W        W25403  17.845   5.350   5.113 -0.1146 -0.1544  0.0745
10273W        W25404   0.213   4.002  15.621 -0.1129 -0.1974  0.1014
10274W        W25405  16.523  10.500  15.634 -0.0123 -0.2147 -0.1167
10275W        W25406  14.668   1.104   1.469 -0.0175 -0.0134 -0.0043
10276W        W25407  11.060   7.075   4.619  0.1817  0.3946 -0.1290
10277W        W25408  14.893  17.448   2.022 -0.0448 -0.0411  0.0049
10278W        W25409   2.933  18.031  13.876 -0.3269 -0.0598 -0.0238
10279W        W25410  18.070   1.542  15.534 -0.0769  0.0499 -0.3585
10280W        W25411   8.954   5.580  13.131 -0.0840  0.0792  0.0976
10281W        W25412   7.085  10.099  15.529  0.1634 -0.2408  0.1198
10282W        W25413  13.576  14.125  15.242 -0.1054  0.1096 -0.0910
10283W        W25414   8.725   4.189   4.242  0.4312  0.2922 -0.0335
10284W        W25415   3.218   1.901   0.053 -0.2558 -0.1560 -0.0089
10285W        W25416  16.019  16.259  15.962  0.0107  0.2365  0.0198
10286W        W25417  14.942  13.116   5.703  0.1825 -0.0119  0.3808
10287W        W25418   1.256   5.295  12.054 -0.2039  0.0432  0.0021
10288W        W25419   9.353  12.736   2.407 -0.0511  0.0307 -0.0568
10289W        W25420   9.390   6.914  15.977 -0.2538  0.2464 -0.2113
10290W        W25421  14.498  16.071   2.083  0.0456 -0.1300  0.0123
10291W        W25422   0.186   0.675  12.943  0.1177  0.0144  0.1453
10292W        W25423   4.415  15.678   1.248  0.3694 -0.0453 -0.3268
10293W        W25424  17.432   8.076   0.872  0.1722  0.0007  0.0715
10294W        W25425  12.964  15.926  11.682  0.2782  0.1225  0.1287
10295W        W25426   4.935  17.688  12.080  0.1313 -0.0621 -0.2345
10296W        W25427  17.528   9.634   1.561 -0.2457 -0.0710 -0.1315
10297W        W25428   2.241   1.853  15.582  0.0960 -0.0645 -0.1022
10298W        W25429   3.612  16.654  14.931  0.2584  0.2392 -0.2162
10299W        W25430  14.200   6.173  14.047 -0.0165 -0.2076  0.1638
10300W        W25431  13.273   6.213  12.006  0.0833  0.0510 -0.2132
10301W        W25432   6.515   5.856  13.833  0.0225  0.0375  0.1693
10302W        W25433   8.359   0.743  15.821 -0.0681  0.4112 -0.1562
10303W        W25434   0.363  14.302   3.106 -0.0524  0.0962  0.0004
10304W        W25435   1.443  11.016   0.243  0.1125  0.0679  0.0667
10305W        W25436   5.222  11.917  13.486 -0.1105  0.0150 -0.2615
10306W        W25437   9.792   7.998  16.146  0.0389 -0.1936 -0.2371
10307W        W25438  15.880  15.347   4.819  0.2016  0.1073  0.0364
10308W        W25439  10.951   7.630   5.073 -0.0988 -0.0743 -0.0107
10309W        W25440   5.970   5.369   1.879  0.0319  0.1798 -0.0769
10310W        W25441   7.854   5.540   3.411 -0.0999  0.4554 -0.0770
10311W        W25442  10.512  11.285  13.102 -0.5146  0.0686 -0.1681
10312W        W25443   0.270   1.456   1.618 -0.0688 -0.1332 -0.0072
10313W        W25444   4.887   4.119  13.000 -0.2693 -0.1009  0.2226
10314W        W25445   3.921   7.445   4.718  0.0438 -0.1330 -0.0946
10315W        W25446   6.833   4.473  12.625 -0.2343 -0.3794 -0.1968
10316W        W25447   2.156  17.960  12.593 -0.1611 -0.0304 -0.0293
10317W        W25448   9.537   9.087   4.341 -0.3544 -0.1981 -0.3009
10318W        W25449   6.993   9.284   1.113  0.3222 -0.2166  0.1535
10319W        W25450   9.975  17.715   4.817  0.2577  0.1705 -0.0108
10320W        W25451   2.040  11.624   1.399  0.1037 -0.0278 -0.0962
10321W        W25452   1.227  15.990   2.078 -0.0970 -0.0951 -0.2543
10322W        W25453  17.958  15.511   5.285  0.0171  0.3289  0.1776
10323W        W25454  15.509   6.602  10.762 -0.1365  0.3976 -0.3091
10324W        W25455   5.160   1.152   2.980  0.0760 -0.0642 -0.2247
10325W        W25456  14.411  15.901  11.820  0.1461 -0.0041  0.1318
10326W        W25457   9.102   4.334   2.823 -0.0381  0.2141 -0.1105
10327W        W25458   0.048   2.676   4.853 -0.0520  0.1577  0.0254
10328W        W25459   1.636   4.106   5.156  0.0905  0.1434  0.0098
10329W        W25460   3.274  13.624   2.351 -0.0298  0.0339 -0.1283
10330W        W25461  16.720   5.823   3.001  0.3483  0.2389 -0.0128
10331W        W25462   4.290   2.393  12.574  0.1312 -0.0083 -0.0965
10332W        W25463   4.748   8.133   2.727 -0.1198  0.0228 -0.0094
10333W        W25464   8.417   1.379   1.134  0.1637  0.0145  0.0534
10334W        W25465   3.026  14.792  11.437 -0.2127 -0.1151  0.0334
10335W        W25466  13.920  13.246   0.333  0.0208 -0.0517  0.0230
10336W        W25467  15.247   1.997  15.068 -0.1852 -0.2506  0.3235
10337W        W25468  17.808   4.948   2.723 -0.0164  0.3561  0.1386
10338W        W25469   1.583  17.807   1.197  0.3518  0.3092 -0.0086
10339W        W25470   8.951   2.449  14.482  0.0835 -0.0862 -0.3148
10340W        W25471   8.158  13.167  11.835 -0.1506  0.2041  0.3447
10341W        W25472   6.489   3.129   5.489 -0.0695  0.1813 -0.1667
10342W        W25473   3.950  14.694  12.670 -0.0754 -0.2905 -0.2841
10343W        W25474   9.936  11.706  11.204 -0.0585 -0.0604  0.2716
10344W        W25475  12.444   5.488   3.412 -0.1391 -0.0005 -0.1302
10345W        W25476  11.805  10.976  11.928 -0.0379 -0.0799  0.0694
10346W        W25477  15.176  14.168   4.288  0.0122 -0.0060  0.2657
10347W        W25478  16.075  11.749  12.714  0.1400  0.0780  0.1559
10348W        W25479  15.518   1.449  11.232 -0.1226 -0.1323  0.2541
10349W        W25480  13.621   7.097   1.746 -0.0667  0.4138  0.1157
10350W        W25481  14.251   0.483   4.013 -0.1474  0.1394  0.1523
10351W        W25482   8.248   2.974  12.908 -0.1306  0.0023 -0.1749
10352W        W25483   5.405  13.954   2.448  0.1133 -0.2086 -0.1505
10353W        W25484   9.085  13.212   5.514 -0.0852  0.0767  0.0511
10354W        W25485   6.401   4.797   0.312  0.1177  0.1408 -0.4577
10355W        W25486   0.193  14.342   5.267  0.0382  0.2913 -0.2246
10356W        W25487   5.882  12.601  13.756 -0.0301  0.2024 -0.0122
10357W        W25488  12.246  14.889  13.582  0.0485  0.2053  0.0355
10358W        W25489   4.341  11.107  12.786 -0.0419  0.0220 -0.2037
10359W        W25490   8.053   0.716  11.991  0.1863 -0.1095  0.2502
10360W        W25491   8.121   3.322   5.996  0.0751 -0.0512  0.2634
10361W        W25492   4.434   3.512  11.238 -0.0070 -0.0392  0.2847
10362W        W25493  16.907   4.219   1.890 -0.0430  0.1334  0.0286
10363W        W25494   7.004   5.954  13.957  0.0798 -0.1945 -0.2287
10364W        W25495  10.229  13.796   6.078 -0.1119  0.4035 -0.1978
10365W        W25496  16.309   6.361  12.172 -0.3037 -0.1373 -0.0851
10366W        W25497   0.398   4.627  11.836 -0.0752 -0.0062 -0.1843
10367W        W25498  17.142  13.320   2.736  0.0930  0.0899  0.0063
10368W        W25499   1.766  14.269  14.977 -0.2956  0.0814 -0.3027
10369W        W25500  10.875   5.788   1.729 -0.0030  0.0476  0.2285
10370W        W25501   9.435   7.400  11.814 -0.0068  0.1781  0.0678
10371W        W25502   7.003  14.157   4.740  0.1071  0.0529  0.1722
10372W        W25503   6.746   5.012  12.915  0.1622 -0.1747 -0.0351
10373W        W25504   0.465  17.312  15.121 -0.0196  0.1743  0.1331
10374W        W25505  11.014  18.020  14.176 -0.0695  0.1587  0.0294
10375W        W25506  12.141   7.925   5.987 -0.3203 -0.1493 -0.1932
10376W        W25507   1.688  14.667  11.157  0.0764 -0.0855  0.2272
10377W        W25508   0.451  15.403   0.079  0.0302  0.1209  0.0877
10378W        W25509   9.404   0.326  12.610 -0.2409 -0.1257 -0.1075
10379W        W25510   7.177   9.071   2.974  0.2354  0.2133 -0.0559
10380W        W25511   4.349   8.194   4.877 -0.1979 -0.2078  0.0857
10381W        W25512  11.699  15.925  13.902  0.0822  0.0849  0.1857
10382W        W25513  12.156  13.922   0.021 -0.2280  0.1472  0.2270
10383W        W25514  13.024   9.551  14.415 -0.0632 -0.1110  0.0576
10384W        W25515  10.037   9.817   1.389  0.3416  0.3578  0.2826
10385W        W25516  16.363   7.121   4.128 -0.0791  0.0756  0.0913
10386W        W25517   1.991  10.544   4.404  0.2794 -0.0646  0.0562
10387W        W25518  17.242   8.642  13.279 -0.1843  0.1534 -0.0834
10388W        W25519  13.966  14.374  11.665  0.1560 -0.0200  0.2951
10389W        W25520   2.965   0.507  15.667  0.0070  0.2462 -0.1082
10390W        W25521  13.742   0.836   0.515  0.1089  0.0384 -0.1538
10391W        W25522   0.584  12.451   3.222  0.1898  0.0268  0.0401
10392W        W25523  10.925  15.976  10.051  0.0660 -0.1564 -0.2571
10393W        W25524  14.202   4.681  14.375 -0.2360  0.3586  0.1938
10394W        W25525   1.863   4.668   2.130 -0.2218 -0.2631  0.0423
10395W        W25526   7.188   0.314  12.229  0.1712  0.0045 -0.1981
10396W        W25527  15.440  17.093   3.149  0.0156  0.1504 -0.0241
10397W        W25528   9.412   5.959   5.128  0.0616 -0.0218 -0.2730
10398W        W25529  14.990   7.923   5.594 -0.1897  0.2935  0.1343
10399W        W25530   2.551   8.680   3.537 -0.0075 -0.0073 -0.3343
10400W        W25531  16.975  10.318   1.480 -0.1566 -0.2069 -0.0428
10401W        W25532  10.146  12.543  12.148 -0.2838  0.0094  0.2121
10402W        W25533  16.468   7.381   4.544  0.0902  0.1259  0.0752
10403W        W25534   5.110   7.855  11.205  0.2693 -0.4007  0.2811
10404W        W25535   3.114  12.032  13.442  0.1920 -0.1684 -0.0157
10405W        W25536  17.546  17.052   0.804 -0.2645 -0.1340  0.0904
10406W        W25537   6.738  18.015  14.900  0.0643  0.0365 -0.0828
10407W        W25538   5.591   0.616   4.477 -0.2286 -0.1303 -0.0408
10408W        W25539   7.242   3.465  14.861  0.1543  0.2176 -0.1721
10409W        W25540   7.325  16.921   3.179  0.4152 -0.0511  0.0692
10410W        W25541  12.496   7.781  11.259 -0.1814 -0.0285  0.0132
10411W        W25542  11.833  14.628   0.173  0.0910  0.3026  0.0935
10412W        W25543   0.770   0.839  10.083 -0.0277  0.3650 -0.2369
10413W        W25544  11.528   3.590  12.226 -0.2825  0.1321  0.1024
10414W        W25545  16.654  16.670   9.785 -0.0072  0.1064 -0.0411
10415W        W25546  18.036   1.691   5.163 -0.0868 -0.2463 -0.0555
10416W        W25547  17.225   5.339  13.761  0.0764  0.2469 -0.3114
10417W        W25548  11.850   6.340   3.703  0.0222  0.1802 -0.0941
10418W        W25549  16.217   5.295   1.848  0.1484  0.4038 -0.0310
10419W        W25550  14.674  13.768  11.726 -0.1678 -0.2928 -0.2657
10420W        W25551   6.381   5.890   4.094  0.0598 -0.2015  0.1540
10421W        W25552  11.919  12.796  14.961 -0.0213  0.1929  0.3419
10422W        W25553  16.406  15.859   2.400  0.0673  0.1911 -0.1889
10423W        W25554  17.638   3.434   2.605  0.0611 -0.0536 -0.1218
10424W        W25555   9.358  13.266  16.213 -0.0727 -0.0880  0.3580
10425W        W25556   1.152  15.074  11.795  0.0562 -0.2469  0.0760
10426W        W25557   2.017   1.227  11.413 -0.1920 -0.0841  0.2127
10427W        W25558   4.903  10.695   3.730 -0.0837 -0.0698 -0.0012
10428W        W25559  12.045  17.681   2.795  0.1643 -0.1361 -0.0567
10429W        W25560   8.367   6.221  12.495  0.0931  0.0632  0.2963
10430W        W25561   3.219   3.423   5.138  0.1550  0.0721  0.1496
10431W        W25562  11.640  17.992  13.554  0.0519  0.0229  0.1864
10432W        W25563  11.747   0.264  11.075 -0.3070 -0.0608  0.1470
10433W        W25564   6.231  15.746  15.621  0.0489 -0.1926  0.1410
10434W        W25565   4.869  16.626  15.217  0.2131  0.0619 -0.1475
10435W        W25566   3.818   1.816   0.289  0.0869 -0.2248  0.1494
10436W        W25567   6.362   2.299  14.915 -0.0672  0.3518 -0.0728
10437W        W25568  14.779   5.946   0.927  0.0955  0.0818  0.0895
10438W        W25569  13.139  15.544   1.459 -0.0299 -0.2431  0.2055
10439W        W25570  15.538   8.087  12.179 -0.1317 -0.2608 -0.0853
10440W        W25571   0.457  14.530  12.400 -0.1449  0.0893 -0.1382
10441W        W25572   7.538  12.555   1.599  0.3106 -0.0062  0.4166
10442W        W25573  13.684  11.183  11.884  0.0718 -0.0524  0.0726
10443W        W25574  11.350  12.077  16.228  0.0820  0.0639  0.2102
10444W        W25575   9.111  12.877  16.012  0.0330  0.0587  0.2001
10445W        W25576   9.565   6.810   1.330 -0.1157  0.3995 -0.1852
10446W        W25577   0.049  13.565  15.973  0.1989  0.0938 -0.1351
10447W        W25578   4.002   7.778  11.714 -0.0773  0.1512  0.1437
10448W        W25579  14.713  17.227  14.395 -0.0624 -0.0474  0.0271
10449W        W25580  13.368   5.664  15.854  0.1357 -0.0185 -0.3777
10450W        W25581   6.806  14.928  12.722  0.1348  0.1978 -0.1005
10451W        W25582   5.307   0.906   2.131 -0.1257  0.1371 -0.0843
10452W        W25583   6.989  11.270  14.172 -0.0506 -0.1336  0.0436
10453W        W25584   7.943   3.667   0.935  0.1343  0.1125  0.2794
10454W        W25585   5.957  11.726   2.710 -0.2967 -0.0947 -0.0153
10455W        W25586  17.015  16.393  13.688  0.0790  0.0890 -0.0833
10456W        W25587  16.055  13.477   2.431 -0.0147 -0.1529  0.0410
10457W        W25588   4.025  16.474   2.510 -0.2238 -0.1418  0.0663
10458W        W25589   9.798   6.356  16.158 -0.0912 -0.0674  0.0280
10459W        W25590   0.092   9.334  13.730 -0.1587 -0.2467 -0.5397
10460W        W25591  17.978   0.618  13.477 -0.0300 -0.2247  0.0408
10461W        W25592  15.309   6.563   2.391 -0.2230  0.0149 -0.0060
10462W        W25593  13.295   9.144  12.288  0.0212 -0.2995  0.0209
10463W        W25594  16.230  13.079  10.182 -0.2416  0.2649 -0.0941
10464W        W25595  13.948   0.831   4.158  0.0482 -0.0989 -0.0912
10465W        W25596  15.241   8.489   2.327  0.1777  0.2059  0.1960
10466W        W25597  12.850   2.290   1.356 -0.0689  0.0768 -0.2679
10467W        W25598  13.516  17.826   1.450 -0.1285 -0.1059 -0.0807
10468W        W25599   6.220   8.092  12.481  0.4245 -0.1772  0.1792
10469W        W25600   1.078   0.202  11.806 -0.0273 -0.3319  0.1779
10470W        W25601   0.995   0.402  11.359 -0.0887  0.1593 -0.1525
10471W        W25602  15.384   1.105  12.435 -0.3711 -0.1514  0.0974
10472W        W25603   0.264   7.604  15.454 -0.3176  0.4795 -0.4428
10473W        W25604  12.470  12.154   3.266 -0.2994  0.1521  0.1340
10474W        W25605  11.700   8.425  13.844 -0.0074 -0.1336  0.1457
10475W        W25606   9.159  14.640  10.812  0.0990  0.0104 -0.0043
10476W        W25607   7.457   1.384   4.243  0.0275  0.0943 -0.2404
10477W        W25608  15.098   7.542  14.799  0.1876  0.1467 -0.1179
10478W        W25609  17.894  10.640   3.460 -0.4079 -0.0649 -0.0928
10479W        W25610   7.480   9.044  15.136 -0.2165 -0.1497 -0.2490
10480W        W25611   0.790   6.839   3.498 -0.1071  0.1786 -0.1883
10481W        W25612   8.798   1.101  10.928  0.2572 -0.0797 -0.1955
10482W        W25613   2.668   4.113   5.479 -0.0007  0.1034 -0.0701
10483W        W25614  11.386   4.504   3.283  0.0669  0.1699  0.3376
10484W        W25615   7.622  13.989   5.915  0.2871 -0.1960  0.1016
10485W        W25616   7.703  13.790   0.635 -0.1928  0.0254 -0.0488
10486W        W25617   0.449   5.626  12.385 -0.4238 -0.1305  0.1272
10487W        W25618   7.568  14.717   0.690 -0.2983  0.3029  0.1857
10488W        W25619   9.658   5.127   1.242 -0.1862 -0.0855  0.2962
10489W        W25620   6.091  11.782  10.731  0.0150  0.3120  0.0136
10490W        W25621  15.500  13.706  12.810  0.0505  0.1737 -0.0153
10491W        W25622   4.461  17.019  14.525 -0.0349  0.0535 -0.2615
10492W        W25623  15.540   8.348  15.362  0.3100  0.2235  0.1876
10493W        W25624   1.943   6.306  13.425 -0.3483 -0.1369  0.0621
10494W        W25625   2.808  16.604  13.376 -0.0925  0.3105 -0.2291
10495W        W25626   3.770  11.757  14.526 -0.0829 -0.0705 -0.0911
10496W        W25627  14.711   7.606   4.343  0.1168  0.3412 -0.2315
10497W        W25628  15.663  12.664  14.681  0.1156  0.0358  0.0967
10498W        W25629  16.369  16.673   1.132  0.0279 -0.1680  0.2590
10499W        W25630   2.300  17.455   3.282  0.3699 -0.0933 -0.0164
10500W        W25631  10.165   8.659   5.798  0.1508 -0.3639 -0.1141
10501W        W25632  12.285   5.876   3.656  0.1502 -0.1744  0.0573
10502W        W25633   1.129  12.788  13.732  0.1479  0.2645  0.1286
10503W        W25634   4.350   4.624   5.812  0.2190 -0.0091 -0.0047
10504W        W25635  12.508  12.594   1.703 -0.3543  0.0708 -0.2489
10505W        W25636   8.046   6.576  14.211  0.1045  0.1282  0.1463
10506W        W25637   3.248  15.496   0.115 -0.1336  0.0987  0.1937
10507W        W25638   9.610  11.374   2.272 -0.0540 -0.3143  0.1318
10508W        W25639   9.347  17.276   3.716 -0.0019 -0.0450 -0.2536
10509W        W25640   2.938   2.086   1.010  0.1099 -0.0835  0.0774
10510W        W25641   7.444  15.932  12.094  0.1219  0.0248 -0.0389
10511W        W25642   3.105  10.064   5.806 -0.1942 -0.0918  0.2848
10512W        W25643   8.110  16.125  16.220  0.2139  0.4242 -0.3793
10513W        W25644   5.844   3.994  14.556 -0.0319  0.4501 -0.2264
10514W        W25645  13.142  15.264   0.572  0.1605  0.0667  0.1085
10515W        W25646   0.537   1.190  13.074 -0.2206 -0.0211 -0.0034
10516W        W25647  15.222   2.548  12.927  0.0090  0.4622 -0.1906
10517W        W25648   2.468  17.111  13.392 -0.0500  0.2207  0.0738
10518W        W25649   7.497  11.249   4.147  0.0003  0.0601 -0.2811
10519W        W25650   1.712   5.164  12.934 -0.2679  0.0191  0.0306
10520W        W25651   2.088   5.839   2.990  0.2784  0.0955  0.0038
10521W        W25652   6.648  10.985   4.014  0.1870  0.3123  0.2195
10522W        W25653   0.116  14.706   5.633  0.0542 -0.0469  0.1763
10523W        W25654   7.394   8.888   0.325  0.0489 -0.2631 -0.0396
10524W        W25655  13.608  14.715   4.421 -0.2972  0.1480  0.1361
10525W        W25656   1.883   4.399  15.188  0.2805 -0.1021  0.0352
10526W        W25657  15.471  10.748   0.454 -0.0774  0.0863 -0.0946
10527W        W25658  12.941   3.722   0.954 -0.1680 -0.2257 -0.0753
10528W        W25659   0.091  17.276  11.785  0.2710  0.0654 -0.1404
10529W        W25660   6.947   7.691  12.959  0.0452  0.0049  0.1782
10530W        W25661   3.686   7.452   1.389 -0.0496 -0.0900 -0.0371
10531W        W25662  17.049  12.832   2.774  0.3041 -0.2256  0.2319
10532W        W25663   9.555  16.800  15.978  0.1036 -0.1891  0.0189
10533W        W25664   3.577   0.179  11.543  0.3110 -0.2202  0.0720
10534W        W25665   2.116  16.078  11.484 -0.1517 -0.2925 -0.0525
10535W        W25666   2.387   0.380  13.333  0.0229 -0.3065 -0.1199
10536W        W25667  13.202  16.110   5.155 -0.1423  0.2764 -0.1512
10537W        W25668   1.256   4.689  13.766  0.0023 -0.3576 -0.0536
10538W        W25669   8.684  16.645  15.137 -0.0665  0.1543  0.1296
10539W        W25670  18.057   9.938   3.213  0.1999  0.0749  0.0757
10540W        W25671  15.593  14.193   3.211  0.1138 -0.0422  0.1756
10541W        W25672   3.452  12.195  14.632  0.0679  0.2786  0.1689
10542W        W25673   4.575   0.086  15.970 -0.1172  0.0039 -0.1186
10543W        W25674   1.534  14.029  15.801 -0.2228  0.1698 -0.1104
10544W        W25675   4.162  12.822   0.878 -0.0292  0.0107  0.1874
10545W        W25676  16.330  12.725  13.043 -0.0723 -0.1389 -0.2242
10546W        W25677   6.371   7.094  12.303  0.2275 -0.1859 -0.0658
10547W        W25678   8.863   1.634   3.902 -0.0550  0.2029  0.0873
10548W        W25679  14.914  15.264   3.559 -0.2134  0.2653  0.0639
10549W        W25680   5.812   5.623  15.731  0.0087 -0.2095 -0.1606
10550W        W25681   2.189   4.978  14.569 -0.1317 -0.1744  0.0105
10551W        W25682   9.314  16.183   0.372 -0.1816 -0.0092 -0.0121
10552W        W25683   6.243   2.490   3.264 -0.0909 -0.0521 -0.0716
10553W        W25684   5.987   7.226   1.494  0.2083  0.1232  0.0876
10554W        W25685   8.514  15.876  14.832  0.2600 -0.0092 -0.4523
10555W        W25686   9.014  17.234  10.731 -0.3201  0.0920 -0.2399
10556W        W25687   4.447  12.916  15.157  0.4653  0.0843  0.0257
10557W        W25688   1.416   8.591  13.767 -0.2574 -0.1330  0.0964
10558W        W25689  14.639  13.176  12.327  0.2829 -0.0747  0.1091
10559W        W25690   6.106   4.081  16.016 -0.1605 -0.2268  0.0791
10560W        W25691  10.071  10.621  15.998  0.0172 -0.0027  0.0787
10561W        W25692  16.593  12.862  14.983 -0.0661  0.2794 -0.2622
10562W        W25693   2.503  17.670  14.560 -0.1903  0.0017  0.1885
10563W        W25694   2.667   2.791   3.123  0.0693 -0.2341 -0.2380
10564W        W25695   5.585   2.726  12.532  0.0708  0.1457 -0.1914
10565W        W25696  12.218   9.854  12.818 -0.1778  0.0631  0.3792
10566W        W25697   1.062   9.019   1.500 -0.0669  0.2363 -0.0810
10567W        W25698   1.812  10.969   5.027 -0.2207  0.0551  0.1962
10568W        W25699   9.882  15.434  12.549 -0.4467  0.3654 -0.0637
10569W        W25700  11.202   6.563   4.709 -0.2382 -0.1238 -0.0547
10570W        W25701   5.022   3.827  16.075  0.3230 -0.0881 -0.1784
10571W        W25702  17.908   5.429  14.569 -0.0921 -0.2100 -0.0009
10572W        W25703   5.103   9.098   2.702 -0.1511 -0.2734  0.0595
10573W        W25704   9.193   2.127   6.029 -0.0670  0.1736 -0.0469
10574W        W25705   7.291  16.635  12.269 -0.2640 -0.2293 -0.2888
10575W        W25706  13.555   0.770  11.284  0.0485 -0.0408  0.0948
10576W        W25707  13.661   3.119   1.648  0.0662 -0.0715  0.1721
10577W        W25708  14.338   1.451   2.152  0.0338 -0.0395  0.0862
10578W        W25709  11.359  14.832   5.431  0.2080 -0.0934 -0.0574
10579W        W25710  16.673  11.740   4.306 -0.1873  0.1382 -0.4998
10580W        W25711   2.613  14.611  12.626 -0.0100 -0.1605 -0.3080
10581W        W25712   6.838   0.125   0.485 -0.0263 -0.1060  0.0809
10582W        W25713  12.734   6.309   1.448 -0.1428  0.0178  0.0143
10583W        W25714   9.895   4.632   2.141 -0.0022 -0.0397 -0.0934
10584W        W25715  12.081  15.731  14.957 -0.2106 -0.2512 -0.0339
10585W        W25716  12.112   7.505   1.908 -0.1858 -0.1102  0.1787
10586W        W25717   1.893   8.064  14.747  0.3713 -0.2575 -0.1897
10587W        W25718  16.371  14.555   3.843 -0.0717  0.1827  0.0865
10588W        W25719  14.199  12.831  16.207  0.2796  0.0499 -0.0175
10589W        W25720   8.738   5.871   1.175 -0.2150 -0.3024 -0.0051
10590W        W25721   4.612   8.461   2.192 -0.2193 -0.1298 -0.1624
10591W        W25722   7.456   1.682  13.436  0.2661 -0.0166 -0.3117
10592W        W25723  10.594  10.292  12.874  0.1681 -0.2135 -0.0524
10593W        W25724  15.602  13.202   5.066  0.2554  0.0957 -0.0288
10594W        W25725   2.760  14.559   5.321 -0.3315  0.1685 -0.0648
10595W        W25726   0.988  12.578   6.034  0.0431  0.0274  0.0371
10596W        W25727  15.913   5.292  12.063 -0.2574 -0.1073 -0.2353
10597W        W25728   7.588  13.937  10.310 -0.1991 -0.0693 -0.2275
10598W        W25729   5.127  10.209  12.346 -0.0858  0.1755 -0.2260
10599W        W25730   6.112   0.491   3.777 -0.0376  0.2499 -0.1977
10600W        W25731   5.132  11.785   5.107  0.2040 -0.0103 -0.2427
10601W        W25732  11.161   6.714   4.218 -0.2291  0.2107 -0.3547
10602W        W25733   7.305  13.296  14.822 -0.0464  0.0692 -0.1944
10603W        W25734   5.256  11.660  13.995 -0.5151  0.1949  0.0241
10604W        W25735  17.982   5.717   2.117  0.0934 -0.2202  0.0033
10605W        W25736   7.583  13.088  12.649  0.1033 -0.0546  0.0758
10606W        W25737   9.024   1.033   4.945  0.2252 -0.0563 -0.3926
10607W        W25738  12.092   6.766   3.382 -0.0489 -0.2065 -0.0033
10608W        W25739  13.469   4.286  14.841  0.0402  0.2172  0.0425
10609W        W25740   1.660  11.250   3.162  0.1789  0.0445  0.1862
10610W        W25741  11.220  15.856  12.674 -0.2248 -0.1581 -0.0850
10611W        W25742  17.022   7.427   0.892 -0.3438 -0.0864  0.0696
10612W        W25743  15.036   3.722   2.752  0.1153 -0.0005 -0.1615
10613W        W25744   2.127   9.879   5.020  0.0523 -0.1866 -0.1101
10614W        W25745  17.775   4.564  10.923  0.1481 -0.1412 -0.1852
10615W        W25746   0.720  17.847  10.593  0.1063  0.1022  0.0441
10616W        W25747   3.437   7.010  14.928 -0.0397  0.0495  0.0698
10617W        W25748   4.841   7.406  14.766 -0.0994  0.1726  0.1855
10618W        W25749  13.987  17.297   2.475 -0.0318  0.1274  0.2106
10619W        W25750   0.708  13.734  12.348 -0.1228 -0.1385  0.2702
10620W        W25751  14.826   7.638  12.287  0.2069 -0.0420  0.3613
10621W        W25752   1.919  10.972  14.912 -0.0807  0.0242  0.1046
10622W        W25753   4.067   5.853  15.378 -0.0456  0.2754 -0.2052
10623W        W25754   6.944   1.995   4.095  0.0473 -0.0238  0.0702
10624W        W25755   8.432  14.554  10.278  0.2002 -0.2401 -0.1601
10625W        W25756  12.664  13.888   1.769  0.1223 -0.1129  0.0568
10626W        W25757  12.666   1.814  14.466  0.2779 -0.2229 -0.2183
10627W        W25758   8.166   0.104   4.526 -0.2296 -0.0531 -0.1167
10628W        W25759  12.924   0.443   3.058  0.0522  0.0293 -0.0063
10629W        W25760  10.758   4.932   1.577  0.0250  0.0108  0.0465
10630W        W25761  10.618  13.035  15.117 -0.1811  0.0081 -0.2562
10631W        W25762   5.266   7.071   5.413 -0.2169 -0.0189 -0.1167
10632W        W25763   6.330   2.018   3.083  0.0073 -0.0574 -0.4050
10633W        W25764  17.031   1.493  15.426  0.0686  0.2075 -0.0910
10634W        W25765  10.613   2.410   4.829 -0.4133 -0.3845 -0.0217
10635W        W25766   9.723   3.196   0.043 -0.2781 -0.2739  0.0118
10636W        W25767  11.002   7.758  13.366  0.1257  0.0293 -0.1666
10637W        W25768   3.965   8.551   4.931 -0.1355 -0.1430  0.0604
10638W        W25769   4.464   0.250  11.711 -0.2465  0.2057 -0.4386
10639W        W25770   0.484   6.768  11.551 -0.0540  0.1718  0.1782
10640W        W25771   4.434  14.011  12.281  0.1667  0.1369  0.1794
10641W        W25772   4.104  16.463   4.018  0.0659  0.1245 -0.0801
10642W        W25773   7.207   2.504  11.551  0.5535 -0.0312 -0.2011
10643W        W25774   8.583  12.785  11.297  0.0586 -0.0434  0.3208
10644W        W25775   7.537   9.955   0.540  0.3204  0.1942 -0.1187
10645W        W25776   0.678   9.493   2.319 -0.0476 -0.0086 -0.2213
10646W        W25777  10.246  10.253  12.100  0.0513  0.0002 -0.0342
10647W        W25778   6.431  12.402   2.489 -0.0609 -0.0378 -0.2056
10648W        W25779   2.795   8.519  13.793  0.0546 -0.0809  0.0674
10649W        W25780   0.259   0.327  13.925 -0.0948  0.0044  0.2016
10650W        W25781   3.122   5.416  12.233  0.1693 -0.1198 -0.1022
10651W        W25782   1.533   8.313   1.996  0.1460  0.1373  0.1706
10652W        W25783   3.744   1.443  14.677  0.0992 -0.2707  0.0548
10653W        W25784   8.473  17.786   3.720 -0.1280 -0.0279 -0.2826
10654W        W25785   4.573  10.083  11.152  0.2508  0.1790 -0.2138
10655W        W25786   5.917  13.662   5.270 -0.0433  0.1596  0.0188
10656W        W25787   8.893   8.227   5.966 -0.0146 -0.0146  0.0035
10657W        W25788  17.342   0.269   0.757 -0.2080  0.1922 -0.2226
10658W        W25789  13.268  13.089  10.318 -0.4196  0.1471  0.0164
10659W        W25790  16.938   5.126   2.490 -0.0784 -0.0003 -0.0722
10660W        W25791   6.989  17.862   1.046  0.1014  0.0733  0.1503
10661W        W25792   3.131   6.633  11.578 -0.0677 -0.0297  0.1098
10662W        W25793   1.185   0.091   1.160 -0.2212 -0.0643  0.2813
10663W        W25794  12.884   3.197   5.121 -0.2449  0.3641 -0.0500
10664W        W25795   8.597   6.640   3.285 -0.1671  0.2535 -0.0207
10665W        W25796   8.948  12.145   1.849 -0.0865 -0.0561  0.1955
10666W        W25797   3.432   7.922   1.624 -0.3508 -0.0294  0.1227
10667W        W25798  12.983  16.327  15.728 -0.0388 -0.2074 -0.0482
10668W        W25799  12.157  14.943   4.996  0.0448 -0.0488  0.0697
10669W        W25800   4.380   1.902  12.786  0.0556 -0.0540  0.0799
10670W        W25801   5.908  16.057   1.880  0.0114  0.2370 -0.0228
10671W        W25802   4.295   6.712  15.976 -0.1427  0.0081 -0.2005
10672W        W25803   5.193  17.577  14.306 -0.0662  0.1573  0.4512
10673W        W25804  11.463   0.234   4.346 -0.0859  0.2107 -0.0316
10674W        W25805   3.607   6.815   3.985 -0.3102  0.3450 -0.0880
10675W        W25806  12.658   6.179   1.921 -0.0722  0.0411 -0.2798
10676W        W25807   3.122  11.714  12.985 -0.1711 -0.0701 -0.1225
10677W        W25808  10.297   7.666  15.012 -0.0766 -0.0868  0.1647
10678W        W25809  17.412   0.230  11.806 -0.0445 -0.0162 -0.0379
10679W        W25810   5.168  15.460   0.081 -0.2413  0.3302 -0.3416
10680W        W25811   3.514  15.778  14.329  0.0844  0.1512  0.0116
10681W        W25812  12.033  16.223  13.630 -0.0537  0.1242  0.3707
10682W        W25813  14.361   9.486  14.837  0.0217 -0.2950  0.1455
10683W        W25814  13.562  16.922   2.579 -0.0437  0.1001 -0.2933
10684W        W25815  14.579  13.597   3.120 -0.1884  0.0836 -0.2167
10685W        W25816  16.014  11.229   1.873 -0.1995 -0.0449 -0.2035
10686W        W25817   4.826  17.167  10.859 -0.0222 -0.0528 -0.0347
10687W        W25818  13.907   2.883  12.268 -0.0865 -0.0909  0.4553
10688W        W25819   6.768   3.564  14.764 -0.1842  0.2712  0.1011
10689W        W25820   5.846   1.925   0.866  0.1637  0.0306  0.0215
10690W        W25821   4.769   5.158   2.886 -0.0825  0.1502  0.1359
10691W        W25822  10.418  16.105  13.417  0.2669  0.1468  0.1574
10692W        W25823   6.562  17.886  11.016  0.0443 -0.0296 -0.3326
10693W        W25824   3.723  15.974  14.802 -0.0087  0.1303 -0.2534
10694W        W25825   4.287  15.032  11.907 -0.0867  0.4053 -0.0655
10695W        W25826  15.548  10.342  13.376 -0.0164  0.0808 -0.4286
10696W        W25827   5.774   1.985  12.040  0.0999  0.0320  0.2990
10697W        W25828   9.641   8.279   0.292 -0.2402  0.1094  0.0934
10698W        W25829   4.166   8.718  13.777  0.1647 -0.1483  0.2604
10699W        W25830   4.357  12.188   4.636  0.1647  0.2588 -0.2637
10700W        W25831   9.971  10.975  11.889  0.0342 -0.0672 -0.2173
10701W        W25832  12.682   9.304   2.280 -0.0019  0.0042 -0.3002
10702W        W25833   8.475  12.368  13.502 -0.0501 -0.1813  0.1142
10703W        W25834   4.834  17.765   1.975  0.0826 -0.1202  0.1156
10704W        W25835   2.265  12.864   2.642 -0.3602 -0.0752  0.2455
10705W        W25836  15.350   3.880   1.439  0.0258  0.1183  0.2383
10706W        W25837  13.376  11.108   3.530  0.1784 -0.0309  0.2366
10707W        W25838  11.920   1.114  14.954 -0.1326  0.0353  0.2551
10708W        W25839  15.916   9.915  11.472  0.2507  0.0720  0.0728
10709W        W25840   8.964  16.055  11.101 -0.1221 -0.0534 -0.2627
10710W        W25841   8.703  15.937   1.171  0.1080 -0.1622 -0.0814
10711W        W25842   6.013   3.678   4.628 -0.0132  0.0980 -0.1381
10712W        W25843  15.664   5.425  11.126 -0.2344 -0.0428  0.1755
10713W        W25844  15.963  14.014  12.179  0.3445 -0.1787  0.0107
10714W        W25845   5.854   9.974  12.387 -0.0837 -0.0402 -0.0393
10715W        W25846  16.326  10.002  15.545  0.0218 -0.1884 -0.2610
10716W        W25847   7.800   2.691  13.026  0.1474  0.0223  0.1386
10717W        W25848  17.475   4.529   4.245  0.0478  0.1737 -0.3781
10718W        W25849  13.237   5.701  11.665 -0.1945 -0.0317 -0.0444
10719W        W25850  15.873   9.614  15.713 -0.1605  0.1277  0.0422
10720W        W25851   9.156   7.431  13.209 -0.1625  0.0995  0.0425
10721W        W25852  12.833   6.923   4.523 -0.0211  0.2370  0.1730
10722W        W25853  17.363  18.092   4.683  0.0355 -0.4197 -0.0328
10723W        W25854  13.039   9.274  12.820  0.2113  0.1880  0.1356
10724W        W25855   5.734   8.608  13.358 -0.0250  0.3387 -0.1742
10725W        W25856   7.818   2.839  10.972 -0.1922 -0.0893 -0.2382
10726W        W25857  16.093   4.406   4.990  0.0476  0.4118  0.1749
10727W        W25858  17.061   0.637  15.598  0.2457  0.0654 -0.0506
10728W        W25859   0.325   4.743  13.444 -0.2768  0.0385 -0.0207
10729W        W25860  16.066  15.847   3.368 -0.0349  0.4378 -0.1888
10730W        W25861   0.897  13.125  12.960 -0.1007 -0.0903 -0.1491
10731W        W25862  13.275   1.450   4.299 -0.0637 -0.1979  0.1012
10732W        W25863  14.691  13.909  13.395 -0.0255 -0.0287  0.0783
10733W        W25864  13.756  12.897  11.496 -0.4630  0.0308 -0.0871
10734W        W25865  15.849  15.111   1.638  0.0555  0.0999  0.3235
10735W        W25866   1.448  17.155   2.696  0.1661  0.1610  0.0416
10736W        W25867  10.353  12.385   1.874 -0.0371 -0.3591  0.2063
10737W        W25868   2.094   8.158   4.193 -0.1629  0.0199 -0.1500
10738W        W25869  11.083   6.743  12.160  0.0130  0.0298 -0.1517
10739W        W25870  14.389   4.137   1.172  0.4211  0.2945 -0.2403
10740W        W25871  11.248  17.368   0.548  0.3458 -0.0475  0.1007
10741W        W25872   8.717  13.814  13.121  0.1558 -0.2569 -0.0664
10742W        W25873   9.900   7.633   2.176 -0.1710 -0.2141  0.4647
10743W        W25874   8.988   1.851   1.710 -0.2941 -0.0862 -0.0098
10744W        W25875   2.609   7.629  10.748 -0.2793  0.1060  0.2371
10745W        W25876   6.207   4.222   1.497 -0.1743  0.0050  0.1451
10746W        W25877   9.922  12.150   1.560 -0.2426 -0.0804 -0.2100
10747W        W25878   2.963   7.793  10.443 -0.0161 -0.2134 -0.1201
10748W        W25879  15.161  10.428  10.832  0.1626 -0.1726 -0.0682
10749W        W25880   2.299   8.958   1.635 -0.1711  0.0722  0.0100
10750W        W25881  13.063   8.010  13.034 -0.0529 -0.0636  0.0222
10751W        W25882  17.417   2.137   3.980  0.0071  0.3417 -0.0171
10752W        W25883  16.620  16.498   4.780  0.1057 -0.1472  0.0147
10753W        W25884   9.667   9.192   0.792 -0.2120 -0.1016 -0.0953
10754W        W25885   9.930  13.177  15.879  0.0231  0.0598  0.2175
10755W        W25886   3.166  12.692  11.705 -0.0805  0.2438 -0.0739
10756W        W25887   3.129   0.496   1.727  0.1120 -0.1651 -0.4480
10757W        W25888   0.267  15.750   5.004 -0.0661  0.3106 -0.1741
10758W        W25889   3.366  13.248   1.510  0.0259 -0.0376  0.1645
10759W        W25890   7.496   6.328  12.850  0.2731 -0.1971 -0.2632
10760W        W25891  17.896   7.441  12.952 -0.0788  0.0081 -0.0991
10761W        W25892   2.753   6.332  15.292 -0.1175  0.0547  0.3668
10762W        W25893   8.545  15.343   4.886 -0.1640 -0.0206 -0.0781
10763W        W25894   3.150   1.948   2.472 -0.2712  0.0518 -0.2240
10764W        W25895  15.798   0.933   5.221  0.0692 -0.2038 -0.0564
10765W        W25896  16.260   6.102   3.039 -0.0719 -0.0863 -0.3025
10766W        W25897  13.351  13.575   2.319  0.0710  0.0646  0.0600
10767W        W25898  17.020   7.712  13.522 -0.1492  0.1454  0.1451
10768W        W25899   6.760  11.705   0.824 -0.0880 -0.2961 -0.0208
10769W        W25900  10.302   0.450  15.878 -0.3475  0.0146  0.1356
10770W        W25901  14.344  14.575  14.985 -0.0675 -0.1551  0.0264
10771W        W25902   3.248  17.652  13.485 -0.2596 -0.0323 -0.1981
10772W        W25903  13.860  10.087   0.897  0.1033 -0.2028  0.1967
10773W        W25904  10.131  12.260   4.380 -0.0437 -0.0795  0.3978
10774W        W25905  10.820   3.581   2.147  0.1556  0.2507  0.2567
10775W        W25906  14.754  15.902   4.177  0.0898 -0.0239 -0.2456
10776W        W25907  12.040   1.362   6.152 -0.0737  0.1077 -0.1700
10777W        W25908  13.130  11.188  13.532  0.2071 -0.2398 -0.2027
10778W        W25909   3.769   3.680   0.963  0.3536  0.1171 -0.2576
10779W        W25910  17.975  17.500   5.147  0.0219 -0.3318 -0.0792
10780W        W25911  16.543  11.153  13.930  0.0814 -0.0406  0.2322
10781W        W25912   5.008   8.839   3.251 -0.3509 -0.0105  0.1625
10782W        W25913  17.245  10.641   1.760 -0.1605  0.2706 -0.0502
10783W        W25914  15.395   1.197   4.163 -0.0691 -0.0870  0.0760
10784W        W25915  12.573   1.381   0.355 -0.2387 -0.0825 -0.0100
10785W        W25916  18.040   6.809  12.316  0.0216  0.1601  0.1354
10786W        W25917  12.347   7.617   1.214 -0.0481  0.0616 -0.2325
10787W        W25918   8.998  17.062   5.663  0.2966  0.3860  0.1187
10788W        W25919   8.853  10.261   0.556  0.1921 -0.0037 -0.1959
10789W        W25920  16.348  16.037  13.449  0.3261  0.3285  0.2131
10790W        W25921  15.160  10.905   4.641  0.0555  0.1292  0.0155
10791W        W25922   1.339  11.204   1.259  0.1488  0.1885 -0.1783
10792W        W25923   9.903  15.258  11.572 -0.2404  0.1296  0.1815
10793W        W25924  14.895   8.844  15.173  0.0364  0.2541  0.0636
10794W        W25925  10.436   8.581  15.278  0.1483 -0.0310  0.2847
10795W        W25926   6.749   3.632   2.006  0.1106 -0.0734 -0.1735
10796W        W25927   6.238  10.331  15.612 -0.0602 -0.4667  0.2413
10797W        W25928   3.078   2.381   5.787 -0.0123 -0.1280 -0.0237
10798W        W25929  14.357  11.147  16.170  0.1074 -0.2501 -0.2034
10799W        W25930  12.395   7.589  15.971  0.0119 -0.0778 -0.0714
10800W        W25931   3.718   8.850   0.732  0.3536 -0.0259  0.0054
10801W        W25932   6.851   4.659  13.346  0.2281 -0.1664 -0.1635
10802W        W25933   5.588   4.444   0.481  0.0704  0.0849 -0.0098
10803W        W25934  15.446   2.975  11.439 -0.0692 -0.0610  0.1584
10804W        W25935   1.920  10.318   4.890 -0.1399  0.0170 -0.1766
10805W        W25936   3.459   6.605   1.434 -0.0587  0.0653 -0.1469
10806W        W25937   6.516   3.559  14.019 -0.0476 -0.0278 -0.0402
10807W        W25938  16.279  13.694  15.236  0.1012 -0.1171  0.0729
10808W        W25939  10.292   0.356  14.843 -0.2909 -0.4835  0.0585
10809W        W25940  12.896   0.860  11.764 -0.0768  0.0058 -0.1337
10810W        W25941  11.666  16.834   2.551 -0.3103  0.0015  0.0299
10811W        W25942   7.204  16.525  12.832  0.2820 -0.2461  0.0710
10812W        W25943  16.993  17.808  14.791  0.2201  0.2777  0.2127
10813W        W25944  10.375  15.596   5.200 -0.2173 -0.0644  0.0197
10814W        W25945   7.110  15.807   0.320  0.2840 -0.1147  0.2504
10815W        W25946  17.040   1.016  10.402 -0.2286  0.0902 -0.4128
10816W        W25947   8.843  11.505   2.811 -0.1379  0.1026 -0.0169
10817W        W25948  15.542   8.916   0.306  0.0825  0.0660 -0.0680
10818W        W25949   7.338  13.631   1.588 -0.1223 -0.1314  0.2463
10819W        W25950   0.268   3.031   1.664 -0.5114 -0.2104  0.0145
10820W        W25951  13.640   9.467   2.482  0.0772 -0.0181  0.2117
10821W        W25952   2.948   3.673   2.756  0.3059  0.1391  0.1664
10822W        W25953  12.591  14.823   6.159  0.2437 -0.0768 -0.2253
10823W        W25954   7.190  16.748   5.546 -0.1553 -0.0594 -0.2010
10824W        W25955   0.643  15.072   1.636  0.0982 -0.2767 -0.0805
10825W        W25956  13.465   2.296  15.763 -0.2056 -0.0362 -0.1310
10826W        W25957  10.583   6.371   2.415 -0.1507 -0.0352 -0.0206
10827W        W25958   7.383   4.008   1.887 -0.2733 -0.2042  0.0056
10828W        W25959  11.863   5.557   2.170  0.0800 -0.1224 -0.1219
10829W        W25960   8.879   6.509  13.685 -0.1352 -0.1582 -0.1095
10830W        W25961   8.047   3.269   4.421  0.1891  0.0275  0.1226
10831W        W25962  13.306   7.569  13.288 -0.0963 -0.0275  0.0559
10832W        W25963  10.339  16.586  13.192 -0.1587  0.1844 -0.1935
10833W        W25964  12.772   2.815   1.294 -0.2180 -0.4320 -0.0102
10834W        W25965   4.441   3.908   2.236 -0.1315 -0.0930 -0.2067
10835W        W25966   6.278   6.489   6.010  0.3271  0.2535 -0.4140
10836W        W25967  11.896  10.625   1.546  0.0670  0.4166 -0.0862
10837W        W25968   4.461  11.606  12.532  0.4263  0.1299  0.0698
10838W        W25969  14.331   2.769   4.977  0.0780  0.0434  0.3039
10839W        W25970  11.109  14.084  12.033  0.0667  0.1291  0.2220
10840W        W25971  17.911   1.270   3.112 -0.0089  0.0160  0.1500
10841W        W25972   2.481  10.949  15.619 -0.0515 -0.0518  0.0185
10842W        W25973  10.527   0.939  15.972 -0.1538 -0.0165 -0.0114
10843W        W25974   7.162  16.654  11.351  0.0302 -0.0525  0.0859
10844W        W25975   1.975  13.748  10.915 -0.0833  0.0125 -0.1583
10845W        W25976  13.209   1.859   5.478  0.4937  0.1573  0.1874
10846W        W25977   9.957   9.611   0.842 -0.0691  0.0329  0.1429
10847W        W25978   5.577   1.685   4.694  0.1769  0.2902 -0.1373
10848W        W25979  14.106  14.208   4.448  0.2350  0.1500  0.2346
10849W        W25980  13.283   2.110  11.994  0.1733 -0.1441 -0.1459
10850W        W25981   9.565  11.917  15.402  0.1541 -0.2672  0.0622
10851W        W25982  13.951  12.012  15.763 -0.3347 -0.1433  0.0034
10852W        W25983   7.393  14.220   3.778 -0.0084  0.2332 -0.2877
10853W        W25984   8.990   6.132   4.920  0.0716 -0.1318 -0.0617
10854W        W25985  14.848   4.260  13.030 -0.0804  0.5740 -0.1317
10855W        W25986   2.897  10.906  16.085 -0.2963  0.0156 -0.0065
10856W        W25987   7.513  10.823   2.978  0.1779  0.2177  0.0534
10857W        W25988  13.099  12.000   1.592 -0.1307  0.0177  0.2150
10858W        W25989  15.946   3.932  12.248 -0.3327 -0.0213  0.0191
10859W        W25990   8.138  16.126  13.016  0.2045 -0.0829  0.1751
10860W        W25991   6.806   7.396  15.755 -0.2173 -0.1495 -0.0666
10861W        W25992  16.944   7.544   1.383  0.0928  0.1321 -0.0429
10862W        W25993   2.843  12.820  16.215 -0.1551  0.1606  0.0115
10863W        W25994   2.054  10.847  11.052 -0.0399 -0.1693  0.0825
10864W        W25995   9.458  16.767   3.871 -0.3000  0.1215  0.1072
10865W        W25996   5.838   1.417  12.082 -0.0606  0.1203  0.3145
10866W        W25997   3.738   5.100   0.049  0.0970 -0.0963  0.0304
10867W        W25998   1.209   4.036  12.039 -0.0820 -0.1030 -0.1621
10868W        W25999  16.079   1.515  16.048  0.1667 -0.0411 -0.1337
10869W        W26000   7.157   1.920   5.011 -0.0557  0.0389  0.2656
10870W        W26001   2.619  16.168  12.493  0.0435 -0.1411 -0.1959
10871W        W26002  14.242   2.808   2.556  0.0362  0.0180 -0.1538
10872W        W26003  13.509  17.945   2.186  0.0118  0.1101  0.0367
10873W        W26004   5.479  11.413  11.726 -0.0676 -0.1308 -0.2991
10874W        W26005  10.422   5.088  14.250 -0.4147  0.0442 -0.0803
10875W        W26006   8.358  16.149   3.282  0.0484  0.0823  0.0736
10876W        W26007  16.735   1.559  14.805 -0.0357 -0.0578 -0.3364
10877W        W26008   7.507  15.061  15.245 -0.2211 -0.0262 -0.1491
10878W        W26009  15.967  13.863   3.263  0.1290  0.0230  0.0499
10879W        W26010  13.755  12.082  14.480 -0.0665 -0.1985  0.1389
10880W        W26011   0.018  16.253   1.515  0.0356 -0.0214  0.1987
10881W        W26012   8.106  17.118  15.798 -0.0947  0.0909  0.4616
10882W        W26013   7.885   7.690   0.478  0.0282  0.0530  0.3081
10883W        W26014   6.536  14.213   0.124  0.2325  0.1159  0.0202
10884W        W26015   6.651   9.063   5.087 -0.1712 -0.2112  0.3616
10885W        W26016   1.771   7.819  15.123  0.1286  0.1416  0.0904
10886W        W26017   7.053   4.308   1.629  0.0687 -0.3373  0.3117
10887W        W26018   2.402   6.238  13.863  0.0442  0.2425  0.0252
10888W        W26019  18.048   1.997   1.059  0.1084  0.1345 -0.0749
10889W        W26020   4.834   7.621   2.596 -0.0296 -0.0052 -0.1979
10890W        W26021   1.424  15.764  10.862  0.1767  0.3970 -0.1279
10891W        W26022   7.049  13.502   0.108  0.2347  0.2466  0.0231
10892W        W26023   7.153  13.614  11.350  0.0329 -0.1064 -0.1139
10893W        W26024   8.697  17.689  10.467  0.1019  0.0001  0.0361
10894W        W26025   2.521   9.221  11.753  0.0212  0.0251  0.1595
10895W        W26026  13.223  10.490   1.537  0.0528 -0.0137 -0.1223
10896W        W26027  13.911   9.604  15.027  0.3895 -0.2187 -0.0256
10897W        W26028   0.608   2.207  12.145 -0.0656 -0.2059 -0.1779
10898W        W26029   3.699  11.448  15.409  0.1599 -0.2878 -0.0092
10899W        W26030  12.953  15.067   1.768 -0.0107 -0.2808 -0.1099
10900W        W26031   7.700  16.502   5.454  0.0206  0.0955  0.2163
10901W        W26032   4.672  11.820   1.515 -0.1423 -0.1455  0.1041
10902W        W26033   2.601  17.441  15.834  0.0515  0.0463 -0.2076
10903W        W26034   7.470  16.958  11.663 -0.0632 -0.1811  0.0691
10904W        W26035  13.168  11.571   4.474  0.1845 -0.0368  0.1269
10905W        W26036  14.801  12.661   1.363  0.2285 -0.0625 -0.0149
10906W        W26037  13.633   4.817   3.197  0.2287  0.0632 -0.1084
10907W        W26038   2.556   9.831  10.313  0.0748 -0.0311  0.3357
10908W        W26039   1.919  11.454  14.056 -0.2818 -0.0874 -0.4436
10909W        W26040   1.441   5.969   4.887  0.0760  0.3817 -0.0192
10910W        W26041   5.773  14.250  12.806  0.0772  0.1787 -0.1265
10911W        W26042   7.043   9.553  15.538 -0.1946  0.3379 -0.2678
10912W        W26043   9.451   0.695  13.522  0.0326 -0.0288 -0.0948
10913W        W26044  16.753   1.716   3.753 -0.2190 -0.1186 -0.0011
10914W        W26045   7.769  16.735  12.041 -0.0170 -0.1475  0.1065
10915W        W26046   5.681  17.188  14.935 -0.0270 -0.3742 -0.2089
10916W        W26047  12.399  17.218  16.206  0.1141 -0.1092 -0.0114
10917W        W26048   5.332  11.103   0.413  0.0080 -0.0497  0.1449
10918W        W26049   6.368   3.877   5.523  0.3704  0.2901  0.3776
10919W        W26050   2.877  17.454   3.186  0.1739  0.3016  0.2893
10920W        W26051  17.445  11.210  13.762  0.0161 -0.2087  0.0609
10921W        W26052  11.583  12.174  11.505  0.0876  0.0892  0.5067
10922W        W26053   1.136  10.730   1.092  0.0444 -0.0688 -0.0794
10923W        W26054   4.572  15.204   1.172  0.2383 -0.1601 -0.0215
10924W        W26055   2.909   7.884   5.297  0.1906  0.1340 -0.3608
10925W        W26056  13.889  10.149  14.869  0.0906 -0.2188 -0.0198
10926W        W26057   1.513  17.789   1.947  0.0281 -0.1061 -0.0661
10927W        W26058   9.385   8.084  15.781 -0.4000  0.0264 -0.0835
10928W        W26059  16.409   7.234   3.307  0.0841 -0.2881  0.1448
10929W        W26060  14.693   0.596   5.710 -0.1254 -0.1649 -0.2343
10930W        W26061   1.399  12.244   5.895  0.2313  0.2535  0.0450
10931W        W26062   0.313   9.963   0.098 -0.1228 -0.3370  0.1076
10932W        W26063  14.039   4.413   4.550  0.1729 -0.3810 -0.5192
10933W        W26064   0.405   3.537   1.594  0.1465 -0.0483 -0.0062
10934W        W26065   4.326   5.472  15.242 -0.0571  0.1192 -0.0423
10935W        W26066   1.879  13.766  11.564 -0.2290 -0.2733 -0.1102
10936W        W26067  13.505   5.237   4.120 -0.1797  0.0761 -0.0463
10937W        W26068   6.651  13.213  15.505  0.2121  0.0727 -0.0028
10938W        W26069   0.075  16.771  12.303 -0.2689 -0.0732 -0.4533
10939W        W26070  15.377   8.111  13.479 -0.1290 -0.1180  0.1756
10940W        W26071  16.776  13.084   5.201 -0.0931 -0.1374  0.0284
10941W        W26072   0.596  12.956   5.840  0.0183  0.0673 -0.3116
10942W        W26073  13.375  17.854  11.047 -0.1105  0.2606 -0.0493
10943W        W26074   0.855   6.871   6.123 -0.3044 -0.0089  0.0951
10944W        W26075  15.168  10.539   0.104 -0.1665 -0.3247  0.1447
10945W        W26076  15.110  15.739  15.078 -0.1085 -0.0623 -0.0397
10946W        W26077   0.926   9.241   2.736 -0.0724 -0.1530 -0.1052
10947W        W26078   0.336  17.419  13.184 -0.1360 -0.1970 -0.1921
10948W        W26079   3.215  12.072  11.332 -0.0312 -0.2521 -0.0983
10949W        W26080  14.433   4.197   5.421  0.1178  0.0915  0.1872
10950W        W26081   7.974   7.942  15.807  0.1255 -0.1067 -0.1367
10951W        W26082   5.549  15.529  12.502  0.0504  0.0152 -0.0668
10952W        W26083  11.402  14.649   1.100  0.2188 -0.1150  0.2146
10953W        W26084  10.948  13.352   5.500 -0.0918  0.0090 -0.0338
10954W        W26085  16.011   1.813   4.254  0.0144 -0.1559  0.3002
10955W        W26086  14.778  11.734   3.827 -0.1468  0.0738  0.0078
10956W        W26087  10.205  13.465   3.919 -0.1449  0.1396 -0.0171
10957W        W26088   2.250   7.738   3.592 -0.2489 -0.1352 -0.1121
10958W        W26089  13.377  13.509  13.968  0.1023 -0.2265 -0.1019
10959W        W26090  12.476   3.449  16.144 -0.1462  0.2015  0.0136
10960W        W26091   2.442   7.811  15.481 -0.0436  0.2837 -0.0406
10961W        W26092  15.422  13.603  13.334 -0.0313  0.5652  0.1384
10962W        W26093   4.923   4.675   3.347  0.0610 -0.0150  0.2090
10963W        W26094   1.218   1.371  12.473  0.2416  0.1455  0.1450
10964W        W26095   9.952   7.804   1.728 -0.0982 -0.0093  0.0640
10965W        W26096   5.766  11.192  15.698 -0.1982  0.0547  0.1163
10966W        W26097  16.251   5.843   0.447  0.0363 -0.0823 -0.3841
10967W        W26098   1.644  12.684  11.814  0.0801  0.0906 -0.0996
10968W        W26099  17.619  16.072  13.397  0.1589 -0.1725 -0.2342
10969W        W26100   2.629  16.740   0.843  0.0119 -0.0609  0.3799
10970W        W26101  13.931  16.572  14.380  0.0974  0.0524  0.3420
10971W        W26102  15.490   1.433  14.237  0.0499 -0.4034 -0.0150
10972W        W26103  16.218   9.794  12.123 -0.0300  0.0078 -0.0644
10973W        W26104  14.959   0.538  15.494  0.0463 -0.1216  0.2276
10974W        W26105   6.512  17.077  15.320  0.2866 -0.1527 -0.1257
10975W        W26106  16.014   1.626   1.733  0.1128  0.1378  0.1503
10976W        W26107  14.479  12.761   2.886  0.0546 -0.4287  0.0105
10977W        W26108   4.599  18.052   1.601 -0.3178 -0.3273  0.0091
10978W        W26109   8.975   6.151   1.595 -0.0025  0.0533 -0.2670
10979W        W26110   7.623  11.629   2.094  0.0396  0.3615  0.0091
10980W        W26111  17.817   0.836  13.074 -0.1741  0.2311 -0.0823
10981W        W26112  10.634   3.078   4.117 -0.1731  0.0470 -0.0752
10982W        W26113  10.418   8.888  10.796 -0.2800 -0.2782 -0.2980
10983W        W26114   7.741   1.091   3.789  0.0009  0.0855  0.2549
10984W        W26115  14.483   3.191   3.832 -0.1853 -0.1796 -0.5469
10985W        W26116  14.187   5.811  11.599 -0.0462  0.1829 -0.0045
10986W        W26117   4.524  17.335  11.240  0.0538 -0.1302 -0.0229
10987W        W26118  15.446   7.387  11.633  0.0189 -0.0127 -0.1103
10988W        W26119   2.283   4.035  15.373 -0.4243 -0.2864  0.1776
10989W        W26120  16.075  15.652  13.122 -0.1427  0.0182 -0.2314
10990W        W26121  17.799   0.282  14.913 -0.0425  0.1494 -0.0560
10991W        W26122   5.870  13.825   3.597  0.1331 -0.1028 -0.1291
10992W        W26123  17.636  10.455   5.250 -0.0099  0.2480  0.0306
10993W        W26124  17.944  15.305  10.513 -0.1951 -0.2776  0.1130
10994W        W26125  11.839   0.048  11.895  0.2306 -0.3648  0.0501
10995W        W26126  10.923   4.079  13.139 -0.1124  0.1849 -0.0906
10996W        W26127   3.053   0.904   5.302 -0.1994  0.0177  0.0434
10997W        W26128   3.571  16.535   3.790  0.2112  0.2919 -0.2054
10998W        W26129   6.097   3.980  10.396  0.0067  0.0046 -0.3424
10999W        W26130   0.306  10.171  11.838 -0.0531  0.5208 -0.1092
11000W        W26131  13.935  15.828  11.524 -0.5620  0.1286  0.0550
11001W        W26132   0.207   9.473  15.607 -0.1277  0.0141  0.2076
11002W        W26133   6.543   8.151   0.092  0.2978  0.0540 -0.2006
11003W        W26134  10.841  11.375   3.528 -0.1325  0.1564 -0.0988
11004W        W26135   2.213   2.479  14.219 -0.1296 -0.0706  0.1734
11005W        W26136   5.720  16.380  11.670 -0.0072 -0.1113  0.0913
11006W        W26137   3.053  14.668   1.362 -0.3637 -0.0726 -0.0653
11007W        W26138   8.366  10.487   5.064 -0.0929  0.1759  0.1611
11008W        W26139  12.890  12.564  13.685  0.0469  0.1158  0.0518
11009W        W26140   4.080   2.617   3.033 -0.0230  0.1712 -0.0718
11010W        W26141   6.199   3.175   4.625 -0.3700 -0.2039 -0.0649
11011W        W26142   2.078  14.615   5.584 -0.2217  0.2919  0.1075
11012W        W26143  14.951  16.081  15.937  0.1479  0.0417 -0.2891
11013W        W26144   9.631  14.600   4.434 -0.0406  0.1814 -0.4249
11014W        W26145  17.890   3.947  13.121  0.1038 -0.0159 -0.0182
11015W        W26146  17.127  14.271  12.860 -0.1307  0.1119  0.4206
11016W        W26147  16.721  12.840   5.678 -0.2456  0.0596  0.0222
11017W        W26148  10.027   5.124   2.370  0.0578  0.1009  0.0904
11018W        W26149   5.133  16.086   3.143 -0.3335  0.0130 -0.1644
11019W        W26150  11.016   9.925  11.805 -0.0152 -0.1867  0.0299
11020W        W26151  11.395   5.354  12.842  0.3912 -0.2045  0.0345
11021W        W26152  11.623   4.971  11.851 -0.1459  0.0495  0.0506
11022W        W26153   6.719  15.585  13.934  0.0152 -0.3205  0.0884
11023W        W26154   4.437   0.736   1.441  0.1338  0.0645 -0.1511
11024W        W26155  15.697   0.235  13.759 -0.4017 -0.1808  0.2474
11025W        W26156   2.801  16.093   4.482  0.1501  0.3157  0.1946
11026W        W26157  13.115   6.545   5.737  0.2744  0.0984  0.0089
11027W        W26158  15.405  12.345   0.387  0.0196  0.0130  0.0312
11028W        W26159  17.450  11.673  15.187  0.3751  0.0125  0.1831
11029W        W26160  12.555  12.070  11.432  0.0064  0.0574 -0.2033
11030W        W26161  13.617   0.480   1.962  0.1243 -0.1705 -0.1672
11031W        W26162  12.035   7.169  13.976 -0.0416  0.1442 -0.1639
11032W        W26163   3.779   7.530   5.173  0.0591 -0.0178 -0.0765
11033W        W26164   1.425   1.680  15.423 -0.2595  0.1241  0.0085
11034W        W26165  10.295   4.864   2.034  0.0752  0.1409  0.1974
11035W        W26166  12.639  14.661  12.536  0.2341  0.0537  0.1505
11036W        W26167   1.088   3.998   4.525  0.0490 -0.0817  0.0503
11037W        W26168  11.508   6.859   5.003 -0.0631 -0.0188 -0.0231
11038W        W26169   1.465   7.811   5.136  0.1151  0.1250 -0.0632
11039W        W26170  15.685   6.658  15.134  0.1917 -0.1645  0.0440
11040W        W26171   3.170  14.671  14.671 -0.1410 -0.1122  0.0850
11041W        W26172   3.195   7.579   3.632  0.1131  0.3188  0.0775
11042W        W26173   9.121   6.854   4.431  0.2823  0.0338 -0.2300
11043W        W26174  12.585   4.843  12.380 -0.0820  0.0634  0.0121
11044W        W26175  13.619   9.131  15.158  0.0619  0.0467 -0.0577
11045W        W26176   0.784  16.735   1.298 -0.1474 -0.0587 -0.1406
11046W        W26177  13.064   6.947   3.700 -0.4631  0.3289  0.1259
11047W        W26178   0.980  13.678   0.611  0.1439  0.0011 -0.0876
11048W        W26179   7.598   6.258   4.646 -0.2055 -0.0585 -0.2945
11049W        W26180   7.196  13.641  14.305 -0.2166 -0.0324 -0.0665
11050W        W26181   9.691  13.903  11.000 -0.0512 -0.0350 -0.2445
11051W        W26182   2.125  10.448   0.925 -0.0211 -0.2371  0.0657
11052W        W26183   4.782  11.029  14.381 -0.0582  0.2415  0.0060
11053W        W26184  13.123  12.959  16.175  0.1091 -0.0545 -0.3249
11054W        W26185   3.483   4.864  13.781 -0.0718  0.1486  0.1645
11055W        W26186  14.684  16.489   0.400 -0.0089 -0.1301  0.1684
11056W        W26187  11.775  13.944   3.129  0.2051  0.1473  0.1658
11057W        W26188  11.591   3.924  11.035  0.1209  0.1051  0.2807
11058W        W26189   4.311   1.510   6.205 -0.1257 -0.0801 -0.1635
11059W        W26190  10.711  17.448   3.834 -0.0399  0.1333  0.0241
11060W        W26191  17.553   5.511  15.514  0.3587 -0.2388 -0.2044
11061W        W26192   8.602  12.172   6.449  0.0250 -0.0443 -0.0581
11062W        W26193  10.460   3.887  13.151 -0.0252 -0.1362 -0.0471
11063W        W26194  15.778  10.775  12.188 -0.2327  0.3254  0.2419
11064W        W26195   6.432   7.282   1.297 -0.1789 -0.1134  0.0003
11065W        W26196  10.091  10.787   1.867  0.2862 -0.0866 -0.1141
11066W        W26197   5.081  10.395  15.858 -0.0235  0.0575  0.3448
11067W        W26198  11.102  13.936  10.170 -0.0891 -0.0370  0.0540
11068W        W26199  14.264   0.231  12.452 -0.2897 -0.3515 -0.0101
11069W        W26200   6.234  14.817  13.703 -0.0182  0.0249 -0.2262
11070W        W26201  11.586   9.581  13.764 -0.0424 -0.0925 -0.0802
11071W        W26202  15.462   4.086  13.012 -0.2045 -0.2417  0.0874
11072W        W26203   1.311  17.158  15.579  0.0337  0.2229 -0.0164
11073W        W26204   1.755  14.802  13.687 -0.3175  0.1412 -0.0107
11074W        W26205   4.492  14.539   0.045 -0.0456 -0.2089  0.0075
11075W        W26206   8.951  13.552  15.624  0.3563  0.0632  0.0552
11076W        W26207   4.622   8.322   1.703 -0.1424 -0.1064 -0.0129
11077W        W26208  10.072  15.635   1.410  0.0403  0.0072 -0.1708
11078W        W26209  10.318   8.892  12.671 -0.0541 -0.0823 -0.3402
11079W        W26210   8.732  14.601  15.064  0.0520 -0.2200  0.0474
11080W        W26211  11.355   3.083   4.142 -0.2224 -0.1628 -0.0942
11081W        W26212   4.814   2.498  13.310 -0.0778 -0.0339  0.0890
11082W        W26213   6.224   2.970  11.794  0.1420  0.1014  0.0805
11083W        W26214  15.503  10.834  14.078  0.0638 -0.1019 -0.0496
11084W        W26215   7.254   0.180   1.871 -0.1673  0.1428 -0.1973
11085W        W26216  10.950  16.227  14.773  0.0668 -0.1025 -0.1678
11086W        W26217  16.753  15.183   0.384 -0.1009  0.0118 -0.1145
11087W        W26218   9.379   5.319   5.895 -0.1589  0.5343  0.0639
11088W        W26219   7.597   0.955  11.810 -0.1749  0.0323 -0.0185
11089W        W26220   0.025  14.019   0.046 -0.0421 -0.0428 -0.0025
11090W        W26221  16.676  13.426   2.600  0.1718  0.1875  0.3324
11091W        W26222  15.105  14.744   0.635 -0.1021 -0.0446  0.1155
11092W        W26223  12.465  14.661   1.208  0.1403 -0.3217  0.4157
11093W        W26224   3.035   6.950   2.155  0.1157  0.0518  0.0520
11094W        W26225   0.523  13.843  14.641  0.0345 -0.0946  0.1221
11095W        W26226   0.319  14.217   4.169  0.2715  0.0548  0.1218
11096W        W26227   9.957   6.337   5.415 -0.2251 -0.1858 -0.0448
11097W        W26228   4.573  16.412   2.421  0.1109 -0.0370  0.1693
11098W        W26229   3.242   3.836  13.918  0.1315  0.1639 -0.0748
11099W        W26230   7.572  10.876   5.104 -0.0780  0.4364 -0.0180
11100W        W26231  16.845  11.376   2.091  0.2756  0.0013 -0.0250
11101W        W26232  12.726   0.170   4.113 -0.2001 -0.1922 -0.0918
11102W        W26233   0.207  11.422  11.825 -0.3417 -0.0615 -0.0231
11103W        W26234  11.244   4.743   0.596  0.0692 -0.0262  0.0288
11104W        W26235  17.093   3.923   4.982 -0.0112  0.0593  0.1464
11105W        W26236   4.307  14.194   0.704 -0.1608  0.0129  0.1181
11106W        W26237   7.923  16.437  14.672 -0.0520 -0.1676  0.0974
11107W        W26238  15.664   6.214   3.441  0.2317  0.0442 -0.0337
11108W        W26239   2.807  14.501  12.180  0.0504  0.0302 -0.2430
11109W        W26240   8.499  12.401   4.541  0.1480 -0.1056 -0.1842
11110W        W26241  15.079  10.677  14.283  0.1652  0.1774  0.1832
11111W        W26242  10.119   3.135  15.983  0.0634  0.1019  0.0364
11112W        W26243   9.462   2.482   1.873  0.2437 -0.0474 -0.1484
11113W        W26244   5.806  16.384  15.249  0.0093 -0.1161 -0.2176
11114W        W26245   6.664  10.087  15.745 -0.2529  0.0590 -0.0069
11115W        W26246   8.609   3.622  13.734 -0.3716 -0.0746  0.0487
11116W        W26247   7.589   3.159   5.533 -0.0335 -0.0555 -0.0902
11117W        W26248  10.031   2.484  14.151 -0.2147 -0.0319 -0.0265
11118W        W26249  16.356  11.656   4.746  0.1997 -0.0592  0.2704
11119W        W26250   4.950  14.067   2.514  0.0342 -0.1397  0.0312
11120W        W26251   3.284   4.185  13.544  0.1505 -0.0954 -0.2485
11121W        W26252  16.906   7.136  13.503  0.0034  0.0512  0.2298
11122W        W26253   1.236  14.179  16.165 -0.1262  0.1799  0.2577
11123W        W26254  17.517  14.745  16.123 -0.0299 -0.0152 -0.1665
11124W        W26255   4.319  14.717   4.521 -0.0209 -0.2130 -0.0176
11125W        W26256   9.669   8.135   1.921 -0.1571  0.0312 -0.0571
11126W        W26257  10.022   3.338  10.292  0.1184  0.1480  0.1302
11127W        W26258  17.526   7.238  16.220  0.1162 -0.1935 -0.3880
11128W        W26259   5.633   7.339  14.840  0.1943 -0.1013  0.0564
11129W        W26260   8.865   0.356  12.145  0.0206 -0.2194 -0.1790
11130W        W26261   3.931   6.056   0.894 -0.0193 -0.1209 -0.1891
11131W        W26262  16.871   6.759  13.099 -0.2586  0.2108 -0.1494
11132W        W26263  17.044  13.003   0.016 -0.1012  0.0746 -0.2504
11133W        W26264  15.113  17.006  10.897  0.0074  0.0948  0.1531
11134W        W26265  14.484   5.343  16.048  0.1081 -0.1133  0.0726
11135W        W26266   1.232  12.808  10.610 -0.0410 -0.0691 -0.1984
11136W        W26267  17.070  12.711  13.840  0.0049  0.2548 -0.0328
11137W        W26268   2.490   8.316   1.321 -0.0458  0.2663 -0.0425
11138W        W26269   7.579   6.181   2.553  0.0366  0.2306  0.0688
11139W        W26270  17.546   3.662   4.846  0.0063  0.1288 -0.0219
11140W        W26271  12.015   2.811  11.729 -0.1344  0.1966  0.2798
11141W        W26272   8.651  11.821  11.184 -0.1275 -0.1832 -0.1169
11142W        W26273  13.625  10.805  14.184  0.0813 -0.1431 -0.3500
11143W        W26274   3.275   2.574   4.908 -0.1058  0.1369  0.1348
11144W        W26275  13.397   8.569  16.231  0.0349 -0.0465  0.0104
11145W        W26276  15.638   0.086  14.706 -0.3386  0.0044  0.1080
11146W        W26277  11.083  11.355  12.442  0.0878 -0.0744 -0.2147
11147W        W26278  13.334  10.392  12.217  0.1186 -0.2085  0.0585
11148W        W26279  13.436   1.377   0.560 -0.0124 -0.0508  0.0716
11149W        W26280   2.715  11.287  14.742  0.0608  0.0799 -0.2704
11150W        W26281  13.277   7.414   3.723  0.0829  0.0255 -0.2035
11151W        W26282   8.519  10.369   1.180 -0.1273 -0.1345  0.0242
11152W        W26283   9.221   7.230   0.071  0.0153  0.2342  0.1829
11153W        W26284   9.556   4.956   5.034  0.0986  0.0731 -0.2473
11154W        W26285  10.014   9.090  14.458  0.1831  0.0753  0.2838
11155W        W26286   4.935  17.956   5.073  0.1069 -0.1223  0.1389
11156W        W26287  15.637  15.763   3.924  0.0914 -0.2836 -0.1625
11157W        W26288  16.950  12.282   0.482 -0.0410  0.0842  0.1196
11158W        W26289  15.083   0.078  15.294 -0.2112 -0.0134 -0.1778
11159W        W26290   3.083  15.850   3.409 -0.3352 -0.0558 -0.1781
11160W        W26291   8.932   6.429  14.910  0.0169  0.0658  0.1322
11161W        W26292   5.475  15.527   0.803 -0.0274 -0.1214 -0.0523
11162W        W26293  14.987   9.713  13.473 -0.1005  0.2876 -0.0789
11163W        W26294   4.223   0.451   2.475  0.0922  0.1084 -0.0458
11164W        W26295  11.716  17.307   1.772 -0.0490  0.1389  0.1737
11165W        W26296   8.645   7.839   2.036 -0.1467  0.1000  0.1542
11166W        W26297  14.516  13.576  11.049  0.1896  0.0750  0.1332
11167W        W26298  11.823   0.801  12.962 -0.1514 -0.0098 -0.0630
11168W        W26299  17.522  13.914  15.771 -0.0585  0.2886 -0.0729
11169W        W26300   1.604   3.624   3.943 -0.1084  0.0248  0.0391
11170W        W26301   8.922   6.299   3.146  0.0126  0.1459 -0.0329
11171W        W26302   0.321   6.073   2.751  0.2253 -0.0044  0.1856
11172W        W26303   3.684   8.890  15.705  0.5720 -0.1725 -0.0096
11173W        W26304  17.921  15.926   3.774  0.2481  0.0880 -0.1410
11174W        W26305  10.606  13.856  10.375  0.0194  0.2219  0.1309
11175W        W26306   4.615  17.500   4.645  0.0671 -0.0282  0.1209
11176W        W26307   4.677  14.008  15.602 -0.3105  0.0177  0.0581
11177W        W26308   7.486   9.937  14.679 -0.1261  0.0922 -0.1195
11178W        W26309   7.674   1.076   5.747 -0.1972 -0.2223  0.0386
11179W        W26310   3.872  12.232   3.775 -0.3297  0.0179 -0.0220
11180W        W26311   7.238   4.894   2.552 -0.0439  0.0187 -0.0965
11181W        W26312  16.632   5.706   5.529  0.1042 -0.0064 -0.1293
11182W        W26313   2.111  11.738   1.869 -0.2285  0.1291  0.1239
11183W        W26314   7.373  10.472   5.288 -0.1204 -0.0352  0.1768
11184W        W26315   5.923  17.907   1.789  0.0842  0.0200 -0.0466
11185W        W26316   1.102  16.755  13.737 -0.0131  0.0810 -0.2790
11186W        W26317  10.820   4.875   5.573  0.1152 -0.0524 -0.0065
11187W        W26318   0.121   7.092   5.082 -0.2362  0.0581 -0.1805
11188W        W26319  13.637   5.740  12.826 -0.1848  0.1258  0.0158
11189W        W26320  13.051  11.746   5.966 -0.3167  0.1111 -0.0944
11190W        W26321  12.271   5.067  13.445  0.0245 -0.1432  0.2198
11191W        W26322   2.597   6.895   3.257 -0.2837 -0.0881 -0.0767
11192W        W26323   4.109  12.009  14.213  0.0614  0.0524  0.0655
11193W        W26324   2.490   3.492   5.522 -0.1711 -0.0564 -0.1913
11194W        W26325   1.715   3.612   3.393 -0.0144  0.3451  0.0181
11195W        W26326  10.750  13.090  13.403  0.1945  0.0324 -0.2413
11196W        W26327   5.010   3.629   5.631 -0.1843  0.1693 -0.0458
11197W        W26328  10.138   4.928  12.821  0.3168 -0.0894 -0.0052
11198W        W26329   1.530   0.034   4.859 -0.1221 -0.2139 -0.2348
11199W        W26330   8.812   5.707  16.087  0.0796 -0.3149 -0.0552
11200W        W26331  16.051   6.193   3.914 -0.0331  0.0865  0.1788
11201W        W26332   4.496  11.846  11.552  0.1206 -0.0066  0.1264
11202W        W26333   9.144  14.832   6.051  0.2249 -0.1801  0.0116
11203W        W26334  12.287   5.019   4.780 -0.0896  0.0600  0.1531
11204W        W26335   7.118   8.507   0.460 -0.0975  0.1005 -0.0025
11205W        W26336   8.694   8.033   1.602  0.1745  0.0251  0.1699
11206W        W26337   2.877  13.981  11.491  0.2074  0.2224  0.1502
11207W        W26338   4.833   9.197  15.493 -0.1940  0.0389 -0.0382
11208W        W26339  11.538  13.953  11.100  0.0387 -0.0984 -0.1235
11209W        W26340  14.275  17.632   2.813 -0.0388 -0.2269  0.0851
11210W        W26341  16.613   1.335   5.410 -0.1132 -0.3000 -0.2320
11211W        W26342  15.111   5.619  14.722 -0.2475  0.1138  0.1862
11212W        W26343   5.895  14.790  12.028 -0.0071 -0.0921  0.0310
11213W        W26344   4.053   0.126   0.075 -0.0248  0.0606 -0.3331
11214W        W26345   9.166   5.410   4.317  0.2687  0.1940  0.1314
11215W        W26346   9.700  16.377  16.241 -0.0464 -0.0578 -0.1962
11216W        W26347  15.753  16.776   3.754 -0.0544 -0.1496 -0.2702
11217W        W26348   6.354   5.679  14.365  0.0944  0.0111  0.0494
11218W        W26349  17.643  15.365  15.526 -0.0054 -0.0704  0.2846
11219W        W26350  18.005  16.963   5.271  0.0120 -0.0015  0.0846
11220W        W26351  14.180   2.285   5.277 -0.1565 -0.0879 -0.2068
11221W        W26352   4.580   1.833   9.895  0.2515  0.0322 -0.0569
11222W        W26353   2.907   0.475  14.120  0.0279 -0.0598  0.3232
11223W        W26354   4.670   1.230   0.355  0.0961  0.0963  0.0237
11224W        W26355  17.985   6.701   0.589 -0.2946 -0.4844  0.1785
11225W        W26356   6.084  10.942  12.503 -0.2129 -0.0052 -0.2593
11226W        W26357   4.313   9.150   4.143  0.1626  0.2404 -0.1671
11227W        W26358   3.059   7.889  13.110 -0.0201 -0.0995  0.0883
11228W        W26359   4.770   3.537   3.054  0.0083  0.1201 -0.1904
11229W        W26360   3.587  12.444  12.021 -0.1029 -0.0545  0.1817
11230W        W26361   2.271   7.466   5.766 -0.1682 -0.0898 -0.1436
11231W        W26362  13.690   9.078   4.291  0.0551  0.1661 -0.1545
11232W        W26363  10.908  12.827  16.068 -0.0670 -0.2704 -0.1547
11233W        W26364  10.199   5.285  14.740 -0.0161 -0.0415  0.0601
11234W        W26365   1.327   8.099   4.650 -0.0594  0.0077 -0.0109
11235W        W26366   3.511   0.668  11.894  0.1141 -0.0035  0.1139
11236W        W26367  16.121   5.290   5.955  0.0113 -0.1541  0.3567
11237W        W26368   6.380   1.672  15.700 -0.1900  0.4609  0.0234
11238W        W26369   4.236  13.626   2.109  0.2207 -0.0525  0.2706
11239W        W26370  15.532  15.318  13.741  0.1001  0.2333 -0.2956
11240W        W26371   5.039   3.884   4.813 -0.2591 -0.3321  0.0726
11241W        W26372  17.397  12.036  11.067 -0.0725 -0.1586 -0.2959
11242W        W26373  15.655   1.291   1.491 -0.0243  0.1089  0.0503
11243W        W26374   4.532   1.987   2.017  0.1187 -0.4991 -0.0819
11244W        W26375   2.497  15.199   3.562  0.1142 -0.0196  0.0256
11245W        W26376  10.511   9.886  13.582 -0.3552 -0.0693  0.0118
11246W        W26377   4.218   9.954   3.515  0.1201  0.1687  0.3966
11247W        W26378  14.716  10.260   0.213 -0.1543  0.2198  0.1211
11248W        W26379  16.804   8.677   3.938 -0.1031 -0.4115  0.2347
11249W        W26380  12.223  13.768   0.661  0.0122  0.0234 -0.0318
11250W        W26381  16.850  11.851  14.054 -0.0100  0.1316 -0.2323
11251W        W26382   3.424   9.610  10.543  0.0310 -0.0635 -0.2151
11252W        W26383  13.823   3.755  11.781 -0.1491 -0.0155  0.1191
11253W        W26384  13.213  11.054  12.720  0.1633 -0.0407  0.0525
11254W        W26385  14.557   8.151  11.834 -0.1153  0.0773  0.1300
11255W        W26386   5.314   1.694   2.230 -0.1858  0.0737  0.2408
11256W        W26387  17.065  16.063   4.827 -0.1306  0.0063  0.0702
11257W        W26388   2.284   4.546   1.319  0.2215  0.1670 -0.0813
11258W        W26389   8.132   0.481   0.251 -0.1457 -0.3290 -0.3766
11259W        W26390  12.452  12.579  12.708 -0.0971  0.0263  0.2607
11260W        W26391   1.189  14.553   3.659 -0.0620 -0.0305  0.0156
11261W        W26392  13.023  10.743   3.489 -0.1547  0.4049  0.4191
11262W        W26393  12.323   9.006  14.145 -0.0665 -0.0711  0.0500
11263W        W26394   6.227   0.479   4.798  0.2407  0.5548  0.1832
11264W        W26395  14.999   3.103   5.228 -0.0518 -0.0591  0.2558
11265W        W26396  15.472   2.047  11.968  0.1512  0.2528  0.2106
11266W        W26397   2.711  10.564  15.781 -0.1623 -0.0167 -0.1826
11267W        W26398  15.123   4.904   2.342  0.2000 -0.1558 -0.0881
11268W        W26399   2.797  11.792   4.926 -0.0370 -0.1086  0.0919
11269W        W26400   5.286  10.164  11.104 -0.1221  0.1529 -0.3344
11270W        W26401   3.198   0.635   4.887 -0.0172  0.0278  0.0476
11271W        W26402   6.917  17.431  12.979 -0.0197 -0.1169 -0.0115
11272W        W26403   3.784  16.681   0.895  0.1221 -0.2411 -0.1351
11273W        W26404   2.797   5.296   1.263 -0.0461 -0.0871  0.4663
11274W        W26405   4.405  17.786   3.055 -0.0318  0.1404 -0.2245
11275W        W26406   8.166  16.600  11.235 -0.2571  0.0078  0.2193
11276W        W26407   0.686   6.668   0.856  0.1568 -0.0162 -0.2073
11277W        W26408  14.999  15.462  10.817 -0.2057  0.3255  0.0337
11278W        W26409   2.467  15.619   0.108 -0.1006 -0.2885 -0.0111
11279W        W26410  12.431  15.823  15.355  0.0803 -0.2868 -0.1275
11280W        W26411  17.194   2.374  13.760 -0.1031 -0.2310 -0.0432
11281W        W26412   5.621  11.478  14.300  0.0242  0.0419 -0.2081
11282W        W26413   5.976  15.226  13.930  0.1183 -0.0037  0.0271
11283W        W26414   6.733   2.183   1.582 -0.1566 -0.0989  0.0561
11284W        W26415   9.123   7.925   5.437 -0.0516  0.0355  0.1248
11285W        W26416  10.321  14.669  15.971 -0.1753  0.0347 -0.2462
11286W        W26417   5.445  15.530   4.314  0.2268 -0.2667  0.1941
11287W        W26418  15.094  17.734  15.898  0.0303 -0.2876 -0.3943
11288W        W26419   4.007   0.617  14.256 -0.2180  0.0482 -0.1524
11289W        W26420   9.026   4.453   1.609  0.1604 -0.1612 -0.2050
11290W        W26421  13.654  15.021   5.865  0.2791 -0.0177 -0.3300
11291W        W26422  13.180   8.196   3.591 -0.0021 -0.0468 -0.3303
11292W        W26423  14.924   5.273   0.151  0.2475 -0.0106 -0.2589
11293W        W26424  11.085   2.583  13.665 -0.1634 -0.1138 -0.2468
11294W        W26425   0.577  11.714   5.280  0.1673  0.0085  0.3079
11295W        W26426  17.097  13.625  11.765  0.0680 -0.3083  0.0396
11296W        W26427   0.500  17.018   5.177 -0.0268  0.1072  0.0938
11297W        W26428  13.271   8.267   3.142  0.2719 -0.0765 -0.0119
11298W        W26429   1.210  17.666  13.947  0.1586 -0.2734  0.0725
11299W        W26430   6.671  17.647   2.383  0.1837  0.1987 -0.0173
11300W        W26431  15.793   3.842  11.790  0.0528 -0.4099  0.0424
11301W        W26432  15.372   8.505  14.511 -0.0188  0.1651 -0.0693
11302W        W26433  14.845   3.568   3.646  0.1148 -0.1503 -0.1546
11303W        W26434   2.582  17.195  14.854  0.0853  0.0619  0.1770
11304W        W26435   7.164  17.108  12.067  0.0804  0.0960 -0.0794
11305W        W26436  11.626   7.186  10.300  0.1276 -0.1680  0.0892
11306W        W26437  11.589   5.444   5.427  0.2507  0.0645  0.3020
11307W        W26438  14.009  13.195  12.459 -0.2331 -0.1743  0.2819
11308W        W26439  17.621  12.542  15.309  0.1689  0.2479 -0.1430
11309W        W26440  16.284  10.739   2.052  0.1615 -0.1189  0.0086
11310W        W26441  16.858  11.386   5.083 -0.0078 -0.0770 -0.0088
11311W        W26442  14.115  10.095   1.358  0.2435  0.2123 -0.0892
11312W        W26443  13.507   8.406  11.315 -0.0102 -0.1674 -0.1791
11313W        W26444   7.952  17.643  14.460  0.1328 -0.0338 -0.2934
11314W        W26445  12.991  10.506   3.042 -0.1868  0.2215  0.0572
11315W        W26446  13.534  13.286   2.685 -0.0835  0.0532  0.0361
11316W        W26447   9.973   0.993   5.177  0.1351 -0.2132  0.2416
11317W        W26448   8.116   7.828  11.612 -0.1583  0.1961 -0.0045
11318W        W26449  13.725   8.295   3.920 -0.0344  0.0097  0.0001
11319W        W26450  11.707   0.156  15.693  0.0278 -0.3113  0.0860
11320W        W26451  15.999  10.333   2.859  0.0367  0.1647  0.1244
11321W        W26452   4.933  15.683  15.662  0.1476  0.0252 -0.1340
11322W        W26453   3.008  13.982  12.229 -0.0095  0.1753  0.2337
11323W        W26454  10.405  12.549   3.904  0.4032 -0.0836 -0.0074
11324W        W26455   2.185   2.118  11.419 -0.3436  0.1622  0.1547
11325W        W26456  11.198   0.507  14.097  0.1446 -0.0658  0.0206
11326W        W26457   6.357   2.554   2.378  0.0259 -0.1530  0.2236
11327W        W26458   9.692   3.853   1.199  0.1084  0.0884 -0.0494
11328W        W26459   0.944   4.935  14.159 -0.4307 -0.0381  0.0641
11329W        W26460  14.221   0.594   1.823  0.1106  0.0775  0.2082
11330W        W26461  13.292  15.061  13.009 -0.2081 -0.0986  0.1655
11331W        W26462  15.435   8.579   3.392 -0.2140  0.1181  0.1218
11332W        W26463  13.558   9.806  12.330 -0.2189  0.1324 -0.0307
11333W        W26464  16.421  15.242  13.245  0.0445 -0.0237 -0.0287
11334W        W26465   4.224   1.263   2.258 -0.0228 -0.1115 -0.2067
11335W        W26466   6.317   4.474  14.061  0.1421  0.0353  0.0843
11336W        W26467  12.258   5.051   3.301  0.1598 -0.0734  0.0498
11337W        W26468   5.210   4.288  15.938  0.1735  0.0455 -0.0741
11338W        W26469   6.241   6.335   5.566 -0.1455  0.1177  0.2516
11339W        W26470  18.000  12.466   6.329  0.0674 -0.1460 -0.2498
11340W        W26471  10.564   9.482  14.570 -0.3789  0.1787 -0.1642
11341W        W26472  13.115  12.729  15.378  0.0022  0.1169  0.2457
11342W        W26473  12.746   8.277   3.983  0.0969 -0.4097 -0.1035
11343W        W26474  12.071   2.515  15.138  0.1054 -0.0715 -0.0357
11344W        W26475   1.237  13.518  12.846  0.1861 -0.2665 -0.2600
11345W        W26476   2.886  11.068   2.940  0.0045 -0.0563  0.1421
11346W        W26477   6.995   8.295  12.417  0.3797  0.1248 -0.0580
11347W        W26478  17.783  11.987   4.909  0.2471 -0.0109 -0.1367
11348W        W26479   1.415   4.930  15.826 -0.1011 -0.0805  0.1925
11349W        W26480   9.649  11.381   5.289 -0.0127 -0.2173 -0.2114
11350W        W26481   9.977   4.738   4.302 -0.0036 -0.0663  0.3285
11351W        W26482  15.239   8.486   2.851  0.2296 -0.2255  0.1499
11352W        W26483   8.715   9.051  15.296 -0.1188  0.0165 -0.2972
11353W        W26484   6.430   7.101   3.344  0.0553 -0.2719  0.1145
11354W        W26485   4.832   0.132   4.648  0.0186 -0.0561 -0.0089
11355W        W26486   8.901  14.843   1.266 -0.0105 -0.0429  0.1814
11356W        W26487   7.163   8.217  14.701 -0.0197 -0.0017  0.2088
11357W        W26488   9.514   9.283  13.006 -0.3220  0.2372  0.2854
11358W        W26489   9.245  15.162   5.332 -0.1657 -0.1337 -0.1860
11359W        W26490   1.714   1.975   2.139 -0.1246 -0.0555  0.0124
11360W        W26491  15.619  17.451  11.950 -0.0672 -0.1372 -0.0499
11361W        W26492  10.028  10.361  14.439  0.0673 -0.0930 -0.0952
11362W        W26493  10.519   0.533   2.448 -0.0407  0.0108  0.0593
11363W        W26494  16.465  10.852   1.317  0.1194 -0.2528 -0.0787
11364W        W26495   3.697  17.802   3.035 -0.1996 -0.0025 -0.1127
11365W        W26496   4.476   6.706   2.097 -0.0679  0.3816  0.0764
11366W        W26497   1.867  14.997   0.099 -0.2126 -0.0980  0.1302
11367W        W26498   6.628   6.391  11.267  0.1832 -0.4808  0.0734
11368W        W26499  16.233  14.668  13.835  0.1132  0.0082 -0.1915
11369W        W26500  15.572   4.891   0.180  0.0538  0.0990 -0.0500
11370W        W26501  15.167  15.529  12.324  0.2297 -0.4541 -0.1830
11371W        W26502  13.773  16.918   0.164 -0.2785 -0.0751 -0.0112
11372W        W26503   6.087   7.010  15.297  0.1971  0.2492  0.1519
11373W        W26504   1.330   1.885   4.795 -0.0937  0.0271  0.0345
11374W        W26505   6.375  15.335   0.676 -0.1533 -0.0326  0.3937
11375W        W26506   9.984   4.660  13.240 -0.0661  0.2280 -0.3132
11376W        W26507   4.146   6.461   5.781  0.1314  0.2437  0.1953
11377W        W26508   7.748   2.142   2.996 -0.3165  0.0560 -0.1719
11378W        W26509   5.828  10.894   3.829  0.0503 -0.0061  0.1631
11379W        W26510  14.045  18.011  12.787 -0.1002  0.1634 -0.1079
11380W        W26511  12.971   3.707   3.337  0.0863  0.1075 -0.2020
11381W        W26512   6.970  17.105  11.570 -0.1899  0.2500  0.0979
11382W        W26513   3.986   5.792  13.967 -0.0603 -0.1138  0.1211
11383W        W26514  14.149   9.729   3.616  0.3248  0.0149 -0.1165
11384W        W26515   6.102   6.573  15.043  0.0916 -0.1686 -0.1624
11385W        W26516  14.804   0.265   2.571  0.1280 -0.0908  0.0693
11386W        W26517  12.036   8.467  16.177 -0.0618  0.0768 -0.0582
11387W        W26518   6.907  17.417   4.815  0.1013 -0.0173  0.0718
11388W        W26519  13.602  13.048   3.216  0.0260  0.1638 -0.0768
11389W        W26520  15.366   9.846   3.124  0.2300 -0.0139 -0.1466
11390W        W26521  17.648   5.238  12.947  0.0294 -0.0138  0.1342
11391W        W26522  14.022  12.297   1.232 -0.3388  0.3097  0.1151
11392W        W26523   6.397   9.542  11.690 -0.1506 -0.1135  0.2915
11393W        W26524  11.333   3.730   3.605 -0.1710 -0.2278 -0.0359
11394W        W26525   0.414  16.645  13.523 -0.0106  0.1657 -0.1297
11395W        W26526   6.354  12.333   0.387  0.0882  0.1304  0.1121
11396W        W26527  13.624   8.498   2.954 -0.2568 -0.4115 -0.3510
11397W        W26528  10.898  13.076   2.284 -0.1581 -0.0966 -0.2348
11398W        W26529   3.058  10.514  13.142  0.1050 -0.3761 -0.1146
11399W        W26530  15.277   2.260  14.525 -0.0413  0.0263  0.0615
11400W        W26531   7.274  15.561   0.946  0.1920 -0.0018 -0.0073
11401W        W26532   7.042  16.222  12.109  0.1793  0.2729 -0.1078
11402W        W26533   3.665   7.120   0.937 -0.1518  0.2515  0.4784
11403W        W26534   8.359   4.419  14.956  0.2456  0.1934 -0.0915
11404W        W26535  11.053   4.971  12.734  0.0175  0.0951 -0.0785
11405W        W26536  15.123  15.830   1.194  0.0371 -0.1388 -0.1941
11406W        W26537   6.758   6.736  14.421  0.1675  0.0377 -0.0257
11407W        W26538  13.208  12.774  11.416  0.2193  0.0857  0.0712
11408W        W26539   7.490   1.116   0.166 -0.1085  0.1391  0.0622
11409W        W26540   4.081   8.032  13.061  0.2705  0.0424  0.2606
11410W        W26541  15.389  12.011  16.240 -0.1041  0.0767 -0.0613
11411W        W26542  12.132   0.024   3.254  0.0911  0.4781  0.0060
11412W        W26543   6.401   6.868  11.344 -0.0192  0.2578  0.1970
11413W        W26544   3.767  17.749  11.131  0.1571 -0.1968  0.0637
11414W        W26545   3.503   0.789   1.093  0.1263  0.1357 -0.0080
11415W        W26546  10.148  14.469   3.445  0.1658  0.1485 -0.1050
11416W        W26547   0.612   8.839   4.737 -0.0596  0.1153  0.1920
11417W        W26548   4.724  10.190   2.201  0.3664 -0.1543 -0.0082
11418W        W26549   4.585  11.617   0.839 -0.2880 -0.0048  0.0292
11419W        W26550   7.479   9.803   2.308  0.1510 -0.1083  0.0427
11420W        W26551   3.927   1.015  11.849 -0.2515 -0.1977 -0.1644
11421W        W26552   1.815  12.107   1.600 -0.0388  0.1346 -0.0180
11422W        W26553   2.946   5.378  14.461 -0.1043 -0.0535 -0.2920
11423W        W26554  17.095  15.268   5.203  0.0183  0.0847  0.1484
11424W        W26555   2.148  14.383   3.375  0.2269  0.1823 -0.0662
11425W        W26556   9.503  17.096  10.899 -0.3705 -0.0305  0.1657
11426W        W26557   5.658  13.480  12.219  0.1127 -0.2280 -0.1142
11427W        W26558   3.038   3.081   0.952  0.1545  0.2226 -0.2823
11428W        W26559  15.702  11.604  11.915  0.1225 -0.2958  0.2096
11429W        W26560   4.960   1.860   0.777  0.0780  0.2379  0.0064
11430W        W26561  16.166  13.058  10.691  0.0140 -0.0857  0.0859
11431W        W26562  12.881  17.197  14.428  0.1706 -0.2069 -0.0482
11432W        W26563  11.815  15.743   5.238  0.0674  0.1271  0.0121
11433W        W26564   7.080   5.334   4.887 -0.0441  0.1255 -0.0078
11434W        W26565   9.761  15.249   0.040  0.1815 -0.1302  0.2158
11435W        W26566  13.647   5.324   0.909  0.0469  0.1827  0.2725
11436W        W26567  15.159   2.701  16.205 -0.0110  0.1297  0.1212
11437W        W26568   1.788   0.264   4.437 -0.1118  0.4707 -0.1582
11438W        W26569   0.337   0.996   3.364  0.0241  0.1584  0.2282
11439W        W26570   8.667  11.669  11.727 -0.0455  0.1225  0.1826
11440W        W26571   2.121   1.513   2.389  0.0345 -0.0080 -0.1497
11441W        W26572   2.959   6.673  15.568  0.2051 -0.2349 -0.1192
11442W        W26573  14.854  10.891  10.530  0.2919  0.2179 -0.2133
11443W        W26574  17.515  12.411  11.475  0.1047  0.0647 -0.1981
11444W        W26575   0.318  16.597   3.973 -0.0366 -0.0796  0.0699
11445W        W26576   1.436   5.923   4.372 -0.2435  0.0347 -0.1602
11446W        W26577   8.918  12.013  14.849  0.0532  0.1539 -0.2007
11447W        W26578  12.158  10.300   3.685 -0.1259  0.1038  0.1282
11448W        W26579  18.053  17.832  12.485  0.4081  0.0710  0.0133
11449W        W26580  15.914   1.081   0.174 -0.2299 -0.4202 -0.0455
11450W        W26581   6.599   6.471  13.947  0.0440 -0.1102 -0.0507
11451W        W26582  12.180  11.791   2.167 -0.0587 -0.1389  0.3137
11452W        W26583   9.691  11.932   4.287  0.2604  0.2027  0.1065
11453W        W26584  15.534   4.084   4.536  0.1303 -0.2424 -0.0127
11454W        W26585  17.134  12.688   5.937  0.0491 -0.0388 -0.3577
11455W        W26586   0.781   2.701  10.376 -0.0853 -0.1199  0.0611
11456W        W26587  14.113  10.837   1.322 -0.3446 -0.1395  0.0322
11457W        W26588  13.080   0.659   2.655 -0.2480  0.2375  0.2100
11458W        W26589  15.030  17.815  13.580 -0.0733  0.2477  0.2262
11459W        W26590  16.160   3.123  12.610 -0.2625  0.2047  0.0257
11460W        W26591   9.813   1.005   2.511  0.0984  0.1578 -0.0295
11461W        W26592   2.296   6.836   2.320  0.1144  0.1157 -0.0677
11462W        W26593  17.082  14.130   3.020  0.2514 -0.1704  0.0721
11463W        W26594   8.999  16.964   3.987  0.2729 -0.0535 -0.2764
11464W        W26595  18.102  16.517   5.067  0.0608  0.0470  0.1363
11465W        W26596  13.959   8.873  13.487  0.0266  0.1666  0.0324
11466W        W26597   2.816   0.965  14.847  0.1014  0.1851 -0.0241
11467W        W26598   1.504   5.602   1.690 -0.2320  0.1948  0.0120
11468W        W26599  11.428   9.043  14.074  0.2800  0.0456  0.2151
11469W        W26600   3.254  10.128   4.379  0.2330  0.1679  0.0529
11470W        W26601   1.413  12.367  12.689  0.2063  0.1713  0.2974
11471W        W26602   3.844   4.331  11.167 -0.0236 -0.2313 -0.2036
11472W        W26603   9.758   3.142   3.792  0.1452 -0.1283  0.0690
11473W        W26604  10.900   1.676   3.573 -0.0408 -0.4556  0.1052
11474W        W26605  14.023   6.138   2.544  0.1157 -0.2362 -0.1815
11475W        W26606   3.439   3.778   2.578  0.1627  0.0788  0.1196
11476W        W26607  17.107  12.300   4.119 -0.0245 -0.0059  0.0645
11477W        W26608   8.732   8.340  13.468  0.0237 -0.0853 -0.2001
11478W        W26609  14.641   5.806   3.947  0.0230  0.0382 -0.2056
11479W        W26610  10.794   4.541  13.343  0.0812  0.0571 -0.0906
11480W        W26611   4.752  11.763   3.894  0.0690 -0.0309 -0.2206
11481W        W26612   3.101   4.916  11.944 -0.3845  0.1163 -0.1233
11482W        W26613  11.837   0.040   4.588  0.0668 -0.2303 -0.1586
11483W        W26614  18.064   6.616   3.368 -0.1655 -0.0130 -0.3972
11484W        W26615   4.486  16.355  10.278 -0.0141 -0.1373  0.4325
11485W        W26616   3.087   1.416  13.955  0.2404 -0.2237 -0.0658
11486W        W26617   3.786  10.473  13.712  0.1152 -0.2117  0.0994
11487W        W26618   4.238  15.542  11.320  0.1998 -0.2691 -0.1482
11488W        W26619  16.823  12.289   4.517 -0.2177  0.1265  0.0056
11489W        W26620   9.323   9.764  10.957  0.1292  0.1559  0.2139
11490W        W26621   9.251   9.086  14.890 -0.2203 -0.0042  0.0796
11491W        W26622  14.024  13.207  13.878 -0.0452  0.0978  0.1311
11492W        W26623   8.639  12.762  13.711  0.0747  0.1114 -0.1568
11493W        W26624   3.252  13.161  10.477 -0.1262 -0.2666  0.0718
11494W        W26625   2.577   5.400   2.086 -0.2108 -0.0138 -0.1761
11495W        W26626   9.094   2.365  12.023  0.1310 -0.1242 -0.0981
11496W        W26627  17.097   3.659   2.588 -0.4055  0.1403 -0.0240
11497W        W26628  15.924  14.806   1.074 -0.0218  0.1713  0.0432
11498W        W26629   3.808  17.799  16.099  0.1527 -0.0472  0.1414
11499W        W26630   3.720   9.104  11.380 -0.3199  0.3325 -0.1631
11500W        W26631   0.132  10.359   3.221 -0.1640  0.0419  0.0320
11501W        W26632  14.028   2.946   1.932  0.1581 -0.0074  0.3016
11502W        W26633   8.109   2.377   4.620 -0.2704 -0.0279  0.1115
11503W        W26634  14.825   0.304  12.490  0.2908 -0.0466 -0.0724
11504W        W26635   8.063   1.066  11.517 -0.1433 -0.0331  0.0724
11505W        W26636   4.484  12.637  11.021 -0.0895  0.3156  0.0977
11506W        W26637   7.134  14.562  14.393 -0.0980 -0.0668 -0.1910
11507W        W26638   0.957  13.585   4.624  0.0629  0.1048 -0.1710
11508W        W26639  14.988   5.518   4.127 -0.0293  0.1818 -0.1662
11509W        W26640  13.633   0.711   4.567 -0.0170  0.2109 -0.1845
11510W        W26641   3.908   3.824   1.919 -0.0508  0.0964  0.0006
11511W        W26642  12.788   0.502   5.036  0.1439  0.1427 -0.2483
11512W        W26643   5.289   7.381  15.218 -0.3473  0.1263  0.1507
11513W        W26644   1.715  13.643  14.380 -0.1117 -0.2333  0.0208
11514W        W26645   5.771  16.561   5.202 -0.0908 -0.0917 -0.0655
11515W        W26646  10.032   3.765   2.571  0.0474  0.0662  0.0909
11516W        W26647   7.046   9.229  14.213 -0.1838 -0.1694 -0.1585
11517W        W26648  12.961  17.052  13.314  0.0410 -0.2363 -0.0238
11518W        W26649  16.877  12.913  11.119 -0.1176  0.0504  0.1204
11519W        W26650  15.204   8.153   3.514 -0.0945 -0.0981  0.1242
11520W        W26651   6.484   0.497  13.772 -0.0654 -0.0022  0.0626
11521W        W26652   4.118  10.034   1.766 -0.0481 -0.1086 -0.1373
11522W        W26653   1.263   1.602   2.860 -0.2131 -0.1430 -0.0197
11523W        W26654  12.710   5.893  14.714  0.0335 -0.1076  0.0817
11524W        W26655   6.284   4.881   1.815 -0.1269 -0.1138  0.2128
11525W        W26656   1.150  10.583  11.947 -0.0181  0.0517  0.2904
11526W        W26657   5.131   9.017   3.748 -0.0587 -0.1399 -0.1008
11527W        W26658  15.438  11.672   5.289 -0.2420  0.1253 -0.2208
11528W        W26659  13.301  14.968  11.107 -0.0958 -0.0465  0.0232
11529W        W26660  13.746  12.055   2.224 -0.0229 -0.3529 -0.2512
11530W        W26661   4.050   1.839   4.856  0.2282  0.1291 -0.0265
11531W        W26662  17.950  16.269  14.117 -0.1557 -0.2126 -0.1834
11532W        W26663   7.449   8.290  12.169  0.3529  0.3305 -0.0090
11533W        W26664   9.029   1.451   2.259 -0.0011  0.1136 -0.0257
11534W        W26665  16.555  10.996  14.837  0.1346 -0.4263 -0.2329
11535W        W26666   0.660  15.747   4.193  0.1391 -0.3198 -0.1518
11536W        W26667  11.437   2.136   0.720  0.1127 -0.1704 -0.0162
11537W        W26668  10.914   6.855  15.737  0.0102 -0.3442  0.0337
11538W        W26669  10.130   7.983   3.014  0.0259 -0.0912 -0.1715
11539W        W26670   2.182  15.089  13.017  0.0020 -0.0122  0.3286
11540W        W26671   6.053   9.181  11.910  0.3454  0.0691 -0.1780
11541W        W26672  15.458  12.071   5.733  0.0682  0.0421 -0.0415
11542W        W26673   9.015   6.807   1.348 -0.0920 -0.1721 -0.2489
11543W        W26674   6.703   2.807   0.133  0.3270  0.1378  0.0459
11544W        W26675   3.054  15.723   1.356  0.2516 -0.2894 -0.2223
11545W        W26676  10.086   8.549   3.517 -0.3360 -0.0439  0.2805
11546W        W26677   2.219   2.411  12.849 -0.2425  0.0019  0.2853
11547W        W26678  10.204   9.019  15.659  0.0692  0.1118 -0.1001
11548W        W26679  12.976   9.943   1.400 -0.1149  0.1082  0.0347
11549W        W26680   8.981   7.516   3.030  0.1340  0.3073  0.0061
11550W        W26681   8.395   1.363  11.187  0.1827  0.2112  0.0853
11551W        W26682  12.614   1.298   3.103 -0.1039  0.2049 -0.1247
11552W        W26683  15.409   8.428   5.751 -0.1412 -0.0737 -0.1392
11553W        W26684  12.447  12.904   0.199  0.0187 -0.0213 -0.2391
11554W        W26685   6.052   7.879   1.900 -0.2911 -0.1778  0.1903
11555W        W26686   2.971  15.653   4.757  0.1374 -0.0347 -0.0365
11556W        W26687   0.397   3.271  14.601 -0.3021  0.0581  0.1379
11557W        W26688   3.996  13.798   0.494 -0.0412  0.0522  0.1789
11558W        W26689  16.652   6.750   1.882 -0.0644 -0.0613  0.4327
11559W        W26690   8.697   8.179  12.182  0.1456  0.4750  0.0624
11560W        W26691  15.368  16.759   0.987 -0.0911  0.0753  0.1099
11561W        W26692   5.270   6.107  13.269 -0.1468  0.0058  0.4736
11562W        W26693  10.054  14.295  13.437  0.3074  0.1831 -0.2188
11563W        W26694  16.169   1.168   3.779  0.2164  0.1629 -0.1947
11564W        W26695   8.403   1.666   4.105  0.0723  0.0687  0.0765
11565W        W26696   4.913   8.099  11.861 -0.0043 -0.0299 -0.2230
11566W        W26697  17.087  10.875   3.919  0.1587  0.0710  0.2463
11567W        W26698  10.574   2.489   0.338  0.0571  0.1259 -0.2151
11568W        W26699  15.929   0.830  12.579 -0.2107  0.1977  0.0974
11569W        W26700   4.353   7.484  11.389  0.1149  0.1883  0.0305
11570W        W26701  17.675   6.872  12.667  0.1496  0.0824  0.0565
11571W        W26702  11.138   3.528   1.210 -0.1338  0.1399 -0.3859
11572W        W26703  10.048  12.871   1.833 -0.0472 -0.2894  0.0217
11573W        W26704   3.096  11.806  12.110 -0.0522 -0.1483  0.0466
11574W        W26705   6.333  17.334  13.461 -0.1713  0.0024 -0.0524
11575W        W26706  12.457   1.501  11.722  0.3052 -0.2758 -0.1852
11576W        W26707   4.880   6.815  13.370  0.0199 -0.0453  0.2583
11577W        W26708  14.130  11.435   4.622 -0.2245  0.0090  0.1753
11578W        W26709   9.762   5.012  11.106  0.2811 -0.1772 -0.2262
11579W        W26710  13.240   5.606   2.857 -0.2543  0.1624  0.0842
11580W        W26711   8.080  13.699   3.296  0.0317 -0.1640 -0.1814
11581W        W26712   3.982  12.504  11.055 -0.0653 -0.0095 -0.1704
11582W        W26713  10.518  13.603   1.193 -0.1900  0.1766 -0.0361
11583W        W26714   0.736   6.238  13.999 -0.0597  0.2786  0.0252
11584W        W26715  13.087  15.615   3.002  0.0104 -0.0759 -0.1394
11585W        W26716   3.454   7.038  11.479 -0.3319  0.1846 -0.1244
11586W        W26717   1.536   4.066   1.658 -0.0916  0.1029  0.1812
11587W        W26718  10.974  15.783   1.540 -0.4150 -0.1695 -0.0915
11588W        W26719  15.393  17.567   0.147 -0.2284 -0.3403  0.2011
11589W        W26720  10.176   5.297  11.868 -0.1960  0.0262  0.0111
11590W        W26721   7.051   0.456   2.284  0.0171 -0.3289  0.1202
11591W        W26722  10.382  12.964  12.516  0.2475  0.1737 -0.0979
11592W        W26723  17.525   6.782  13.976 -0.0234  0.0864 -0.1219
11593W        W26724  10.074  10.789  14.716 -0.0510 -0.1125 -0.2136
11594W        W26725  10.955  16.107   4.824 -0.3204 -0.0534  0.3757
11595W        W26726   9.112  15.010  14.108 -0.0213  0.2125 -0.2500
11596W        W26727  17.920   3.817  10.818  0.1083 -0.2800 -0.1203
11597W        W26728   2.223   5.524  11.575 -0.0100  0.0884  0.2119
11598W        W26729  14.036   3.648  16.069 -0.2893  0.1314  0.0431
11599W        W26730   9.155  16.340  10.336 -0.2585  0.0759  0.0651
11600W        W26731  14.395   1.884  14.141 -0.1219 -0.0474  0.2851
11601W        W26732   4.075   0.513   6.174 -0.3120  0.0741 -0.0157
11602W        W26733   8.674   4.902  15.566  0.0778  0.1609 -0.1558
11603W        W26734   8.673   9.583   3.394 -0.1093 -0.0035  0.0378
11604W        W26735   6.750  16.625   0.229 -0.2620 -0.0669  0.3098
11605W        W26736   4.079  15.990  12.162  0.2380  0.2481  0.0682
11606W        W26737   5.205   2.604   4.631  0.1883  0.0016 -0.1489
11607W        W26738  10.841   6.504  12.511 -0.2564  0.1126 -0.1068
11608W        W26739   2.216   7.791   4.558 -0.3331 -0.2121 -0.0490
11609W        W26740  13.206   1.312  13.863 -0.1104 -0.0845 -0.0522
11610W        W26741  12.851   8.474   3.321  0.2056 -0.0129 -0.1235
11611W        W26742   0.168   4.573   4.857 -0.2793 -0.1071  0.0644
11612W        W26743   8.214  17.374   1.891 -0.1012 -0.1245 -0.1166
11613W        W26744   7.982  16.949  11.657  0.0301  0.0543  0.0731
11614W        W26745  13.698   6.168   0.449 -0.2305  0.2367  0.1966
11615W        W26746   6.110  17.573   3.685 -0.0704  0.0765  0.0289
11616W        W26747   6.802  10.866  12.436 -0.2099 -0.0610 -0.0867
11617W        W26748  10.030  16.026   4.547  0.1995 -0.3847 -0.1723
11618W        W26749   0.951  13.541   3.673 -0.1587  0.0509 -0.2667
11619W        W26750  11.493   5.133   3.233 -0.0309  0.3298  0.0029
11620W        W26751   8.262  10.532   2.070  0.1625 -0.1376 -0.3722
11621W        W26752  16.407  10.909   0.757 -0.0922 -0.0975 -0.1119
11622W        W26753  10.398   4.090  14.124 -0.1753  0.1450  0.0784
11623W        W26754  15.080  17.538  10.613 -0.0175  0.0165  0.2032
11624W        W26755  15.161   8.830  14.150  0.0796  0.1823  0.1804
11625W        W26756   5.081  14.191  15.978  0.1430 -0.0427 -0.0428
11626W        W26757  10.286  10.424   2.212 -0.1267 -0.0631  0.0565
11627W        W26758  11.619  11.976  13.202  0.0361 -0.1708 -0.0491
11628W        W26759   5.637   6.897  15.076  0.0739 -0.2095 -0.2836
11629W        W26760   9.426  18.095   4.314 -0.1619 -0.2888 -0.0147
11630W        W26761   2.513   6.538   1.013  0.1651 -0.0678 -0.1267
11631W        W26762  13.684   2.236   3.177 -0.2497  0.2475 -0.3355
11632W        W26763  14.692  11.336   0.620 -0.1030 -0.0066 -0.3008
11633W        W26764   0.360  15.252  13.270 -0.2666 -0.1071  0.0527
11634W        W26765  16.572  16.772  10.964  0.1864  0.1681  0.1725
11635W        W26766   7.810   7.059  12.342  0.1259  0.3265 -0.3947
11636W        W26767  17.784   9.448   2.646 -0.0897  0.0705 -0.0951
11637W        W26768  11.386   6.870  11.775  0.1127  0.0103 -0.0670
11638W        W26769  15.832  10.288   1.321  0.1147  0.2833 -0.0890
11639W        W26770   8.564   4.704   4.057  0.0103  0.2034  0.0403
11640W        W26771   0.719   5.938  12.683 -0.3004  0.0992  0.0961
11641W        W26772   5.148  10.305   0.539 -0.2164 -0.0208 -0.1891
11642W        W26773   6.161  15.393   0.164 -0.0168 -0.1310  0.0037
11643W        W26774   7.878  12.051   1.584 -0.0599 -0.2649  0.4403
11644W        W26775   6.860  11.167  12.851  0.0243  0.1592  0.1084
11645W        W26776   8.659  14.778  13.467  0.0931  0.0788 -0.2303
11646W        W26777  14.789  13.097   0.995  0.4559 -0.2574 -0.0865
11647W        W26778  12.504   3.067  11.732 -0.1112 -0.0312 -0.1248
11648W        W26779   0.738   5.656   2.205 -0.2373 -0.3886 -0.0039
11649W        W26780   3.603  10.057  13.899 -0.1117 -0.1002 -0.1054
11650W        W26781  17.422  13.738  12.729  0.0395 -0.0943  0.6424
11651W        W26782  16.419  14.711   1.152  0.1030 -0.3340 -0.1650
11652W        W26783   6.679   2.368   2.816 -0.0889 -0.2510  0.0932
11653W        W26784  16.515   2.893  15.697 -0.2782 -0.2373 -0.2551
11654W        W26785  16.105   1.407   1.265  0.0300 -0.2288 -0.1483
11655W        W26786   2.265   7.253  15.809  0.1547 -0.1271 -0.1223
11656W        W26787  10.560  12.438  15.750 -0.1397  0.0293 -0.0921
11657W        W26788   4.423  14.239  13.033  0.1028  0.0360 -0.0658
11658W        W26789   5.597  17.792  10.729  0.0934  0.3573  0.1070
11659W        W26790   4.997   4.952  10.805 -0.0213 -0.1483 -0.2112
11660W        W26791  15.073   9.208   4.991 -0.0324 -0.1546 -0.2553
11661W        W26792  18.094  13.141  11.811  0.3673  0.0558 -0.3698
11662W        W26793  12.554  11.447   3.815 -0.0608  0.2328  0.0458
11663W        W26794   2.349   0.158  11.235 -0.0631 -0.1367  0.0965
11664W        W26795  11.922   9.677   0.288 -0.0834 -0.0596 -0.1874
11665W        W26796  12.304  17.849   4.959 -0.2528  0.2691 -0.0789
11666W        W26797   5.500  11.034   2.985 -0.1958 -0.1390  0.0610
11667W        W26798   2.808   1.949   2.114  0.0277 -0.1297 -0.2920
11668W        W26799  15.112  11.275  14.438 -0.0874 -0.1208  0.1005
11669W        W26800   9.773   6.082  14.215  0.2051 -0.0950 -0.1988
11670W        W26801   7.753   9.705  13.224 -0.0962 -0.1529  0.2374
11671W        W26802   3.560   9.379  13.194  0.0272  0.3816  0.2561
11672W        W26803  18.002  17.005  11.389  0.1805 -0.0242  0.2905
11673W        W26804   5.915   1.085  14.066 -0.0268 -0.0639 -0.1680
11674W        W26805  15.264   4.153   3.115  0.0708  0.0798 -0.1356
11675W        W26806   2.339  15.779   5.319  0.0603 -0.2192  0.1549
11676W        W26807   5.771   9.309   3.298  0.2186 -0.0998  0.1271
11677W        W26808  14.548   8.310   0.676 -0.1133  0.1945  0.1126
11678W        W26809  11.650  17.498   0.239 -0.1302  0.0045  0.0404
11679W        W26810  12.253  10.241  12.448 -0.0755 -0.3348  0.0268
11680W        W26811   7.357  17.793  16.040 -0.1167  0.1540  0.0990
11681W        W26812  16.396   7.891   2.409 -0.4795  0.1191  0.1017
11682W        W26813  14.909   3.809   1.678  0.0747  0.1778  0.0189
11683W        W26814   0.438  14.419  11.883 -0.0920  0.3653 -0.1613
11684W        W26815  13.330  17.820  10.512  0.1292  0.3620  0.2271
11685W        W26816  17.921   5.374  15.223 -0.1198 -0.3440 -0.0187
11686W        W26817  10.741   3.875   5.387  0.1183  0.1329  0.2071
11687W        W26818   3.605  17.722  12.182  0.2434  0.3151  0.1395
11688W        W26819   2.396   9.265  14.037 -0.0861  0.0599 -0.0161
11689W        W26820   6.873  12.997  15.021 -0.4333 -0.1140  0.0167
11690W        W26821   0.844   0.314   3.960  0.0834  0.1543  0.1014
11691W        W26822  11.852   9.018   4.010  0.0856  0.0748  0.1915
11692W        W26823   8.710   0.994   0.957  0.1358 -0.1740  0.2591
11693W        W26824  12.024   6.478  14.845 -0.3511 -0.1700  0.0439
11694W        W26825   4.519  12.930  10.561  0.0007 -0.0858 -0.1098
11695W        W26826  12.281   2.037  10.881 -0.1997  0.1593  0.0807
11696W        W26827   9.988  14.309  11.383  0.1843  0.2997  0.0676
11697W        W26828  10.353  15.861  12.549 -0.1013  0.0787  0.2032
11698W        W26829   6.983   9.837   4.730  0.2613 -0.0068 -0.0526
11699W        W26830  10.509  11.962   2.224 -0.0310 -0.0977  0.1390
11700W        W26831   7.353   0.952  10.375 -0.3269  0.3975  0.0167
11701W        W26832  11.867  13.406   0.791 -0.0769  0.1931  0.1575
11702W        W26833   7.591   6.872  12.797  0.0086 -0.1389 -0.2062
11703W        W26834   8.090   5.728   4.092  0.0752  0.1540 -0.2957
11704W        W26835  14.357   4.294  12.765  0.0571 -0.0892  0.2371
11705W        W26836   1.106   1.343   2.478 -0.1985 -0.0208 -0.1245
11706W        W26837   6.581   7.264   0.790  0.0144  0.1430  0.1902
11707W        W26838  13.777   1.685   0.342  0.0552 -0.0337  0.0187
11708W        W26839  11.083   1.510  15.190  0.1834  0.2013 -0.0393
11709W        W26840   7.629  16.774   4.171  0.0319  0.4266 -0.0095
11710W        W26841   9.246   6.899   3.419 -0.1070 -0.1622 -0.0205
11711W        W26842  12.953   7.403   3.049  0.1740  0.1768 -0.1842
11712W        W26843   6.619  14.041  13.848 -0.3255 -0.0983 -0.0502
11713W        W26844   4.963   0.701  12.770  0.0120  0.1168  0.3652
11714W        W26845   3.929   4.912  12.363  0.3228 -0.2624 -0.0690
11715W        W26846  13.525  11.740   1.805 -0.4738 -0.2668 -0.0528
11716W        W26847  18.091   7.262  15.829  0.3115  0.1353  0.1120
11717W        W26848   0.647  11.947  10.798  0.1876  0.1425  0.1535
11718W        W26849   8.364  11.253  12.800 -0.0959  0.0474 -0.1569
11719W        W26850  10.740  15.044   3.973 -0.3363  0.0360  0.1169
11720W        W26851   7.672   0.928   2.070 -0.0070 -0.1017 -0.0216
11721W        W26852   1.789  11.501  15.648  0.0906 -0.0999 -0.0889
11722W        W26853  14.294  10.931  14.795  0.2751  0.0586 -0.2099
11723W        W26854   3.477   7.353  14.555  0.0576 -0.0400 -0.1112
11724W        W26855   8.887   2.940   4.781  0.0802 -0.0323  0.0787
11725W        W26856  11.783   3.212  14.668  0.0507 -0.1496  0.1096
11726W        W26857   3.419   4.062  12.087 -0.1729  0.0985 -0.0451
11727W        W26858  13.695   1.107  10.640  0.1188  0.1325  0.1219
11728W        W26859  16.681  14.649   2.522  0.0151 -0.0262 -0.0476
11729W        W26860  16.203  12.504   3.685  0.2269  0.2694 -0.0405
11730W        W26861  11.630   6.995  12.799 -0.0125  0.0264  0.1274
11731W        W26862  16.873  15.390  14.943 -0.0173  0.1529 -0.0816
11732W        W26863  16.339   0.029   0.170 -0.1391  0.0915 -0.0650
11733W        W26864   7.448  16.026   3.542 -0.1778  0.1540  0.1451
11734W        W26865  13.971  12.632  13.740 -0.0123 -0.1536  0.0584
11735W        W26866   3.258  13.659  15.431 -0.1407 -0.0910  0.2724
11736W        W26867   8.394  11.941   2.966  0.0453  0.1256  0.1289
11737W        W26868   9.125   3.626   0.615 -0.1796  0.0630 -0.1069
11738W        W26869   0.942  15.170  14.996  0.3844  0.1367 -0.1626
11739W        W26870   4.509   8.575  15.581  0.1508  0.2885  0.4042
11740W        W26871   2.385   6.670  13.381 -0.1950 -0.0299  0.3494
11741W        W26872  13.929  10.397  13.468  0.0164 -0.0158  0.1369
11742W        W26873   4.329   9.577   1.593 -0.2805  0.0403  0.3369
11743W        W26874   7.357   1.870  13.971  0.0123 -0.2020 -0.1214
11744W        W26875  13.034   3.709  12.963 -0.1914  0.2617  0.0236
11745W        W26876   7.483  17.259   2.292  0.0402  0.1866  0.1208
11746W        W26877  11.386  16.209  10.706  0.1562  0.3111 -0.0090
11747W        W26878   0.387   8.382   2.559  0.1854 -0.3413 -0.2603
11748W        W26879   8.398  15.144   2.865 -0.1764 -0.0281 -0.1705
11749W        W26880  10.391   5.283   3.444  0.0218 -0.1974 -0.0449
11750W        W26881   9.248  16.425   3.479 -0.1947 -0.2612 -0.0291
11751W        W26882  17.411  12.689  11.947 -0.2789 -0.2414  0.0510
11752W        W26883  18.023   4.118   0.778 -0.1049 -0.4547  0.0866
11753W        W26884  12.750  11.763  14.844 -0.1789 -0.0258  0.0836
11754W        W26885   0.609   5.552  10.378  0.0954  0.2189  0.2047
11755W        W26886  14.341   4.790   4.490 -0.4969  0.0064 -0.2256
11756W        W26887  13.475   8.180   1.702  0.3138  0.0023 -0.1425
11757W        W26888   6.204  16.500   5.491 -0.0680  0.0295  0.1112
11758W        W26889   1.729   8.692   5.403  0.3324  0.0625 -0.1362
11759W        W26890   0.325   4.006   2.254 -0.1492 -0.0205 -0.2619
11760W        W26891  14.198  15.437  11.923  0.1811 -0.1193  0.0475
11761W        W26892   2.457   0.107  10.759  0.1838  0.0261  0.0070
11762W        W26893  13.814  10.316  12.418 -0.0751  0.0975 -0.0056
11763W        W26894   9.034   1.775  12.085  0.3279  0.0474  0.1609
11764W        W26895  15.414   3.437   3.681  0.0330  0.0957 -0.0543
11765W        W26896  14.329   4.414   4.177  0.0620  0.1897  0.0444
11766W        W26897  15.479   8.146   0.393 -0.1677 -0.2263  0.0411
11767W        W26898   4.463  12.426  10.518  0.1796 -0.3192 -0.3663
11768W        W26899  14.079   4.095  15.781 -0.2365  0.0368  0.1893
11769W        W26900  11.212  11.560   2.105  0.1597  0.2915  0.1981
11770W        W26901   0.411   3.747  14.929  0.0371 -0.1366 -0.0318
11771W        W26902  11.733  17.514   4.190  0.2265  0.1182 -0.4415
11772W        W26903  17.927  14.900  11.290 -0.1132 -0.0020  0.0411
11773W        W26904  14.890  17.586  11.074 -0.0111  0.0463  0.0614
11774W        W26905  10.299   5.654  11.519 -0.1687  0.1363 -0.0746
11775W        W26906   5.098   0.431   4.320  0.1420 -0.1323 -0.1820
11776W        W26907   3.587   0.669  15.224  0.0740 -0.1463  0.0843
11777W        W26908   4.066  10.992   3.286  0.0495 -0.0941 -0.1166
11778W        W26909   2.273  10.075  15.135  0.1180  0.0831  0.0147
11779W        W26910  14.773   6.507   2.258  0.2016  0.3126 -0.1730
11780W        W26911   2.813   9.801   1.521 -0.1817  0.0973 -0.0169
11781W        W26912   2.406   4.556   2.310  0.3419  0.0815  0.6823
11782W        W26913   0.152   0.854   3.914  0.0678 -0.0858  0.0061
11783W        W26914  12.834  13.781  15.632  0.0103  0.0685  0.1417
11784W        W26915   4.518   6.205  16.012 -0.0923  0.0355 -0.3457
11785W        W26916   8.654   1.637  12.482 -0.2589  0.0490 -0.0484
11786W        W26917  10.787  14.402  12.183  0.3913  0.0643  0.0556
11787W        W26918   8.002  17.566   0.422 -0.1080 -0.2380  0.0788
11788W        W26919   4.578  15.184   5.195  0.0204 -0.2004  0.3188
11789W        W26920  11.138  16.268  12.935  0.1184 -0.0633  0.0702
11790W        W26921  10.820  10.903  11.754 -0.0391  0.2668  0.1179
11791W        W26922   0.757   8.596   2.873 -0.2263 -0.1886  0.0296
11792W        W26923  13.423  14.659   2.647 -0.0215  0.0855  0.0327
11793W        W26924  10.972   9.162   4.894 -0.0801 -0.0206  0.2899
11794W        W26925   5.358   7.377   3.625  0.0309 -0.0552  0.0718
11795W        W26926  15.360  16.342   2.483 -0.0257  0.1000  0.2100
11796W        W26927   7.413  13.458  12.333  0.1321  0.1987  0.0214
11797W        W26928  12.003   2.048   4.620 -0.3512 -0.2819  0.0046
11798W        W26929   8.499   1.081  14.893  0.1323 -0.0746 -0.1719
11799W        W26930   5.845  13.314   2.163 -0.1607  0.2116 -0.3270
11800W        W26931   1.249  12.445   0.282  0.1730  0.3154 -0.1039
11801W        W26932   9.710  11.073  12.290 -0.0760  0.0938 -0.1467
11802W        W26933  16.333   4.550  15.220 -0.0170  0.3888  0.0877
11803W        W26934   7.749   2.673   4.762 -0.2874  0.1249 -0.5150
11804W        W26935   2.569   4.539  16.125  0.0156  0.2658  0.0442
11805W        W26936   5.073   6.075   4.155  0.1120 -0.1645  0.0021
11806W        W26937  13.962  10.594   0.359  0.0820 -0.1836  0.1688
11807W        W26938   0.887   7.674  12.709  0.0340  0.0151 -0.0184
11808W        W26939   7.780  13.917   1.663 -0.0621 -0.0544  0.0579
11809W        W26940   4.803   7.541   5.670  0.2058 -0.0238 -0.1375
11810W        W26941   7.976  10.973   4.456 -0.0461 -0.1695 -0.1749
11811W        W26942  12.999   4.035   5.346 -0.1417 -0.0186 -0.0499
11812W        W26943   2.397  17.385   4.495 -0.2123  0.1359 -0.1400
11813W        W26944  13.146   0.163  10.704  0.1788 -0.0199  0.3456
11814W        W26945  13.877  17.448  14.399 -0.1491 -0.1320 -0.0121
11815W        W26946   4.567  12.315   0.158  0.0036 -0.1957  0.0845
11816W        W26947   7.050   3.143  14.554 -0.2052 -0.0944  0.0133
11817W        W26948  15.832  13.634  14.916  0.1167  0.2486 -0.2554
11818W        W26949   1.716   2.223   1.734  0.0893 -0.1672 -0.0632
11819W        W26950   6.294   8.361  14.165  0.2816  0.1605  0.0840
11820W        W26951  15.984  12.903   3.178  0.2882  0.0070  0.0428
11821W        W26952  15.668  10.953  15.201  0.0562  0.0645 -0.0956
11822W        W26953  10.903   0.020   3.414  0.1526 -0.0092  0.0484
11823W        W26954   3.364   6.501   5.348  0.0040 -0.2350  0.1615
11824W        W26955   3.019   3.906   3.982 -0.2185  0.1419 -0.1053
11825W        W26956  11.840   2.357   4.225  0.1805 -0.1825 -0.1789
11826W        W26957   6.783  10.331   5.935  0.2009  0.1514  0.0628
11827W        W26958  11.239  12.573   0.719 -0.2141  0.1121 -0.1404
11828W        W26959  10.235  11.730  14.439  0.2098  0.3551 -0.1017
11829W        W26960   1.349   5.642  14.241  0.0798  0.2096 -0.2928
11830W        W26961  16.162  17.903   2.307 -0.1191  0.3326  0.1401
11831W        W26962   4.316  15.360   1.652 -0.0439  0.0278 -0.0973
11832W        W26963   5.683   1.298  13.093  0.3043 -0.1910  0.4340
11833W        W26964  12.080   5.943  13.560  0.1430 -0.4264  0.0466
11834W        W26965  10.011  15.960  10.298 -0.0200  0.1638  0.0653
11835W        W26966   2.496   7.995   0.891  0.0019  0.1920  0.3651
11836W        W26967  16.183  14.102  15.531 -0.1134 -0.0903  0.1649
11837W        W26968  14.832   1.426   2.022  0.2595 -0.1989 -0.0331
11838W        W26969   2.589   1.136  11.307 -0.4440 -0.1908  0.1084
11839W        W26970   8.872  11.581   3.704 -0.2062  0.0921  0.3512
11840W        W26971  16.378   2.427  10.564  0.4437  0.0492  0.0423
11841W        W26972   5.880  16.058   5.325  0.0280  0.0195  0.1658
11842W        W26973   5.144  11.993  10.970  0.0078 -0.0591 -0.1587
11843W        W26974   5.902  17.038  13.275 -0.3439 -0.0872  0.0304
11844W        W26975   9.249  12.178  10.796  0.0268  0.1410  0.2814
11845W        W26976  15.286   0.435  14.939 -0.2815  0.0680  0.2303
11846W        W26977  11.986  17.853  14.336 -0.2759  0.1036 -0.0036
11847W        W26978   4.321  12.984  12.484 -0.0297  0.0742 -0.2594
11848W        W26979  13.944   7.283  10.509 -0.1500  0.0952 -0.0777
11849W        W26980   5.167   2.229  15.389 -0.1487 -0.0799  0.0290
11850W        W26981  15.331  14.630  13.232  0.0261  0.0132 -0.2883
11851W        W26982  14.569  13.665  15.539 -0.1008 -0.0744  0.0173
11852W        W26983   8.214  11.796  11.511 -0.0631 -0.2123 -0.0060
11853W        W26984  12.486  16.388  10.590  0.2345  0.0337 -0.2197
11854W        W26985   8.694   9.279  12.903 -0.0300 -0.0334 -0.0569
11855W        W26986   3.403  15.081   2.821 -0.1818  0.0836 -0.0488
11856W        W26987  16.527  14.488  11.153 -0.1758 -0.0158 -0.1776
11857W        W26988   9.122   4.858  12.677 -0.4529 -0.1956 -0.1102
11858W        W26989   8.336  11.307   4.674 -0.2082 -0.1758  0.1336
11859W        W26990  15.456   1.228  14.673  0.1716 -0.2210  0.2103
11860W        W26991   5.463   7.957   5.163 -0.0019  0.1155 -0.0976
11861W        W26992  10.274  12.438  13.601 -0.1162 -0.0845  0.1067
11862W        W26993  10.766   8.001   0.198  0.1521 -0.6255 -0.0201
11863W        W26994   7.484   8.569  13.743  0.1021 -0.0845 -0.1117
11864W        W26995   3.409   2.948   0.060  0.2672  0.2097  0.2130
11865W        W26996  12.501  16.516  14.791  0.2312  0.2425 -0.0871
11866W        W26997  17.008   4.295  14.423 -0.0740 -0.0969 -0.0281
11867W        W26998   2.494   0.996   3.296  0.1403  0.1909  0.0557
11868W        W26999  17.271  13.227   5.131  0.0645  0.1599 -0.0947
11869W        W27000   8.875   6.412   4.517  0.0317 -0.2022 -0.0139
11870W        W27001  13.730   6.261  12.786 -0.0207 -0.0627 -0.2102
11871W        W27002   0.026  17.171  14.420  0.0388  0.0274  0.1820
11872W        W27003  10.650   3.288   4.718 -0.0539 -0.1497  0.0466
11873W        W27004  12.014   9.025  12.331 -0.1019 -0.1932  0.0085
11874W        W27005  13.422  11.415  11.524  0.0333  0.0459  0.3258
11875W        W27006   8.930  15.817   2.708 -0.0573 -0.1364  0.1944
11876W        W27007  17.492   9.466  11.520  0.1479 -0.0547  0.2483
11877W        W27008  16.805   2.543  11.128 -0.1176 -0.1696 -0.1521
11878W        W27009   2.506   6.802   5.234  0.1771  0.1765 -0.2563
11879W        W27010  10.702   9.315  11.884  0.0177  0.0810  0.1403
11880W        W27011  10.364   3.376  15.496  0.3226  0.0449 -0.0308
11881W        W27012  14.894   3.269  12.921  0.0256 -0.1391  0.4213
11882W        W27013  14.813  15.944   5.897 -0.0636 -0.0464 -0.0500
11883W        W27014   0.894   7.998  15.545  0.1942  0.1343  0.1025
11884W        W27015  17.122   6.635   4.510 -0.2518 -0.0130  0.0033
11885W        W27016  10.742   1.948  10.644  0.0279  0.1511  0.1712
11886W        W27017  15.675  18.054  14.191 -0.2675 -0.0095  0.1781
11887W        W27018   0.542  12.545  11.114 -0.1114 -0.0367 -0.5712
11888W        W27019   0.960   7.519   5.301 -0.0864 -0.4247 -0.2297
11889W        W27020   7.471  15.376   0.431  0.0287 -0.0854 -0.0886
11890W        W27021  10.742  17.390   2.153  0.1471 -0.0258 -0.1450
11891W        W27022  10.188  12.570   1.408  0.1966 -0.2781 -0.1697
11892W        W27023  16.036   3.538  15.205 -0.0996 -0.0310 -0.0566
11893W        W27024  11.265  13.640   1.740  0.0144  0.1021 -0.1794
11894W        W27025  12.955   2.702   5.949 -0.1400  0.0460  0.0778
11895W        W27026  16.335  17.629   1.090  0.0100  0.2781 -0.1373
11896W        W27027  17.825  15.914  11.566 -0.0026 -0.1467 -0.3855
11897W        W27028   7.689   1.879   5.075  0.1136 -0.1639  0.0474
11898W        W27029   1.900   2.733  11.063 -0.0025  0.0478 -0.1161
11899W        W27030   6.858   0.114  12.651 -0.1009 -0.1513  0.0351
11900W        W27031   2.168  13.808  13.397  0.0932  0.2001  0.0095
11901W        W27032  12.152  17.441  15.224 -0.1465 -0.1760  0.1180
11902W        W27033   4.781  14.365   5.916  0.1674  0.0471 -0.0188
11903W        W27034   0.592   2.529  13.065  0.0741 -0.0682 -0.3494
11904W        W27035  10.720  11.233  12.091  0.0615  0.1896 -0.2412
11905W        W27036  13.014  15.967  12.171  0.1053 -0.1345  0.2827
11906W        W27037  16.280  17.226  14.777  0.2844  0.0551 -0.2006
11907W        W27038   0.701   5.197   3.651  0.1105 -0.1344  0.0649
11908W        W27039   2.405  15.178   0.395 -0.1030  0.0017 -0.0210
11909W        W27040  16.784  16.607  14.259  0.3626 -0.1419  0.0421
11910W        W27041   8.115   3.696  11.557  0.0243 -0.1172 -0.0917
11911W        W27042   2.686  13.585  14.618  0.0090  0.1800 -0.0861
11912W        W27043   0.876  14.722  15.217  0.1578 -0.1619  0.2690
11913W        W27044   9.488   6.022   1.681 -0.1209  0.0940  0.3260
11914W        W27045   1.846  12.747  11.306  0.0567 -0.0426 -0.0532
11915W        W27046   1.685   6.757  14.495  0.0539  0.0888  0.0718
11916W        W27047   8.019   7.352   5.279  0.2009  0.0156 -0.2037
11917W        W27048  10.046  17.703  14.272  0.0569 -0.2061  0.2686
11918W        W27049  15.756   1.152  13.895 -0.1341  0.2925  0.1514
11919W        W27050   8.534  11.925   5.016 -0.1605  0.0458  0.0998
11920W        W27051   9.566  16.294  13.543 -0.0935 -0.0982  0.0631
11921W        W27052   0.552   1.261  14.022  0.2119  0.3032 -0.1384
11922W        W27053  15.164  11.579  16.212 -0.3227 -0.0021  0.1387
11923W        W27054  13.013   6.666  14.604 -0.2020 -0.1269  0.2268
11924W        W27055   7.500  13.097  11.914  0.2803  0.5030  0.0475
11925W        W27056  11.635   4.104  13.291  0.1036  0.1901  0.0637
11926W        W27057   4.108  14.157   2.014  0.2454 -0.0347 -0.0866
11927W        W27058   8.285   8.942   4.788 -0.1747  0.3957  0.0102
11928W        W27059   8.925   4.512   5.572 -0.2637 -0.1270 -0.0314
11929W        W27060  10.193   3.209   0.315  0.0894  0.2626  0.2607
11930W        W27061  11.631   2.113  12.501 -0.0259  0.2892  0.1189
11931W        W27062  17.607   8.405  11.668 -0.0578  0.0243  0.3196
11932W        W27063   5.947   7.424   1.035 -0.0846  0.0664  0.0775
11933W        W27064  14.286   9.553  10.702  0.2385  0.0671 -0.1786
11934W        W27065  18.068   1.282  16.057 -0.0688  0.2757  0.1839
11935W        W27066   6.645   8.591  11.684 -0.0559  0.4145 -0.2289
11936W        W27067  15.454   2.624   3.353  0.2302  0.0278  0.0822
11937W        W27068   2.467   1.389  14.915 -0.0327  0.1326  0.2995
11938W        W27069   3.744   6.720   3.417 -0.0248  0.2733  0.1732
11939W        W27070   7.607  14.351  11.207 -0.2892 -0.0574  0.3885
11940W        W27071   6.230   5.149  11.648  0.3140 -0.2126  0.0799
11941W        W27072  10.386  10.209  16.075  0.0147  0.0192 -0.0345
11942W        W27073  13.518  17.430   1.761 -0.3722 -0.2324 -0.0867
11943W        W27074  15.620   3.873  14.104  0.3334 -0.2469  0.1246
11944W        W27075   2.051  12.976  12.662  0.1294  0.3101 -0.0231
11945W        W27076  15.801  14.356   1.332  0.2157  0.0610 -0.0406
11946W        W27077   9.581   4.759  11.621  0.0604  0.2262  0.1861
11947W        W27078   1.682   6.031  13.864 -0.0244  0.0209 -0.1167
11948W        W27079   7.490   5.768  14.038  0.1068  0.2460  0.0429
11949W        W27080  11.162   8.110  15.154  0.0996  0.0377 -0.0731
11950W        W27081  11.609   1.937   4.251 -0.0036  0.0470  0.0185
11951W        W27082  13.532   9.142  11.238 -0.0351  0.0146  0.3491
11952W        W27083   7.596  13.359  13.008 -0.3884  0.1726 -0.1475
11953W        W27084   1.989   0.837   3.233 -0.1107  0.1189  0.1462
11954W        W27085   8.407   6.174   3.100  0.0280  0.0876 -0.0803
11955W        W27086  15.379   2.762   0.424  0.0417 -0.1177 -0.0718
11956W        W27087   9.241   7.861  12.741 -0.0926  0.4452 -0.0143
11957W        W27088  17.871   7.510   3.890 -0.3339  0.1192  0.0281
11958W        W27089   2.295  11.571  15.494 -0.0972 -0.1072 -0.0252
11959W        W27090  14.978  15.178   0.084  0.1612  0.0967 -0.0257
11960W        W27091  15.499   5.282   0.462  0.0343 -0.0958 -0.1977
11961W        W27092   5.866  12.096   6.530 -0.3367  0.2994 -0.0581
11962W        W27093  12.015   2.943  15.341  0.5478 -0.0420 -0.1114
11963W        W27094   3.717  11.782   2.962 -0.3491 -0.0545 -0.0561
11964W        W27095   1.373  12.800   4.277 -0.1312 -0.1770 -0.0143
11965W        W27096  18.011   6.118  13.266  0.2059  0.0146  0.0203
11966W        W27097   2.809   1.603   3.273 -0.1132 -0.2400 -0.1440
11967W        W27098   2.329  13.559  14.023  0.1958  0.1768  0.3633
11968W        W27099   3.159  13.921  12.772  0.0244  0.2497  0.0174
11969W        W27100   1.125   9.783  12.970 -0.1339  0.3333  0.1736
11970W        W27101   8.816  15.862   4.936 -0.1822  0.3610  0.1478
11971W        W27102   1.657   6.680  15.120  0.1626 -0.2014 -0.0228
11972W        W27103   7.248   1.130   3.896 -0.1394 -0.0081  0.0720
11973W        W27104   9.200   4.017   6.257 -0.1122 -0.0521  0.0241
11974W        W27105  17.758   3.297   0.462 -0.0501  0.0476 -0.2455
11975W        W27106   9.713  16.475   5.744  0.1355  0.1696 -0.0514
11976W        W27107   9.551  16.707   1.883  0.1611 -0.2288  0.0598
11977W        W27108   4.838   7.756  14.274 -0.2102  0.2779  0.0324
11978W        W27109  17.044   8.890   5.492 -0.1700 -0.1380 -0.2391
11979W        W27110  13.083  13.909  14.722 -0.1129  0.2084 -0.2079
11980W        W27111   3.672   8.523  16.075  0.1740  0.0564  0.2115
11981W        W27112   2.330   1.752   2.870 -0.3423  0.1155 -0.3352
11982W        W27113   2.406  12.059   5.206  0.1528  0.1621  0.1129
11983W        W27114  16.411   2.481   2.030  0.0161  0.3224  0.2656
11984W        W27115  12.282  16.311   0.347 -0.1121 -0.0874  0.1191
11985W        W27116  16.342  15.329  14.128 -0.4129 -0.0184 -0.1720
11986W        W27117  16.161  11.684   2.062  0.0351 -0.1880 -0.0084
11987W        W27118   5.134  14.643   2.392 -0.0840 -0.1128 -0.0925
11988W        W27119   9.423  12.882  11.233  0.5359 -0.3656 -0.0813
11989W        W27120   2.874   7.031   1.696  0.1129 -0.0562 -0.0143
11990W        W27121  15.336   4.435  16.117  0.0592 -0.0537 -0.1274
11991W        W27122   0.133   1.022  13.332  0.2714  0.3813 -0.0719
11992W        W27123  12.957   1.574  13.310 -0.0395 -0.2648 -0.3383
11993W        W27124   7.393   8.021   2.051  0.0006  0.1149 -0.1475
11994W        W27125   0.975  15.251   0.531  0.0621  0.1985 -0.1186
11995W        W27126  11.218  17.939  11.179  0.1975  0.3697 -0.1032
11996W        W27127  10.350  13.314  13.053 -0.2035  0.0195 -0.2528
11997W        W27128   3.321   1.082   2.310 -0.2156 -0.2438  0.1306
11998W        W27129   9.478  13.640   2.917 -0.0968  0.0558  0.2192
11999W        W27130  17.653  14.766   3.120  0.1449 -0.0742  0.2473
12000W        W27131  14.170   5.741  12.120  0.1062  0.1537  0.2131
12001W        W27132   7.899   8.855  13.833 -0.0810  0.0875 -0.1198
12002W        W27133  13.901  14.051  11.199  0.4856 -0.1109  0.1533
12003W        W27134   3.993  11.235  16.132  0.3376  0.0400  0.0887
12004W        W27135  14.287   0.161  14.498  0.1495 -0.2466  0.2069
12005W        W27136   8.768   5.381   1.013 -0.1005  0.1018 -0.2043
12006W        W27137  10.093   9.702  13.417 -0.1535  0.0985 -0.1734
12007W        W27138   0.498   5.498   4.106 -0.2947  0.0817 -0.2460
12008W        W27139   4.014   0.588   4.012  0.2847 -0.2908  0.2153
12009W        W27140   2.017   1.782   4.770  0.0924  0.1711  0.0601
12010W        W27141   7.339   4.794   0.626 -0.2510  0.0012  0.2476
12011W        W27142   3.475  13.682   5.834  0.1233  0.1739 -0.3270
12012W        W27143  11.135   0.933   5.304  0.3248 -0.2391  0.0249
12013W        W27144  17.671  14.770   3.646 -0.0210 -0.0367 -0.0637
12014W        W27145  11.935   2.059   0.322 -0.2874 -0.1163 -0.1244
12015W        W27146   8.535  14.007  14.933  0.0617  0.0235  0.0846
12016W        W27147   8.858   8.214   3.639 -0.2155 -0.2488 -0.1560
12017W        W27148   8.345  15.777   4.575  0.0351 -0.0206 -0.1686
12018W        W27149   0.165   0.351  14.784 -0.0628 -0.0576  0.2084
12019W        W27150  11.817  17.192  10.781  0.0302 -0.2932  0.1548
12020W        W27151  12.150   5.739  16.133 -0.1493  0.3133  0.0721
12021W        W27152  17.321  10.951   4.404  0.1673  0.0519 -0.0073
12022W        W27153   9.633  13.666   3.418  0.0273 -0.5556  0.2042
12023W        W27154  15.335  17.883  11.986 -0.3112 -0.0594 -0.0269
12024W        W27155   6.260   7.301   4.480  0.0318  0.0162  0.1613
12025W        W27156   6.981  13.813  10.913 -0.2717 -0.0943 -0.1561
12026W        W27157  15.348   5.349   1.460  0.0434  0.2028  0.3541
12027W        W27158  17.513   7.865  13.312  0.0066  0.0536 -0.0662
12028W        W27159  12.007  15.685   3.636  0.2130  0.1719 -0.4068
12029W        W27160   3.439   5.843  13.883 -0.2563 -0.0398  0.0370
12030W        W27161   4.879   5.120  11.900  0.1147  0.3410  0.1296
12031W        W27162   5.639   2.159  12.618  0.0963 -0.1085  0.2026
12032W        W27163   3.074  11.693  15.434 -0.2672 -0.0306 -0.0293
12033W        W27164   4.258   0.950   0.252  0.1855  0.0635 -0.0563
12034W        W27165   2.877   3.793   5.164  0.0936 -0.0089 -0.0520
12035W        W27166   7.880   5.813   2.516  0.0724  0.0223 -0.1751
12036W        W27167   4.355   0.926   2.580 -0.3628  0.0808 -0.2621
12037W        W27168   6.746   8.663  12.181 -0.1190  0.3303  0.0956
12038W        W27169  14.262  16.817   0.301 -0.0978  0.0458 -0.3095
12039W        W27170  12.577   3.635  12.742  0.0668  0.1507  0.3283
12040W        W27171   1.238  12.031  16.244 -0.1025  0.0819 -0.0325
12041W        W27172   6.562   5.648   2.912  0.1647  0.0315 -0.3784
12042W        W27173  15.716   5.618   1.823  0.2244 -0.4615 -0.0706
12043W        W27174   9.061   2.131  12.477  0.2530  0.0345  0.0553
12044W        W27175   2.776   4.062  13.289  0.3250 -0.0726 -0.0727
12045W        W27176  10.128  10.384   0.216 -0.2267 -0.1219 -0.0969
12046W        W27177  16.628   7.155   2.882  0.2612 -0.1637 -0.0622
12047W        W27178  16.480  12.666   5.226  0.4413  0.0912 -0.1767
12048W        W27179   3.500   1.252  14.213 -0.1869 -0.0904  0.1975
12049W        W27180  16.638  13.352  10.975  0.0079  0.0844 -0.0150
12050W        W27181  11.515  13.314   4.859  0.0162 -0.0819 -0.1058
12051W        W27182   8.356   5.628   3.261 -0.1860  0.0395 -0.2630
12052W        W27183  16.267  14.882   0.667 -0.0521 -0.0534 -0.0426
12053W        W27184   4.567   9.864  12.311  0.2387  0.3648 -0.0542
12054W        W27185  15.257   4.673   3.889 -0.0786  0.0537  0.0424
12055W        W27186  11.994   8.376  13.400  0.0258  0.1531 -0.0501
12056W        W27187  14.236   0.425  14.999  0.0821  0.3283  0.1702
12057W        W27188   1.985  12.591   2.990 -0.1286  0.0239  0.0232
12058W        W27189  17.971  11.350  16.022  0.0576  0.0159 -0.1200
12059W        W27190   3.326  16.492   0.077 -0.1347  0.1415 -0.3289
12060W        W27191   6.038  10.374  16.085 -0.1692 -0.0932  0.0939
12061W        W27192  15.652   1.676  15.044 -0.0764  0.1685  0.1386
12062W        W27193  10.848   0.035  10.739  0.1237 -0.1978 -0.2331
12063W        W27194   4.330  12.215  15.239  0.2630  0.0024  0.0302
12064W        W27195  17.401   7.665   1.231  0.0385  0.1651 -0.1567
12065W        W27196  15.865  14.160   0.544  0.2981  0.2359 -0.0705
12066W        W27197  13.694  10.968   4.211  0.1218  0.1795 -0.1432
12067W        W27198   8.637   8.345  10.434  0.1201  0.1742 -0.4440
12068W        W27199  10.313   0.016   2.361  0.1604 -0.1853  0.0651
12069W        W27200   8.277  16.869   2.014  0.2103  0.1384 -0.1000
12070W        W27201  10.974   6.730   0.092 -0.0245  0.0777  0.1628
12071W        W27202   2.006   7.232  10.685  0.1636  0.1410  0.0497
12072W        W27203   2.700   4.305   1.992 -0.1669  0.0284  0.1330
12073W        W27204   0.993  13.103   5.495  0.0674  0.0639 -0.0756
12074W        W27205  15.433   3.807   4.954  0.1958  0.2906 -0.0078
12075W        W27206  11.063  13.757   0.363 -0.2972 -0.2098 -0.1304
12076W        W27207  15.877  12.971   2.718  0.0322  0.1048  0.0696
12077W        W27208  11.897  12.457  13.268 -0.1085  0.0264  0.1584
12078W        W27209   1.981   7.870   0.685 -0.1434 -0.0414  0.3262
12079W        W27210   9.727   2.627  13.826 -0.0596  0.1605  0.2206
12080W        W27211  16.044   2.668   1.737  0.4308 -0.0254 -0.3919
12081W        W27212   3.486  12.698   3.021  0.0821 -0.0685  0.1118
12082W        W27213   0.576   2.035   4.027  0.1897  0.2864 -0.1937
12083W        W27214  17.277   4.103  14.051  0.3245 -0.0982 -0.1262
12084W        W27215   2.767   3.848   2.252 -0.1937  0.3062 -0.0867
12085W        W27216  10.449   5.615   3.015  0.0412  0.0615 -0.0013
12086W        W27217  13.151   2.831   0.786  0.0999 -0.1720 -0.4267
12087W        W27218   7.558  16.251   2.532 -0.2094 -0.0083  0.1940
12088W        W27219   6.837   6.259  14.293  0.0077  0.1513 -0.3604
12089W        W27220  16.251  14.973   0.193  0.1316  0.1567  0.1432
12090W        W27221   2.728   3.234   0.473 -0.1093 -0.0037  0.0475
12091W        W27222  14.557   1.146   0.608 -0.1391 -0.2246  0.1412
12092W        W27223   1.879   9.213  12.535  0.1335  0.0157  0.0807
12093W        W27224  16.766   4.998  15.196 -0.0480  0.0972 -0.0270
12094W        W27225   0.723  11.698   3.970  0.0549  0.1119 -0.0407
12095W        W27226  10.171   5.448  12.891  0.1914 -0.1707 -0.1139
12096W        W27227  11.924   5.662   0.947 -0.2668  0.2209  0.0588
12097W        W27228   9.498   2.779   4.058  0.2010  0.0656 -0.0007
12098W        W27229  17.937   7.612  11.958  0.0419  0.1483 -0.2653
12099W        W27230   3.320   2.747   5.392 -0.0916  0.1735 -0.0506
12100W        W27231  13.426  16.060  12.811  0.3639  0.1940  0.0995
12101W        W27232   5.368  10.914   2.280 -0.1131  0.0387 -0.1039
12102W        W27233   9.832   2.739  10.817 -0.2304  0.2572 -0.0003
12103W        W27234  10.133  17.526   0.247  0.0025  0.2165 -0.0224
12104W        W27235   6.062  13.331  16.230  0.1565 -0.1628  0.0032
12105W        W27236   1.369   3.785   2.699 -0.1303 -0.1904  0.2279
12106W        W27237   8.197  16.089  12.259  0.1786 -0.0829  0.0756
12107W        W27238   1.279  11.993   0.532  0.3040  0.2343 -0.1282
12108W        W27239   5.785   8.821  12.860  0.1085  0.0213  0.1521
12109W        W27240  10.006   5.416  12.349 -0.0003  0.2869 -0.2501
12110W        W27241  12.795   8.056  11.047  0.1575  0.1454 -0.0751
12111W        W27242   5.322   5.996   5.084 -0.0501  0.1598  0.4433
12112W        W27243   4.397   9.078  12.812 -0.1838  0.1966  0.0314
12113W        W27244  10.016   4.648  11.327  0.1140  0.1124  0.0099
12114W        W27245  13.889   6.583   2.311  0.0456  0.2433  0.2470
12115W        W27246   9.406   7.107  14.965 -0.1044 -0.0585 -0.0815
12116W        W27247   5.420   9.022   4.230 -0.0215 -0.3333  0.2040
12117W        W27248   0.725   9.533  15.428  0.1537 -0.0309 -0.0892
12118W        W27249  16.269   1.156  10.935  0.3769  0.2763 -0.1452
12119W        W27250  17.902  11.825  11.009  0.3153  0.1313 -0.1290
12120W        W27251  13.084  15.695  13.597 -0.0747 -0.1555 -0.0018
12121W        W27252   2.615  13.345   4.288  0.0162  0.0927 -0.2632
12122W        W27253   6.569  13.151   5.615 -0.2284 -0.0768  0.1516
12123W        W27254  14.810  11.615   2.481 -0.0911  0.1012  0.0097
12124W        W27255   1.513  18.016  11.737  0.1943 -0.1611 -0.1351
12125W        W27256   5.274  17.098   2.325 -0.1938  0.0725  0.0061
12126W        W27257   5.869   8.420   3.523  0.0378 -0.0962 -0.0663
12127W        W27258   1.924   1.091  15.015  0.0250  0.0407  0.2764
12128W        W27259  17.341   6.859  13.296 -0.1971 -0.2316  0.0014
12129W        W27260  13.563   8.213  13.941 -0.1076 -0.0145 -0.1397
12130W        W27261   9.837   6.647  14.297 -0.2737  0.1004 -0.3314
12131W        W27262   4.007   2.619   1.954  0.2709 -0.0838 -0.1563
12132W        W27263   7.857   9.181  12.930 -0.0362 -0.0573 -0.4489
12133W        W27264   7.747   9.227   0.070  0.0424  0.1292  0.1268
12134W        W27265   5.471  15.981   1.013 -0.2385  0.1729 -0.0964
12135W        W27266   1.031   7.140  15.149 -0.1491  0.1423  0.3986
12136W        W27267  16.633   8.275   6.173  0.0065  0.3226  0.0445
12137W        W27268  14.250   3.859  10.950  0.1254 -0.3165  0.1177
12138W        W27269  10.887   9.212   2.526  0.1513 -0.2066  0.0084
12139W        W27270   1.891  15.680  14.919  0.2527 -0.0984  0.0737
12140W        W27271  12.094   4.630   1.171  0.1497 -0.0963 -0.1742
12141W        W27272   9.932   3.193  13.191  0.0631  0.0972 -0.0200
12142W        W27273  11.479  12.626  13.471 -0.0145  0.0920  0.3452
12143W        W27274  10.208   0.286  13.744  0.0130  0.4676  0.0114
12144W        W27275  11.608  10.658   2.455  0.1171 -0.3012 -0.1149
12145W        W27276  12.448   6.704  15.223  0.1179 -0.1566  0.0940
12146W        W27277  12.096  15.750   0.232 -0.2839 -0.0006 -0.1122
12147W        W27278   9.301   4.277  12.826 -0.1112 -0.0207  0.1595
12148W        W27279  10.448  16.119   3.065 -0.1417  0.1813 -0.1129
12149W        W27280  17.620   2.929  10.718 -0.1093  0.0724 -0.1173
12150W        W27281  14.841   8.156   2.986 -0.0990 -0.0281 -0.2073
12151W        W27282  11.206   0.361  10.958  0.0091  0.1130 -0.4359
12152W        W27283  11.296  11.274   4.938 -0.1093 -0.2794  0.0371
12153W        W27284   6.776  12.121  14.783  0.1990 -0.0625 -0.0394
12154W        W27285   2.908  10.044   3.135  0.1236 -0.2576  0.1699
12155W        W27286  10.255  15.660   1.950  0.1281  0.0151  0.2538
12156W        W27287   4.870  14.436  12.847 -0.1612  0.0185 -0.1558
12157W        W27288  15.852  11.462   4.917  0.0841 -0.1869 -0.1045
12158W        W27289   0.452   2.345  14.989  0.1002 -0.4506 -0.1261
12159W        W27290   0.378   6.603  14.781 -0.1048 -0.1858 -0.1234
12160W        W27291  15.913   0.933   2.787 -0.0104  0.1718  0.2421
12161W        W27292   0.827  14.747   1.137  0.0125 -0.0836 -0.4998
12162W        W27293  17.704   5.066  13.442  0.0047 -0.3263 -0.0254
12163W        W27294   1.129   9.196   4.076 -0.0048 -0.0865  0.4766
12164W        W27295   4.330   8.168   3.010 -0.1618  0.0516  0.0948
12165W        W27296  10.378   3.453  13.514 -0.3328 -0.1914  0.3881
12166W        W27297   1.993   0.255   4.988  0.3698 -0.0172  0.0255
12167W        W27298  14.245  15.582   5.358 -0.0441 -0.2102 -0.2883
12168W        W27299   6.298   1.196   4.972  0.1252  0.2331 -0.2071
12169W        W27300   7.482  17.903   1.657  0.1708  0.2523 -0.1296
12170W        W27301   7.384   9.102  13.836 -0.0992 -0.2021  0.2114
12171W        W27302  13.895  13.471   3.622  0.0630  0.3416  0.0324
12172W        W27303   2.389  13.739  11.744 -0.1927 -0.0964 -0.1395
12173W        W27304   2.639  12.302   4.210 -0.2712  0.0826 -0.1587
12174W        W27305   5.889  14.754  12.861 -0.1009  0.2793  0.6089
12175W        W27306   5.741  12.340   1.902  0.1642 -0.0125  0.1131
12176W        W27307   9.892   8.984  12.984 -0.1731 -0.1956 -0.1728
12177W        W27308  10.508  12.454   5.302  0.2478 -0.2056 -0.0239
12178W        W27309   7.564   9.492   5.925  0.1762  0.0497  0.2214
12179W        W27310   6.833  17.726   3.423 -0.2030  0.2795 -0.1657
12180W        W27311   8.180   0.187  15.200 -0.3410 -0.1250 -0.0377
12181W        W27312  10.998  17.111   4.710 -0.1133  0.1985 -0.0548
12182W        W27313   2.214  16.527   0.566  0.1414  0.1025 -0.0308
12183W        W27314   7.671   8.174   0.867  0.1090  0.3990  0.2047
12184W        W27315   1.940   6.490  11.589  0.2351  0.1047  0.0265
12185W        W27316   4.305   0.799  11.536 -0.1971  0.1068  0.4461
12186W        W27317   1.213   5.833  15.993 -0.0315 -0.0748 -0.0154
12187W        W27318  16.238   5.322   5.442  0.1099  0.1831  0.0728
12188W        W27319   0.519  14.911   0.251  0.0036  0.2904  0.0722
12189W        W27320  17.915   4.237   6.048 -0.1424  0.0644 -0.0515
12190W        W27321   3.757   1.402  16.219  0.0914 -0.0608 -0.0222
12191W        W27322   1.530  10.972  12.955 -0.1739 -0.0749  0.0231
12192W        W27323  17.232  16.059   2.887  0.3659 -0.0659  0.1399
12193W        W27324   8.859   5.025  10.542 -0.1794 -0.0834 -0.0981
12194W        W27325   1.406   2.671   0.181  0.0230 -0.1163 -0.2543
12195W        W27326  10.593  14.508   3.830 -0.0834 -0.1261  0.2342
12196W        W27327   5.756  15.824  12.038 -0.0959 -0.2516 -0.0204
12197W        W27328  14.114  14.893  12.426  0.1613 -0.0422  0.0082
12198W        W27329   7.187   4.151  14.040  0.2602  0.1832 -0.0095
12199W        W27330   2.215  15.697  15.893 -0.0244 -0.0274 -0.0317
12200W        W27331   5.642  14.680   5.073 -0.0561 -0.3079 -0.0103
12201W        W27332   3.257   7.782   0.343 -0.2215  0.1402 -0.1870
12202W        W27333  16.933   3.086  15.531  0.1144 -0.3549  0.0085
12203W        W27334   8.940  15.162  16.021 -0.3722  0.0751 -0.1952
12204W        W27335  10.704   6.794   3.189 -0.0228 -0.0500 -0.3564
12205W        W27336   5.077   2.162  11.167  0.1175  0.0647 -0.0199
12206W        W27337  12.596  15.662   3.639 -0.4107  0.0928 -0.2802
12207W        W27338  15.359  10.205  15.968 -0.2077  0.0483 -0.3546
12208W        W27339  13.866  14.430   4.022 -0.1514 -0.0362 -0.2134
12209W        W27340   9.496   4.230  15.600 -0.1805 -0.0831  0.0280
12210W        W27341  16.625  13.166  11.970 -0.2038 -0.2391 -0.2075
12211W        W27342   3.430  13.088  12.267 -0.3275 -0.1250 -0.1466
12212W        W27343   0.386   9.242   0.765 -0.0762 -0.0071 -0.4030
12213W        W27344  11.902   5.448   4.749  0.0030  0.0522 -0.2784
12214W        W27345  13.667   5.351  11.623  0.1304 -0.2104  0.0515
12215W        W27346  12.349   8.512  12.900 -0.4224 -0.0059  0.2448
12216W        W27347   7.177  12.189  13.105  0.1281  0.2323 -0.2466
12217W        W27348  17.490  15.951  14.297 -0.1775  0.0292  0.0787
12218W        W27349   0.666  11.587   4.464  0.3051  0.0281 -0.0502
12219W        W27350   4.184   5.297  14.729 -0.0143  0.1416 -0.0417
12220W        W27351  10.320   9.444   4.721  0.1090  0.2301 -0.1081
12221W        W27352  10.721   6.243   2.973  0.0298  0.1243  0.1201
12222W        W27353   8.708   2.701   5.171 -0.0321 -0.0796  0.0232
12223W        W27354   0.852  11.805  12.577  0.2587  0.0851 -0.0830
12224W        W27355  13.084  12.271  11.385 -0.0545 -0.0323  0.1141
12225W        W27356   4.011  11.104   2.676 -0.2330  0.3012  0.2235
12226W        W27357   7.503  16.691  13.177 -0.2812 -0.2679  0.0561
12227W        W27358   9.359  15.543  14.727  0.2270  0.0848  0.0062
12228W        W27359   5.334  12.141   2.130  0.1488  0.1144  0.2547
12229W        W27360   8.368  18.027  13.954 -0.1883  0.0773 -0.0826
12230W        W27361   4.693   3.881  11.451  0.0040  0.0565  0.0399
12231W        W27362   3.522   6.170   1.184 -0.0060 -0.0676 -0.0744
12232W        W27363   3.379  11.478  14.656  0.1251 -0.0381 -0.0921
12233W        W27364  10.433  17.004   4.586  0.2598 -0.3244 -0.0302
12234W        W27365  13.221  11.868   4.885 -0.1367 -0.3139 -0.0091
12235W        W27366   5.294  15.965  13.810  0.0564  0.1915 -0.0120
12236W        W27367  15.783   3.118   3.600  0.2695  0.0178 -0.1343
12237W        W27368   8.913  11.952  11.986 -0.1045  0.1528  0.0367
12238W        W27369   0.240   1.080  15.516 -0.0072 -0.0175  0.1918
12239W        W27370  17.681  14.660   2.608 -0.1055  0.2929 -0.2766
12240W        W27371  17.000   9.482  15.317  0.1103 -0.0816  0.3363
12241W        W27372  15.145  15.932  15.536 -0.0377 -0.0558 -0.1141
12242W        W27373  11.462  10.327   2.060  0.0006 -0.0587 -0.0041
12243W        W27374   7.237  10.535   5.985 -0.3683 -0.0036  0.1855
12244W        W27375   9.959  14.673  11.922 -0.0119 -0.1745 -0.2790
12245W        W27376   5.004   4.198  11.655  0.3342  0.0429  0.2479
12246W        W27377  13.805   4.225  15.303  0.0404 -0.1965 -0.1671
12247W        W27378   3.785   6.293  11.681 -0.0053  0.1422  0.0672
12248W        W27379   3.094   1.385  12.086 -0.0458 -0.2192 -0.1425
12249W        W27380   3.465  13.722   3.433  0.1509 -0.1615  0.2840
12250W        W27381   8.757   3.606   2.235  0.3399  0.0874  0.0418
12251W        W27382   5.104   7.143   1.028  0.1824  0.3214  0.0152
12252W        W27383   6.182   4.982  12.794 -0.0615  0.0519  0.1786
12253W        W27384   3.847   1.255  13.853  0.1319  0.0998 -0.0438
12254W        W27385  18.090   2.644  14.999  0.2584  0.1883 -0.2810
12255W        W27386   0.066   2.261   0.588 -0.1051 -0.3699 -0.2580
12256W        W27387  10.825   0.483   3.586  0.1365  0.0761 -0.0185
12257W        W27388  15.478  10.358  14.656  0.2690 -0.0163  0.0388
12258W        W27389  16.468   0.491   4.992  0.2217  0.4807 -0.0623
12259W        W27390  11.351   1.872  14.881  0.0694 -0.2383  0.2356
12260W        W27391   9.079  12.381  12.851 -0.0734 -0.1627 -0.2159
12261W        W27392  16.883   0.066   0.639  0.2568  0.1002  0.1530
12262W        W27393   0.613  14.281  14.918 -0.0666  0.0590  0.2494
12263W        W27394   0.958  15.554   2.081  0.0615  0.0122  0.1025
12264W        W27395   6.522   9.321  13.148  0.0822  0.1466 -0.0309
12265W        W27396   8.008  13.694  14.933  0.1167  0.4865  0.0389
12266W        W27397   0.667  17.297  10.839  0.0282 -0.2681  0.0394
12267W        W27398   6.753  17.021  16.220 -0.1296 -0.2281 -0.0817
12268W        W27399   4.568   3.157   2.611  0.0521 -0.0929  0.2067
12269W        W27400   9.997   0.510   2.360 -0.1351 -0.2493  0.2028
12270W        W27401   9.694   6.512  13.238 -0.0109 -0.0652  0.1797
12271W        W27402  15.636   1.941  14.545  0.0984 -0.0361  0.0254
12272W        W27403   5.665  11.847   1.408 -0.2590 -0.1583 -0.1698
12273W        W27404   8.221   7.455  15.203  0.3116 -0.0173  0.1481
12274W        W27405   0.543   8.152   3.596  0.0187 -0.0752 -0.0765
12275W        W27406   9.257  12.534   1.851  0.1889  0.2787  0.1653
12276W        W27407  10.345  13.288  13.672  0.2631  0.1208  0.0217
12277W        W27408  10.243  11.739   1.218 -0.1918  0.2575  0.0517
12278W        W27409   1.914  14.929   0.588 -0.1807 -0.1658  0.2206
12279W        W27410   3.483  11.069  16.034 -0.1455 -0.2589 -0.0197
12280W        W27411   8.146   5.295   6.120  0.0153  0.0726 -0.0205
12281W        W27412  17.452   9.061  15.931  0.0603 -0.0294 -0.0240
12282W        W27413   9.779   5.647   5.685  0.0257  0.2604  0.0926
12283W        W27414  11.395  11.977   3.262 -0.1042  0.0406 -0.0737
12284W        W27415   0.783   7.739  12.226 -0.0497 -0.2699 -0.1353
12285W        W27416   2.950  16.567   0.402  0.4537  0.0165 -0.1023
12286W        W27417   5.807   1.942   5.794  0.0267 -0.2863  0.1856
12287W        W27418   2.009  12.723  13.682  0.1931 -0.2288 -0.0643
12288W        W27419   0.817   6.796   1.842 -0.5060  0.3407  0.1030
12289W        W27420   5.280  16.620  13.413 -0.0734  0.0136 -0.0208
12290W        W27421  13.915   5.036  12.649  0.0104  0.2269  0.0633
12291W        W27422  13.836  15.448  12.372 -0.0277  0.0656  0.0084
12292W        W27423  15.226   6.437   4.452 -0.2066  0.0859 -0.0989
12293W        W27424  17.738  12.575   5.634 -0.3903  0.0365  0.1521
12294W        W27425   7.366  11.304  11.594 -0.2010  0.1042  0.0670
12295W        W27426  16.515   7.188   5.425  0.1908 -0.0931 -0.1389
12296W        W27427   2.098   3.754  12.147  0.0096 -0.0793 -0.1126
12297W        W27428  10.438  16.450  14.578 -0.0979  0.1258 -0.0246
12298W        W27429   4.574   1.413   4.135 -0.0387  0.1263  0.0269
12299W        W27430  13.645  17.044   4.697 -0.3205 -0.0347  0.0302
12300W        W27431   1.668   9.229  10.415  0.1946  0.1782  0.1109
12301W        W27432  15.171   1.683   2.750  0.1158  0.0618  0.0386
12302W        W27433   8.068  16.060  15.654 -0.0271 -0.0270  0.2039
12303W        W27434  10.594  16.390  12.180 -0.0043  0.0456  0.2966
12304W        W27435   1.615   5.873   0.616 -0.0587 -0.2782  0.1141
12305W        W27436  13.055   8.949  13.542  0.0286  0.0408  0.1010
12306W        W27437  17.208   9.233   2.035 -0.2547 -0.1846  0.0418
12307W        W27438   0.456   5.878   1.791 -0.3208 -0.2001 -0.2006
12308W        W27439  15.476  14.834  12.324  0.0772  0.0501 -0.0810
12309W        W27440   4.579   2.920  14.830 -0.0412 -0.1140 -0.0069
12310W        W27441  12.493   9.096  15.960  0.0420  0.1625  0.0996
12311W        W27442   7.070   7.604   5.414 -0.0804  0.1255 -0.1862
12312W        W27443   9.181  11.024  11.362 -0.2953  0.1310  0.0361
12313W        W27444  10.652  17.859   2.837  0.1170  0.1954  0.0458
12314W        W27445   7.105   1.094   2.248 -0.1686  0.0606 -0.1231
12315W        W27446   8.822  13.720   2.129 -0.0273 -0.3253 -0.0668
12316W        W27447   6.514  14.659  15.792  0.0592  0.0491  0.0983
12317W        W27448   5.605   7.929  14.353 -0.0329 -0.0366  0.1886
12318W        W27449  13.355   8.516  15.328 -0.0206 -0.1324  0.0250
12319W        W27450   2.413   4.524   2.908  0.1853  0.1070 -0.0783
12320W        W27451   9.304  12.366  14.623  0.1301  0.2057  0.0314
12321W        W27452   6.401   2.768  13.904 -0.0629 -0.1589 -0.1307
12322W        W27453  10.368   5.997   5.057  0.2233  0.0558  0.1703
12323W        W27454  11.847   1.045   4.844 -0.1745 -0.3557  0.0557
12324W        W27455  15.134   8.404  15.611 -0.0612  0.1053 -0.2763
12325W        W27456  13.051   7.608  14.635 -0.0287 -0.1593  0.3064
12326W        W27457  15.248   9.154  11.480 -0.2422  0.1091 -0.0733
12327W        W27458   0.406   2.718  14.026 -0.0043 -0.1839 -0.0413
12328W        W27459   6.268  14.443   5.839  0.1457  0.0264 -0.3320
12329W        W27460  16.586   0.025  11.408  0.1943  0.1234 -0.0942
12330W        W27461  15.718  11.553   2.665 -0.0241  0.2103 -0.0169
12331W        W27462  12.857   2.549  13.713 -0.2618 -0.1154  0.2308
12332W        W27463  15.621   3.968   3.503  0.0775  0.0250  0.1351
12333W        W27464  10.918   0.201   1.688 -0.0442  0.2650 -0.0878
12334W        W27465  15.659   8.158   4.356  0.1382 -0.2197 -0.2665
12335W        W27466  17.552  15.496  14.511 -0.4782  0.1569  0.0328
12336W        W27467  10.016  12.308   2.991 -0.0157  0.0471 -0.2004
12337W        W27468   5.279  10.283   0.071 -0.2125  0.3875 -0.3056
12338W        W27469   6.912  14.084   2.425  0.2167 -0.1824 -0.0409
12339W        W27470  14.610   1.061  12.227 -0.0294  0.1012 -0.0873
12340W        W27471   1.428  13.228  13.702  0.1051 -0.1367 -0.2289
12341W        W27472   0.728   3.651   1.937  0.0722  0.0272 -0.0360
12342W        W27473   4.311   8.649   1.480 -0.0594 -0.1298 -0.0214
12343W        W27474  12.801  12.981   2.639  0.0503  0.0307  0.2271
12344W        W27475   5.040   3.394  13.523  0.0023  0.2400  0.0725
12345W        W27476  17.282   0.375  14.797  0.0011  0.2593 -0.2085
12346W        W27477   0.440   8.363   4.341 -0.2711 -0.0115  0.2878
12347W        W27478  14.989  11.526   2.020  0.2035 -0.0778  0.2005
12348W        W27479  14.767   9.645  15.270  0.1349  0.1111  0.0308
12349W        W27480   6.996   9.339  13.107  0.0459 -0.0710  0.0553
12350W        W27481  17.547  17.072  15.067  0.1136 -0.0306  0.1616
12351W        W27482   6.672  17.470   1.150 -0.2894 -0.0636  0.3472
12352W        W27483   5.158   7.551  13.093 -0.2711 -0.0894  0.2333
12353W        W27484   3.355   0.860  12.331 -0.3825 -0.0510  0.0863
12354W        W27485   4.449   5.462   3.867 -0.1287  0.1057  0.1058
12355W        W27486   1.722   7.167   4.604  0.0623  0.3531 -0.0049
12356W        W27487   8.617  12.072   3.698  0.2209  0.1962  0.0110
12357W        W27488   2.765  16.985  13.023  0.2179  0.1428 -0.2563
12358W        W27489  16.355   2.695  10.966 -0.0564  0.1923 -0.1858
12359W        W27490   5.112  15.747  10.555  0.2351  0.3328  0.2416
12360W        W27491  14.258  16.332   0.798 -0.0483 -0.2003  0.0436
12361W        W27492  11.193  14.158   1.750  0.2717 -0.5994  0.1293
12362W        W27493  16.827   1.849  14.212 -0.2135  0.3332 -0.3192
12363W        W27494   8.554   4.908  13.302  0.1114  0.0378  0.2815
12364W        W27495   4.540   9.480  16.053  0.0716  0.2190 -0.0116
12365W        W27496  16.090  10.531  11.811 -0.2744 -0.0264 -0.3159
12366W        W27497  17.223  15.377   1.089 -0.0759 -0.0906  0.4319
12367W        W27498   2.434  11.529   2.284  0.0342  0.0764  0.0041
12368W        W27499   1.001   0.513  13.520  0.2010  0.1135  0.2817
12369W        W27500  16.422   6.859  13.488 -0.2151 -0.0197  0.0810
12370W        W27501  13.631  11.380   4.552  0.0100 -0.0775  0.2789
12371W        W27502   5.825  15.985  15.570  0.1578  0.1989  0.0678
12372W        W27503  16.561  12.713  14.007 -0.2125 -0.1902 -0.2887
12373W        W27504  16.912  15.147  13.209  0.0805  0.1373 -0.0333
12374W        W27505   0.897   8.985  13.178  0.5072  0.0911  0.0125
12375W        W27506  11.705   1.556   3.957  0.1093 -0.0166  0.0876
12376W        W27507   9.534   3.125  14.768  0.0177  0.0049  0.1188
12377W        W27508   4.573  12.069  12.338 -0.0676  0.1185  0.0575
12378W        W27509   2.757   7.368   3.371  0.2001  0.2705  0.1735
12379W        W27510  11.186  13.503  15.718  0.3985 -0.0483 -0.2654
12380W        W27511   5.147   1.489   4.339 -0.1364  0.1040 -0.0503
12381W        W27512   8.458   9.819   1.331  0.0073 -0.1051  0.0492
12382W        W27513   5.621   2.341   1.821  0.1673 -0.0538  0.0764
12383W        W27514   6.389   1.381   2.917  0.2772  0.0892  0.1320
12384W        W27515  16.432   1.232  14.495 -0.0034 -0.0531  0.0141
12385W        W27516   8.401   9.775  11.663 -0.1081  0.0415 -0.0208
12386W        W27517   8.336  14.942  14.988 -0.2214 -0.2160  0.2341
12387W        W27518  10.531   6.379  11.387 -0.0443  0.2728 -0.0925
12388W        W27519   8.527  12.588   1.351 -0.0909  0.0625 -0.1683
12389W        W27520   5.931   4.757  11.625  0.3940  0.3381 -0.2936
12390W        W27521  15.670  11.971   0.667 -0.2611  0.3914 -0.0230
12391W        W27522  12.962  13.384   1.399  0.0680 -0.0170  0.1976
12392W        W27523  14.592  16.638  14.309  0.6045 -0.0201 -0.0341
12393W        W27524  10.349   4.960  12.220  0.5402 -0.0673 -0.1071
12394W        W27525  15.470   4.090   5.400 -0.0216  0.0704  0.2440
12395W        W27526  15.964   8.315  14.359 -0.0277  0.0891 -0.0130
12396W        W27527   9.510   6.597  15.082 -0.1886  0.0435 -0.3001
12397W        W27528  14.341  10.782  15.810 -0.3140  0.0973 -0.2162
12398W        W27529   6.037  10.670  14.222 -0.1856  0.1343  0.1192
12399W        W27530   1.839   0.518  11.941  0.0785 -0.0202 -0.1093
12400W        W27531  12.436  13.045  12.454  0.1519  0.0281 -0.1106
12401W        W27532   4.401   2.960   0.563  0.1232  0.0177 -0.1918
12402W        W27533  16.068  13.682  13.837  0.0476  0.1492 -0.1266
12403W        W27534   4.401   6.405   3.035 -0.1189  0.0707  0.0245
12404W        W27535  10.651   4.145   0.492  0.0551  0.2998 -0.0987
12405W        W27536   5.643   6.112   0.888 -0.1098  0.1691 -0.1855
12406W        W27537  15.879   5.600  12.559 -0.0768  0.0048 -0.1045
12407W        W27538   6.064   9.327   4.091  0.0699  0.0723 -0.1000
12408W        W27539   9.722   9.799  13.708  0.1002 -0.0815 -0.2530
12409W        W27540   8.519   0.311  13.454 -0.0939 -0.1013 -0.2486
12410W        W27541  10.995   0.583  16.007 -0.1270 -0.1634 -0.0534
12411W        W27542   0.990   0.533  15.112  0.0462  0.1059  0.2015
12412W        W27543  14.405   3.783   1.526  0.1556 -0.0632  0.2742
12413W        W27544  15.153   1.727   4.095  0.1322  0.0673  0.1993
12414W        W27545  17.238  13.485  14.855  0.0425 -0.0011  0.0489
12415W        W27546  17.916  14.348   5.647 -0.4192  0.0786 -0.0558
12416W        W27547  11.825  16.382   2.670  0.1624 -0.2747 -0.3964
12417W        W27548   7.843  11.184  15.956  0.0721  0.0374  0.0999
12418W        W27549   8.901  17.534   5.799 -0.0721  0.1412  0.1955
12419W        W27550  11.614   6.115  11.211  0.0178 -0.0383  0.2506
12420W        W27551   0.075   8.156  12.776 -0.1257 -0.1904 -0.0921
12421W        W27552  17.011   7.532   4.492  0.1188  0.2792  0.0671
12422W        W27553   3.757  14.190   3.230  0.0174 -0.0592 -0.0002
12423W        W27554  15.018  12.091  12.876 -0.1712  0.2503  0.2325
12424W        W27555   8.469  12.281   2.166  0.3551 -0.2241  0.1404
12425W        W27556  10.686   3.105   3.552 -0.0673 -0.1219 -0.3693
12426W        W27557   3.250   2.651  10.814 -0.0639  0.3420  0.1710
12427W        W27558   9.887   7.361   3.599  0.0247 -0.0363  0.0673
12428W        W27559   6.370   2.217   5.386  0.0016  0.0150  0.0162
12429W        W27560   7.516   8.493   2.114 -0.1583 -0.1805  0.0052
12430W        W27561  15.542  13.955  14.096 -0.0660  0.0172  0.0659
12431W        W27562  14.098   0.534  15.822  0.1268  0.0257 -0.0578
12432W        W27563  14.329   3.519  12.398  0.0894 -0.1666  0.1456
12433W        W27564  15.954   6.123  13.860  0.0236 -0.1678 -0.0450
12434W        W27565  12.633  11.452  11.214 -0.0401  0.2122 -0.0256
12435W        W27566  16.736  16.774   2.370  0.3884 -0.0050  0.0873
12436W        W27567   2.564  14.745  11.720 -0.0923  0.2032 -0.0077
12437W        W27568  17.746   1.682  13.554  0.0246  0.0286 -0.1345
12438W        W27569  14.099   9.006  12.154 -0.3955 -0.1550  0.0812
12439W        W27570   4.827  15.430   3.388 -0.2794  0.2240  0.0465
12440W        W27571   9.674   7.601   4.939 -0.0151  0.3340  0.0987
12441W        W27572  10.447  13.521   3.240  0.2250  0.1683 -0.0770
12442W        W27573  12.060  18.057   6.008  0.2291 -0.1586 -0.2533
12443W        W27574   2.379  10.927  14.509  0.1393 -0.5059 -0.2111
12444W        W27575  12.476  10.759  15.874  0.2143 -0.3191 -0.0718
12445W        W27576  17.411   7.302  14.778 -0.2309 -0.2591 -0.0115
12446W        W27577  13.733   7.345   4.500 -0.0796 -0.0309 -0.0695
12447W        W27578   5.222  11.889  14.457 -0.1221 -0.1626  0.1221
12448W        W27579  13.018   7.405  13.730  0.0787 -0.0707 -0.0037
12449W        W27580   2.151  12.027  13.131  0.0778 -0.2277  0.0192
12450W        W27581   0.065   2.155   2.811  0.0210  0.0641 -0.1221
12451W        W27582  14.485   5.427  15.549 -0.1723  0.0369  0.1454
12452W        W27583  11.952  10.450   2.063  0.2496 -0.0599 -0.1112
12453W        W27584  16.135  15.437   2.093  0.0855 -0.0273  0.4831
12454W        W27585   6.563  12.468  13.801 -0.0303 -0.0715 -0.0036
12455W        W27586   1.480   5.122  14.216 -0.1019 -0.2135  0.3938
12456W        W27587  17.683   8.349   3.608  0.1080 -0.1187  0.1506
12457W        W27588   1.102  15.107  14.324  0.4106 -0.0787 -0.2626
12458W        W27589   7.829   3.700  11.988  0.2403  0.1990  0.5887
12459W        W27590  15.696   6.994  14.359  0.2472  0.1840 -0.4993
12460W        W27591   9.101   1.502  11.672  0.2425  0.0865 -0.0512
12461W        W27592   8.475   1.854  11.973  0.1576  0.3403 -0.2042
12462W        W27593  12.083   5.989   2.793 -0.1619  0.0854  0.0518
12463W        W27594   0.836   2.523  14.687 -0.1323  0.1446  0.0015
12464W        W27595  14.481   8.481   3.102  0.1139  0.1016 -0.1436
12465W        W27596   4.790   8.024  15.583 -0.0033 -0.1287  0.1078
12466W        W27597   9.747   4.604   3.439  0.0180  0.1739  0.0265
12467W        W27598  12.754   1.819  16.240  0.1514 -0.0243 -0.0613
12468W        W27599  17.211   7.732  12.928  0.2015  0.0400 -0.0105
12469W        W27600  17.894  15.476  11.352  0.0403  0.1787  0.0809
12470W        W27601   1.474  10.062  15.728  0.0417  0.2357 -0.1787
12471W        W27602  14.311  13.463   2.697  0.0268 -0.1244 -0.1703
12472W        W27603  10.338   2.355   1.043 -0.1112  0.0759 -0.2825
12473W        W27604  17.418   4.154  13.007 -0.0210 -0.3845 -0.2067
12474W        W27605  16.507   7.607   5.023 -0.0397  0.0560  0.3363
12475W        W27606   9.744  11.078  15.112  0.1057  0.1367 -0.2081
12476W        W27607   6.632   9.806  14.083  0.1788 -0.1636 -0.1782
12477W        W27608   8.493   9.634   1.858 -0.1046 -0.0062 -0.0474
12478W        W27609  14.076  11.941   4.509 -0.1551  0.1551  0.0710
12479W        W27610  13.948   1.482  16.034  0.2149 -0.1908 -0.0861
12480W        W27611  10.238   2.879  11.248 -0.1141 -0.1175  0.0238
12481W        W27612  16.734  15.153  12.744  0.2902 -0.1570 -0.2505
12482W        W27613  11.169   4.202  13.625  0.0004  0.0763 -0.3031
12483W        W27614  14.196  15.572   1.252  0.0132  0.0574  0.0349
12484W        W27615   6.961   7.501  12.424  0.1487 -0.1759 -0.1892
12485W        W27616  12.825  16.295   1.747 -0.1516  0.0319 -0.1428
12486W        W27617  16.562  16.951  13.113 -0.0567  0.1813  0.2827
12487W        W27618   9.513   1.115  13.780 -0.1904  0.1662  0.1462
12488W        W27619   8.591   4.988  11.997  0.0803 -0.0064  0.1271
12489W        W27620  16.086   7.478  12.711 -0.2246  0.1666 -0.0858
12490W        W27621  11.701   2.797   3.978 -0.0229 -0.1869  0.0797
12491W        W27622  10.441  16.191  12.913 -0.0872 -0.1624 -0.1250
12492W        W27623   6.411   6.761   1.416  0.1581 -0.0411  0.0124
12493W        W27624  16.662   7.028   1.049 -0.0459 -0.1925 -0.2536
12494W        W27625  10.392   8.941   3.736 -0.0507  0.2255 -0.2180
12495W        W27626   4.743   1.391   2.682 -0.1074 -0.0024 -0.2042
12496W        W27627   6.954  13.344  12.797 -0.3319 -0.1816 -0.0323
12497W        W27628   6.643   8.613   2.037 -0.0395 -0.1048 -0.3079
12498W        W27629   6.346  13.098  14.849  0.2224 -0.1065  0.0864
12499W        W27630   3.680   5.348  12.522  0.0619 -0.0621 -0.1589
12500W        W27631   3.764  17.345  15.483  0.2488 -0.0740 -0.0448
12501W        W27632   5.193   3.090   1.346  0.3754  0.3976 -0.0953
12502W        W27633   6.549   8.765  14.284  0.2569  0.3823  0.0915
12503W        W27634   3.988   2.441  11.623 -0.1944  0.0976 -0.3157
12504W        W27635  14.164  11.334  13.846 -0.1203  0.2028 -0.1989
12505W        W27636   0.278  12.750  11.528 -0.0344 -0.4453  0.1570
12506W        W27637  17.576   4.136  14.436  0.0060  0.2501 -0.1079
12507W        W27638  13.359   0.744   3.234  0.1929 -0.1251  0.0911
12508W        W27639  18.062   4.230  13.750  0.0499 -0.1919 -0.0743
12509W        W27640  17.410   1.673   4.510  0.2165 -0.1066 -0.2183
12510W        W27641   9.275   7.209   1.687  0.0373 -0.2724  0.0457
12511W        W27642   6.075  11.508   0.572 -0.0388 -0.2222 -0.3954
12512W        W27643   8.925   6.110  13.322  0.1445  0.4027  0.1115
12513W        W27644  12.145  10.111   0.289  0.0155 -0.2703  0.3939
12514W        W27645  16.455   4.356  13.050 -0.2893 -0.2042 -0.0716
12515W        W27646   6.084  10.841   4.239  0.0547 -0.1440  0.1381
12516W        W27647   9.949   1.681   3.249 -0.1193  0.0899  0.2295
12517W        W27648  11.323   0.933   0.520 -0.1458 -0.0671 -0.1348
12518W        W27649  17.610   6.510  15.833 -0.0315  0.1171  0.0409
12519W        W27650  17.893   8.648   2.009 -0.1633  0.1497 -0.0760
12520W        W27651  14.994   5.958   0.448  0.0930  0.3944 -0.1540
12521W        W27652  14.090  14.948  15.782  0.2502  0.1504  0.1313
12522W        W27653  16.687  17.229   2.207 -0.2277  0.1455  0.1810
12523W        W27654   5.903  11.596   0.148  0.2557  0.0227 -0.0141
12524W        W27655  16.935   5.583   5.192  0.4460  0.4827  0.0533
12525W        W27656   4.003  11.717   1.269 -0.0191  0.1429 -0.2743
12526W        W27657  15.859  17.910   0.557  0.3331  0.0237 -0.1500
12527W        W27658   9.710   0.435   2.737  0.1465  0.0714  0.1403
12528W        W27659  10.132  17.400  11.305 -0.0558  0.2655  0.2883
12529W        W27660   1.600  13.807   5.275 -0.0456  0.0605 -0.1168
12530W        W27661   0.402   0.946  12.512  0.1371  0.2029 -0.0890
12531W        W27662   9.631  14.096   2.732 -0.1933 -0.1054  0.1341
12532W        W27663   6.755  14.021  15.124  0.1566 -0.1456 -0.1054
12533W        W27664  15.786   9.648   5.329 -0.0857  0.1961 -0.1651
12534W        W27665   2.983   4.757   0.620  0.0540 -0.0476 -0.1923
12535W        W27666   7.545   4.325   5.068  0.0586 -0.3597 -0.3408
12536W        W27667   1.656   0.249  13.826 -0.2452  0.2083 -0.2092
12537W        W27668   5.267   5.303  11.180 -0.1873  0.2029 -0.1531
12538W        W27669   8.668  11.629  15.470  0.1065 -0.0234  0.0778
12539W        W27670   3.410   0.334   0.919  0.4782  0.3270  0.0552
12540W        W27671  13.909   2.221   1.534 -0.1213 -0.1211 -0.0230
12541W        W27672  12.147   1.606   1.781  0.0147  0.2494 -0.0185
12542W        W27673   8.859   8.788  13.827 -0.2801 -0.1340  0.1730
12543W        W27674   2.514   4.735   6.056 -0.0624  0.3235 -0.1020
12544W        W27675   6.858  14.920  14.576 -0.0410 -0.0828 -0.0573
12545W        W27676  11.090  11.763   3.717  0.0676  0.0865  0.1342
12546W        W27677   0.743  16.905  14.936 -0.1066  0.2595 -0.0019
12547W        W27678  10.538   6.549  10.589 -0.1501 -0.0450 -0.0608
12548W        W27679  17.717   6.220   6.147 -0.0439 -0.1075  0.1335
12549W        W27680   9.055  11.896  12.984  0.1589 -0.0048  0.0736
12550W        W27681   8.441   3.409   5.581  0.1779 -0.1204  0.0057
12551W        W27682  10.357  13.171  14.185  0.3214  0.1991  0.1533
12552W        W27683  13.012   2.902   2.950  0.2345 -0.2015  0.1741
12553W        W27684   9.467  10.754  13.803 -0.1359  0.0154 -0.3003
12554W        W27685   1.022   2.691  10.864  0.1548  0.1877  0.0892
12555W        W27686   9.298  17.078   0.413 -0.3188 -0.1623  0.0331
12556W        W27687   1.546   1.142  13.286  0.0342 -0.0165  0.0037
12557W        W27688   2.481  16.068  16.144  0.0595  0.1508  0.3586
12558W        W27689   2.245  17.255  11.639  0.1525  0.1784  0.0719
12559W        W27690   5.278   5.945   3.036  0.1518 -0.3910  0.1903
12560W        W27691   8.975  11.226  15.300  0.0933 -0.0407  0.0225
12561W        W27692   4.656  17.642  10.864  0.0409 -0.0554  0.0330
12562W        W27693   8.615   8.626  12.025  0.0820 -0.3647 -0.0178
12563W        W27694  17.397   3.359   0.856 -0.1095  0.0056 -0.0642
12564W        W27695  10.372  14.796  12.216  0.0371 -0.0362  0.3753
12565W        W27696   0.266   7.155  13.244 -0.1396 -0.1050  0.3457
12566W        W27697   3.646  10.491   0.278 -0.2944 -0.0478 -0.1769
12567W        W27698   5.255  10.805  12.539 -0.0803  0.0770  0.0652
12568W        W27699   4.883   8.572  11.999  0.0780 -0.0388 -0.0228
12569W        W27700   5.094   9.369  12.536 -0.0789  0.0252 -0.1221
12570W        W27701  11.239   5.253   0.811  0.0567  0.2185  0.0484
12571W        W27702  16.343  10.171  16.023  0.0724  0.0055 -0.2210
12572W        W27703  16.581  15.609  10.578 -0.0817  0.0701  0.1328
12573W        W27704  16.511   5.490   2.195  0.3032  0.1450  0.0165
12574W        W27705   2.186   0.225  14.020  0.0797 -0.1728 -0.1216
12575W        W27706  10.808   7.640  11.292  0.0260  0.1574 -0.2765
12576W        W27707  11.453   6.249  15.530 -0.0408  0.0591  0.2501
12577W        W27708  12.193  11.807  11.614 -0.3912 -0.1449 -0.1052
12578W        W27709   9.431   4.756   3.014 -0.1220  0.1067  0.0435
12579W        W27710  16.296   4.781   0.067 -0.1905  0.0190  0.2455
12580W        W27711  10.112   1.336  15.195 -0.4577  0.4079 -0.0643
12581W        W27712   9.350   8.277   3.662 -0.1431 -0.0202  0.3615
12582W        W27713   6.989   8.978   4.034  0.2969 -0.0672 -0.3235
12583W        W27714  15.506   7.606   3.377 -0.1686  0.2246  0.6335
12584W        W27715   8.707   7.349   0.420  0.1082 -0.1754  0.0793
12585W        W27716   9.527  11.421   0.832 -0.0752 -0.0499  0.0058
12586W        W27717  16.141   3.419   4.185 -0.1883  0.4508 -0.2283
12587W        W27718   6.170   9.018  13.663  0.1246 -0.1419 -0.1826
12588W        W27719   0.049  13.097   0.590 -0.0885  0.2691  0.0587
12589W        W27720  12.811  12.089  11.833 -0.0008 -0.0011 -0.0324
12590W        W27721   9.168   0.875   1.406 -0.1323  0.4031 -0.2480
12591W        W27722  13.704  14.773   3.111 -0.3241  0.0168  0.3452
12592W        W27723  17.752   1.142  11.686  0.1540 -0.0419  0.0012
12593W        W27724   3.493  17.101   5.353 -0.0861  0.0567 -0.0387
12594W        W27725   2.543  17.328   2.212 -0.0524 -0.0365  0.3561
12595W        W27726   1.690   0.122   0.871  0.2756 -0.0262  0.1544
12596W        W27727   4.216   6.525  12.941 -0.0391  0.0593  0.0015
12597W        W27728   8.759  12.721  13.136  0.0546  0.2823  0.0660
12598W        W27729   2.998   9.287  16.026 -0.1110 -0.0141 -0.1228
12599W        W27730   6.760   2.276   0.593 -0.0201  0.2399 -0.2113
12600W        W27731  14.639  16.244  12.435  0.0306 -0.2312  0.0384
12601W        W27732  16.475   9.692   5.434  0.2505 -0.3346 -0.1455
12602W        W27733   4.302  17.502   0.948  0.1651  0.2282  0.5751
12603W        W27734  15.878  11.617   0.940 -0.1538  0.0760 -0.0282
12604W        W27735  13.788  16.009  12.491 -0.2191 -0.0535  0.2457
12605W        W27736  11.295   1.241  12.215  0.2836  0.0220  0.4230
12606W        W27737  17.901   5.769  15.877  0.2892 -0.1175 -0.0449
12607W        W27738  10.987   9.510  11.165 -0.1416 -0.0887 -0.0620
12608W        W27739   0.265   7.911  13.774 -0.1312  0.0853  0.0230
12609W        W27740   4.695  13.060  12.135  0.0548 -0.0068 -0.1682
12610W        W27741   0.453  17.026   2.529  0.2899 -0.2758  0.3199
12611W        W27742  16.989   9.017   3.528 -0.2466  0.0258 -0.0408
12612W        W27743   1.664   5.584   5.233 -0.1038 -0.0279  0.2022
12613W        W27744  12.959   3.798   3.845 -0.2227  0.1111 -0.0844
12614W        W27745   3.126  14.693  10.852  0.1383 -0.1350  0.0948
12615W        W27746   8.221   0.650   5.372  0.0222 -0.0714  0.1793
12616W        W27747   1.019  16.324   3.467 -0.0869 -0.2700  0.1202
12617W        W27748   9.077  14.461  12.832 -0.0656  0.1469  0.0511
12618W        W27749   2.294  15.211  16.151  0.1855 -0.2460 -0.0712
12619W        W27750  16.093   3.422  13.362 -0.1108 -0.1564 -0.0472
12620W        W27751  10.861   9.117  13.753 -0.0341 -0.1953  0.0259
12621W        W27752   3.082   5.411   6.260 -0.1989 -0.1217  0.0852
12622W        W27753   0.449  16.845  15.437  0.1903 -0.2296  0.0922
12623W        W27754   7.740   1.362   1.852  0.3326 -0.2913 -0.3134
12624W        W27755   1.529   1.378   4.538  0.0205 -0.2529 -0.3376
12625W        W27756   7.875   8.657  12.918  0.0520 -0.0146  0.0856
12626W        W27757   7.721  14.568   1.967 -0.2295  0.2178 -0.2705
12627W        W27758   2.638  14.325  16.217  0.2515 -0.4779 -0.1251
12628W        W27759   9.566   5.217  12.596 -0.2883 -0.4829 -0.0174
12629W        W27760  12.864  11.461   0.322  0.0246 -0.0926 -0.1483
12630W        W27761   6.441  11.701   3.724  0.0983  0.1421 -0.2241
12631W        W27762  12.227  12.741  11.154 -0.0284  0.1459 -0.0268
12632W        W27763   2.097  13.877   2.078  0.0637 -0.1841  0.0864
12633W        W27764  10.672   6.012  12.269  0.1671 -0.0284 -0.0145
12634W        W27765  15.366   5.189  14.475 -0.0261  0.3186 -0.1436
12635W        W27766  17.252   2.160   2.612  0.1244 -0.0023  0.0356
12636W        W27767  11.874  14.297   6.091 -0.2127 -0.0432  0.1427
12637W        W27768  11.485  13.975   2.698 -0.0188  0.2952 -0.0507
12638W        W27769   2.671  13.632   3.279 -0.1776 -0.0318 -0.1287
12639W        W27770   2.782   2.144   1.630 -0.0844  0.2483 -0.0905
12640W        W27771  12.024  13.908  12.228 -0.0109 -0.0955  0.0521
12641W        W27772  13.795  13.174   4.802 -0.0473 -0.0084  0.0676
12642W        W27773   7.106   7.895  12.096 -0.3824 -0.0066  0.1057
12643W        W27774  16.844  17.569  14.306 -0.0981 -0.4494  0.0242
12644W        W27775   7.380   9.757   4.367 -0.2063  0.0728  0.0307
12645W        W27776   8.726   0.298  11.445 -0.0286 -0.1050  0.1385
12646W        W27777  16.454   8.138  14.356 -0.0129 -0.0311  0.2061
12647W        W27778   4.553  17.725  11.766 -0.0056 -0.1086  0.0071
12648W        W27779   7.096   6.091   3.331  0.0270  0.2082  0.0458
12649W        W27780  15.558   3.480  14.995 -0.0248 -0.2043 -0.1394
12650W        W27781  10.211  15.037  13.148 -0.0428  0.2196  0.0748
12651W        W27782   2.346  15.239  11.755  0.2312 -0.0150 -0.2194
12652W        W27783  12.018   2.246  12.826  0.3136 -0.1695 -0.3161
12653W        W27784  15.569  11.576  15.889  0.0917  0.1763  0.2246
12654W        W27785   4.936   8.980  12.840  0.1947  0.0789 -0.1361
12655W        W27786   9.797   9.072  14.884  0.0213 -0.0061 -0.1402
12656W        W27787   7.778   6.935   5.489 -0.2009  0.0351  0.2390
12657W        W27788   0.921   0.212   0.223 -0.0422 -0.2349 -0.0971
12658W        W27789   3.112   4.992  14.755  0.1530 -0.3236 -0.0657
12659W        W27790   7.344  17.138   4.859  0.0623 -0.1838 -0.0941
12660W        W27791  14.528   6.010   2.673  0.2612  0.0062  0.0364
12661W        W27792  17.035   5.173   3.034 -0.1296  0.3206 -0.0911
12662W        W27793  15.823   7.853  12.535 -0.0251  0.0496  0.4425
12663W        W27794  10.493   6.999   4.895  0.1683 -0.1438 -0.3022
12664W        W27795  14.752  15.711  14.733  0.1514  0.2204 -0.2666
12665W        W27796   8.894   0.602  13.680 -0.0432 -0.0912  0.1948
12666W        W27797   5.765   0.414   0.462 -0.1121  0.1507  0.0934
12667W        W27798   7.846   3.277   1.308  0.0527 -0.1653  0.1211
12668W        W27799   3.892   5.485   4.706  0.5406  0.0213 -0.0693
12669W        W27800  11.603   6.895  13.830 -0.2138 -0.2912 -0.1841
12670W        W27801   3.831   2.295   0.580  0.0626  0.0587 -0.1453
12671W        W27802  11.285  11.107  14.186  0.0461  0.2944 -0.1353
12672W        W27803  10.490  14.783   5.918  0.1657  0.2466  0.0214
12673W        W27804   1.709   4.101   5.664 -0.0610 -0.3157 -0.0260
12674W        W27805   2.276   0.162  11.742 -0.3011 -0.0392 -0.0493
12675W        W27806  14.399  15.576   1.965  0.0551 -0.0508 -0.1350
12676W        W27807   7.354   0.143   0.351 -0.0820  0.1828  0.0872
12677W        W27808   2.687  12.264  15.259  0.0151 -0.0405  0.0712
12678W        W27809  11.278   2.941  11.260  0.3127  0.0408  0.1113
12679W        W27810  12.637   2.729  13.015  0.1161 -0.1033 -0.0224
12680W        W27811  10.139   6.108  11.352  0.3638  0.1929 -0.0721
12681W        W27812  14.210   9.849   1.786 -0.1273 -0.1064 -0.0965
12682W        W27813  13.268   1.055  14.301  0.1292  0.0665  0.0751
12683W        W27814   4.477  16.811   1.554  0.3054  0.0637 -0.0487
12684W        W27815  17.725  12.124  15.013 -0.0017 -0.5038  0.0745
12685W        W27816   4.265   7.648  12.870 -0.1405 -0.0279  0.2093
12686W        W27817   5.386  12.312   0.846  0.4987 -0.4023 -0.0256
12687W        W27818   8.406   1.516   0.424 -0.0346  0.0237  0.0492
12688W        W27819   7.592   5.616  15.503 -0.3348 -0.0040 -0.1334
12689W        W27820  15.436   7.003  11.301  0.1927 -0.1951  0.0183
12690W        W27821  14.864   2.816   4.245  0.1229  0.0103  0.0790
12691W        W27822   1.841  12.466   6.033  0.1947  0.2435  0.1530
12692W        W27823   8.355   9.110  13.709  0.4712  0.3143 -0.2162
12693W        W27824  15.751  12.389   1.455 -0.1721 -0.0185 -0.0509
12694W        W27825  11.331  16.320   2.617  0.1281 -0.4094  0.6196
12695W        W27826   6.026  16.976   5.580  0.0656 -0.1759 -0.0727
12696W        W27827   6.083   5.258   5.400  0.0931  0.0919  0.0269
12697W        W27828  16.990   6.511   3.575 -0.0939  0.0186  0.1612
12698W        W27829  16.539  15.372  16.161 -0.1779 -0.2758 -0.0151
12699W        W27830  16.603  12.112   3.964 -0.1138 -0.0318 -0.1115
12700W        W27831   2.518   8.758  11.585 -0.2851  0.4111 -0.3383
12701W        W27832  12.498  10.564  14.924 -0.0955  0.1142  0.0885
12702W        W27833   1.435  14.486   0.279 -0.1632 -0.1198 -0.1259
12703W        W27834   2.741   4.174   4.867  0.1619  0.0126  0.0618
12704W        W27835  16.877  13.790  12.767  0.0924  0.2360  0.1978
12705W        W27836   2.060  17.609   4.235 -0.3780  0.0424 -0.0512
12706W        W27837   2.780   8.172   5.789 -0.4237 -0.0120  0.2136
12707W        W27838   4.781   0.225   3.578 -0.2535  0.1258 -0.0385
12708W        W27839  14.610  15.984  15.188 -0.2790  0.2587 -0.2716
12709W        W27840  15.909   2.789   3.276 -0.0984  0.0519 -0.1164
12710W        W27841  13.909  14.554   0.583  0.1314  0.1187 -0.0443
12711W        W27842   0.505  18.074  12.689  0.2482  0.3553 -0.0306
12712W        W27843  16.881   5.213   0.837  0.0179 -0.2754 -0.1566
12713W        W27844  12.505  16.580  15.253  0.2504 -0.3200 -0.1126
12714W        W27845   2.217  14.709  11.285 -0.1362 -0.1790  0.0446
12715W        W27846   1.203   7.509  11.508  0.1118 -0.3369 -0.0675
12716W        W27847  15.854  12.924   5.354  0.1530  0.1641  0.1404
12717W        W27848   5.683  15.282   0.157 -0.0137 -0.1341 -0.0831
12718W        W27849  13.025   3.831   4.431  0.1507 -0.2167  0.0828
12719W        W27850   3.192   8.780  13.792 -0.1034  0.0298  0.0755
12720W        W27851   9.925   7.447  13.369  0.0353  0.0317 -0.1042
12721W        W27852   7.562  13.178   3.844 -0.0261 -0.1557  0.0651
12722W        W27853   5.713  13.052  11.134 -0.3447  0.1048 -0.1950
12723W        W27854  17.598  11.911   6.445 -0.4270 -0.0691  0.3215
12724W        W27855  12.415  13.520   6.017 -0.0741  0.2281  0.0470
12725W        W27856   6.358   9.786   0.105  0.0976  0.0103  0.0504
12726W        W27857   9.672   0.931  10.457 -0.2146 -0.3255  0.2840
12727W        W27858  10.501   4.090  12.687 -0.0298 -0.0408  0.2028
12728W        W27859  15.280   0.369   0.086  0.0219  0.1020 -0.4407
12729W        W27860  12.230   4.727  10.973 -0.2646  0.3062  0.0077
12730W        W27861  13.889   6.961   6.488  0.1598 -0.2622  0.3135
12731W        W27862  15.113   8.531  12.908  0.0732 -0.1110 -0.0208
12732W        W27863   8.847  12.323   0.464 -0.0056 -0.0156  0.0301
12733W        W27864   8.702   2.365   0.876 -0.0726 -0.3319  0.1433
12734W        W27865   3.559   7.714   3.153  0.3838  0.0126 -0.0123
12735W        W27866  12.220  17.211  11.638  0.1024 -0.2283 -0.2213
12736W        W27867  17.470   7.413   4.746  0.1668 -0.2181  0.0985
12737W        W27868  11.694   1.675   0.717 -0.1996  0.1285 -0.1126
12738W        W27869   6.706   2.480   4.292 -0.1751  0.1480  0.1056
12739W        W27870   9.017  16.600  13.055  0.0629  0.1239 -0.0303
12740W        W27871  13.916   6.016  13.171 -0.2691 -0.2187 -0.1000
12741W        W27872  14.751   3.677   3.176  0.1526  0.0497 -0.0505
12742W        W27873  14.868   6.956  14.200 -0.1614 -0.1527 -0.1823
12743W        W27874   3.169  12.267   9.852  0.0913  0.1745 -0.2067
12744W        W27875   6.656   6.268  12.868  0.3984 -0.2501  0.1947
12745W        W27876   7.301  16.261  16.034 -0.1460 -0.2981 -0.0969
12746W        W27877   4.524   7.756   1.205 -0.0778  0.0121  0.0391
12747W        W27878  12.724  17.173   3.669 -0.1612 -0.1936  0.1822
12748W        W27879  15.712  16.073  14.074 -0.2024  0.2294 -0.1859
12749W        W27880  15.425   3.787  14.682  0.1512  0.2852 -0.2604
12750W        W27881  12.846  15.224  11.080 -0.1537 -0.1717 -0.1772
12751W        W27882   4.057  15.535  12.396  0.0343 -0.0307  0.0345
12752W        W27883   5.402   8.332  11.760 -0.1783  0.3210  0.0094
12753W        W27884  15.485  15.670   3.303 -0.3822 -0.3041  0.2165
12754W        W27885  11.531   9.316   4.436  0.0747  0.2821 -0.2090
12755W        W27886   2.451  14.315  11.524 -0.0398 -0.1980  0.0916
12756W        W27887  15.929   2.446  10.878  0.0657 -0.1301  0.1525
12757W        W27888   0.532  10.340   2.777  0.2783 -0.2969  0.1794
12758W        W27889  12.239  17.521   4.019 -0.3352 -0.0489  0.1666
12759W        W27890   4.599  13.614  12.010  0.0690 -0.0465  0.0608
12760W        W27891   7.728  11.052   1.504 -0.2152 -0.4094  0.0680
12761W        W27892  12.446  15.110   1.961 -0.3032 -0.1613 -0.0231
12762W        W27893   2.534   0.493  13.804  0.2205  0.3004  0.0110
12763W        W27894   7.354   4.112   0.098 -0.1109  0.2971  0.5143
12764W        W27895   6.980  14.478   4.269 -0.1184 -0.2798  0.0696
12765W        W27896  14.710   1.033  13.181  0.0464 -0.0635 -0.0913
12766W        W27897  10.383   7.558   3.102  0.0389 -0.0155  0.0078
12767W        W27898  12.626   4.857   0.382 -0.0201  0.1015 -0.0344
12768W        W27899  12.240   9.178  11.360  0.0368  0.2676  0.1526
12769W        W27900   8.820   7.555   5.177  0.1324  0.0646 -0.1324
12770W        W27901  14.666   0.663   0.439  0.0980  0.1949 -0.0496
12771W        W27902   4.090  13.209   2.388 -0.3553  0.0292  0.1574
12772W        W27903   9.658   3.879  13.608 -0.1893  0.0976 -0.0760
12773W        W27904   4.860   5.133   5.055  0.2245 -0.0956 -0.0854
12774W        W27905   9.071  14.422   0.182  0.4036 -0.0524 -0.1851
12775W        W27906  17.331  11.468   2.202  0.1727  0.0983  0.0596
12776W        W27907  13.082  16.078   1.359 -0.0374 -0.0282 -0.0158
12777W        W27908  12.833  14.563   3.939  0.1164  0.1626  0.1175
12778W        W27909  17.837   1.524  12.454  0.1065  0.0401  0.3907
12779W        W27910   5.686   6.991   0.618 -0.2942 -0.2732  0.2590
12780W        W27911  16.270   1.702   2.215 -0.2053  0.1745  0.0809
12781W        W27912   8.743   6.171  15.819  0.2118 -0.0990 -0.0855
12782W        W27913   0.349   7.338   0.531 -0.0585 -0.1920 -0.2019
12783W        W27914   4.745  11.524   4.384 -0.0600  0.0175  0.2502
12784W        W27915   3.432   2.319  14.645  0.0864 -0.0751  0.0195
12785W        W27916   1.747   8.719   0.968 -0.0828  0.0027 -0.1533
12786W        W27917  16.530   3.802  16.020 -0.2452 -0.3177 -0.0747
12787W        W27918   4.491  14.638   5.016 -0.2195  0.0566 -0.0876
12788W        W27919  10.443   4.673   0.751  0.0261  0.2980 -0.0222
12789W        W27920   0.012  15.573   2.897 -0.0028  0.1314 -0.0673
12790W        W27921   7.428  16.061   1.119 -0.2195 -0.1679  0.1977
12791W        W27922   1.274  12.953   2.497  0.2851 -0.1242  0.1942
12792W        W27923   0.124   8.038   1.058  0.3714  0.0850  0.0768
12793W        W27924   5.535   0.171   1.388 -0.3233  0.1513 -0.4650
12794W        W27925  14.642   7.416   3.856  0.1750 -0.0673 -0.4631
12795W        W27926  13.583  16.072  14.753 -0.3083  0.0225 -0.0603
12796W        W27927   1.649  11.881   4.132 -0.0146  0.0123  0.0769
12797W        W27928  17.303   4.787  11.127 -0.2694 -0.3044  0.1817
12798W        W27929   2.657   8.362  15.318 -0.1868 -0.0650 -0.1648
12799W        W27930   8.073  12.368   2.881  0.0548  0.1081  0.3922
12800W        W27931   3.203  10.960  12.440 -0.0094 -0.3425  0.0741
12801W        W27932  11.994   5.357  15.390 -0.1167 -0.1006  0.1735
12802W        W27933   9.062   7.035   0.705  0.0807 -0.2466 -0.0056
12803W        W27934  14.259  14.529  12.075  0.3896 -0.0165  0.0992
12804W        W27935   7.343   7.651  15.371 -0.0012 -0.0891  0.2588
12805W        W27936   9.137   5.280   2.486 -0.2655  0.2818  0.1684
12806W        W27937   2.679   4.093  12.269  0.0852  0.0708 -0.2210
12807W        W27938   0.150   5.810   4.265  0.0419  0.1903  0.1027
12808W        W27939  15.306   0.447   2.623 -0.2893  0.0546  0.0692
12809W        W27940   0.851   6.108   3.569  0.1197  0.0138 -0.2862
12810W        W27941  14.948  18.095  11.643 -0.1961  0.0251 -0.0198
12811W        W27942   0.503  18.021   1.013 -0.3107  0.0656 -0.0574
12812W        W27943  11.610   6.731   3.950  0.0985 -0.2071  0.0156
12813W        W27944   1.220  14.598  11.881 -0.1015  0.0487  0.0085
12814W        W27945   0.227   1.848  11.812  0.0358  0.4615  0.0459
12815W        W27946  16.790  15.802   1.545  0.0815  0.2022 -0.0894
12816W        W27947  12.543   6.709  12.309  0.1066  0.1819 -0.2683
12817W        W27948  14.917  16.519   4.751  0.0809  0.3358 -0.0637
12818W        W27949  11.431  17.365  14.597 -0.1290  0.1357 -0.3408
12819W        W27950   6.983  10.804   0.670  0.1019  0.0733  0.3336
12820W        W27951  17.743  10.989   2.600 -0.2124  0.0760 -0.2042
12821W        W27952   2.805  14.789  13.862 -0.0270  0.1057  0.1789
12822W        W27953   4.128   9.996  13.847 -0.4627  0.1819 -0.0459
12823W        W27954  14.748  10.531  13.989 -0.2238  0.0265  0.0026
12824W        W27955   9.258  12.286  11.815  0.2120  0.0419  0.0112
12825W        W27956   8.419   5.136   3.242  0.5650  0.1383 -0.2879
12826W        W27957   8.780   7.217  11.838  0.1523 -0.0191  0.2721
12827W        W27958   6.366   2.626  14.475  0.0157  0.1198  0.3209
12828W        W27959   1.879  11.031   4.051  0.0224  0.1573 -0.0500
12829W        W27960   1.605  14.870  11.735 -0.3237  0.1103 -0.0365
12830W        W27961   1.612  13.117   4.786  0.2447 -0.2970  0.2202
12831W        W27962  14.378  16.895  11.560 -0.3074  0.1578 -0.0930
12832W        W27963   1.684   9.998  13.015  0.1460 -0.1149  0.3147
12833W        W27964   1.999  17.498   1.980  0.1160 -0.0556 -0.0797
12834W        W27965   0.927   0.763  11.708  0.0709 -0.0791 -0.0755
12835W        W27966   7.859   9.626  12.430 -0.0493 -0.0192 -0.1835
12836W        W27967   9.929   5.549   3.198 -0.0525  0.0282  0.0278
12837W        W27968  17.766   7.094  14.519 -0.0119  0.1580  0.3276
12838W        W27969   2.109  11.166  15.890  0.1743  0.2510 -0.0729
12839W        W27970   7.285   7.252  15.719  0.3159 -0.1863  0.0338
12840W        W27971   6.103   3.412  12.656  0.1840 -0.3295  0.2605
12841W        W27972  18.022  10.063   1.355  0.1465  0.1520 -0.2632
12842W        W27973   6.164   6.346  10.538  0.1188 -0.0760 -0.0437
12843W        W27974  15.113  17.843  13.047  0.1836  0.0050 -0.0754
12844W        W27975   0.019   6.507   3.886  0.0204 -0.1895  0.1739
12845W        W27976  12.333   9.461  14.975  0.0918 -0.3305  0.0587
12846W        W27977   4.209  16.553   5.075  0.0551 -0.0871 -0.1788
12847W        W27978  13.112  17.967   1.178  0.1046 -0.0807  0.0104
12848W        W27979   3.222  10.416  16.158  0.3829  0.1228 -0.0015
12849W        W27980   2.798  16.858  15.146 -0.1912  0.1411 -0.2018
12850W        W27981   6.226   8.872  13.188 -0.2145  0.2060 -0.1672
12851W        W27982   5.861   2.863  11.008  0.2208 -0.0227  0.0864
12852W        W27983  12.764  13.306  14.038  0.0748 -0.1365  0.0462
12853W        W27984  15.390  12.897   2.799  0.5916  0.1837  0.0860
12854W        W27985  14.964  12.800  13.034 -0.0116 -0.0166  0.3253
12855W        W27986  13.312  15.594   5.039 -0.1931 -0.0559 -0.0957
12856W        W27987   9.066   2.112  10.923 -0.0056  0.0269 -0.0020
12857W        W27988   3.760   2.993   5.566 -0.0777 -0.0126  0.8281
12858W        W27989  11.352   9.706  13.340 -0.1271  0.1271 -0.1354
12859W        W27990   8.280   6.990   5.559 -0.1805 -0.2506 -0.0266
12860W        W27991   2.556   1.646   3.780  0.0811  0.0432 -0.1474
12861W        W27992   9.847   6.426   4.448 -0.0141  0.1870  0.1047
12862W        W27993   6.954  13.258   9.813  0.1717 -0.2212  0.0986
12863W        W27994  17.886  12.646  13.948 -0.2454  0.3155  0.0153
12864W        W27995   4.353  12.504  14.243  0.1285  0.1504 -0.0712
12865W        W27996   5.282   8.871   1.219 -0.1455  0.2141  0.3156
12866W        W27997  12.427   4.661  13.124  0.2914  0.0979  0.1485
12867W        W27998  11.192  13.397  12.534 -0.0075  0.0471  0.1593
12868W        W27999   9.495   4.643   1.825  0.1912  0.0056  0.0945
12869W        W28000   9.158  15.071   0.878 -0.1470 -0.0802  0.2533
12870W        W28001   8.657  17.045  13.066  0.1244 -0.0208 -0.0417
12871W        W28002   6.615  12.330   1.922 -0.2933  0.0342  0.0631
12872W        W28003   4.796   1.853   3.367  0.1834 -0.0489  0.3144
12873W        W28004  10.221  10.208  11.071  0.0972 -0.0833  0.4028
12874W        W28005  13.340   9.196   1.133 -0.2680 -0.0484  0.0564
12875W        W28006   5.525  15.912  10.847 -0.3089  0.1410 -0.2472
12876W        W28007   7.403  16.682   5.071  0.0494  0.1587 -0.2062
12877W        W28008   5.396  10.094   2.785  0.3340  0.1098  0.1199
12878W        W28009   7.081   4.692   1.977  0.0676  0.1466 -0.1294
12879W        W28010   7.526  14.028  10.810 -0.0390  0.2701  0.2235
12880W        W28011  14.320  15.560   4.023  0.0136  0.0070 -0.0572
12881W        W28012   2.855   8.694   1.359 -0.0003 -0.0517  0.1354
12882W        W28013   7.938  14.929   2.293 -0.0599  0.0137 -0.1216
12883W        W28014   0.218   2.512   1.107  0.0241 -0.2103  0.1510
12884W        W28015   2.268  15.603   4.225  0.0363 -0.0215 -0.0711
12885W        W28016  12.805   6.587  12.777  0.1966  0.0453 -0.2305
12886W        W28017   7.364   5.480  14.529 -0.1793 -0.5765 -0.0321
12887W        W28018   1.067   0.041  14.672  0.1380  0.0933 -0.2475
12888W        W28019   3.619   2.522   4.517  0.1954  0.0845 -0.3319
12889W        W28020  14.318   8.290  16.112  0.0010 -0.2658  0.1866
12890W        W28021   2.520   0.203   2.873 -0.0438 -0.0447  0.4642
12891W        W28022  17.413  10.731   3.014  0.3408  0.0110 -0.0787
12892W        W28023   0.023   2.585  11.400 -0.0482 -0.1755  0.1025
12893W        W28024   1.170   8.769   1.983 -0.2093 -0.2757 -0.0296
12894W        W28025   8.979   5.661   5.179  0.1270 -0.2542  0.0037
12895W        W28026   0.913   6.415  13.489 -0.2631  0.3423  0.1171
12896W        W28027  11.541  12.979   4.462  0.0401 -0.0730 -0.0859
12897W        W28028  14.809   9.223  14.056 -0.0621  0.0021 -0.0297
12898W        W28029   8.872   8.017   0.941  0.0414  0.0570 -0.0231
12899W        W28030   2.453  10.678   1.728  0.0250 -0.2136  0.1815
12900W        W28031   5.594  11.076   5.023 -0.0768 -0.1424  0.0418
12901W        W28032  12.148  16.251  14.522 -0.0678 -0.0354 -0.2363
12902W        W28033   2.074   3.637   0.927  0.1349 -0.0211  0.0212
12903W        W28034  12.425  17.937   3.831  0.1363 -0.0284  0.1854
12904W        W28035   8.997   3.739   4.454  0.0333 -0.1534  0.1055
12905W        W28036   2.365  17.076  16.028  0.1517  0.0484  0.0036
12906W        W28037   9.678   8.808   4.689  0.1663 -0.1630 -0.1108
12907W        W28038  14.551  11.136   1.369 -0.1143  0.0973 -0.1692
12908W        W28039   8.371  12.553  15.562 -0.0245 -0.2892  0.0350
12909W        W28040   9.777   2.441   4.444  0.0907  0.0400  0.0468
12910W        W28041   4.285   6.766  14.934 -0.1474  0.3021  0.3658
12911W        W28042   4.718   1.706  14.890 -0.0448 -0.1031  0.0927
12912W        W28043  11.540   8.272   4.629  0.0055 -0.0134 -0.1009
12913W        W28044   8.356  18.027  14.484  0.3463  0.1928  0.2500
12914W        W28045   3.491  16.640   5.224 -0.0180  0.2253  0.1992
12915W        W28046  16.471   6.695   0.675  0.0545  0.0182 -0.1672
12916W        W28047  12.330   1.470   2.255  0.0051  0.1033 -0.1097
12917W        W28048  14.109  12.133  13.847  0.1543  0.2658 -0.2589
12918W        W28049   7.587  14.108   3.164  0.0198  0.1399 -0.0667
12919W        W28050  14.534  15.728  10.831 -0.2687 -0.0125  0.0740
12920W        W28051  16.700  12.432  13.195  0.1932 -0.3221  0.0334
12921W        W28052   1.856  16.589  13.743  0.1780  0.1750  0.0380
12922W        W28053   5.708   4.402   2.496 -0.0285 -0.0755 -0.0183
12923W        W28054   1.947  13.742  15.831 -0.2102  0.1599  0.0889
12924W        W28055   8.696  11.762  14.446  0.0664 -0.0484  0.2425
12925W        W28056   4.682   0.702   4.550  0.0503  0.1647  0.0813
12926W        W28057  14.283  10.829   2.973  0.1302  0.0188 -0.1567
12927W        W28058  14.283   8.069   1.168 -0.0387 -0.1754  0.0202
12928W        W28059   2.358   0.415  15.024  0.0897 -0.2419 -0.1291
12929W        W28060   6.995   8.806   0.015  0.1280 -0.0240 -0.1877
12930W        W28061  17.484   1.672   5.227 -0.0980 -0.2596 -0.0255
12931W        W28062  14.763   3.010   4.799  0.0683 -0.0836 -0.1420
12932W        W28063   1.959  15.326  14.602  0.2165 -0.0626  0.1467
12933W        W28064  16.179   8.754  15.082  0.2654 -0.0491 -0.3891
12934W        W28065  12.916   7.067   0.957 -0.0480 -0.3769  0.1002
12935W        W28066   2.359   9.518  12.570  0.0806 -0.0415  0.1659
12936W        W28067  13.832  17.258  13.313  0.1897 -0.3200 -0.1150
12937W        W28068  12.672  13.460   3.873  0.2455 -0.0889 -0.0206
12938W        W28069   0.233   5.242  13.170 -0.0208  0.2763 -0.0121
12939W        W28070  17.757  16.412  12.006 -0.0857 -0.0425  0.3055
12940W        W28071   7.602  17.298   3.943 -0.3420 -0.0255 -0.0971
12941W        W28072   1.862   1.998  14.170 -0.0378  0.0787  0.3686
12942W        W28073   0.450   2.526  11.737 -0.0234 -0.0905 -0.0294
12943W        W28074  11.377  15.413   3.265 -0.2910  0.2554 -0.1778
12944W        W28075   9.661  17.684   2.892 -0.3969  0.0157  0.1114
12945W        W28076  10.542  17.050   0.356 -0.0908  0.1093  0.0252
12946W        W28077  12.401  16.963   3.953  0.0588 -0.1034 -0.0596
12947W        W28078   5.756  17.268   1.303 -0.1306  0.0413  0.0529
12948W        W28079   3.593  13.081   1.036 -0.1150 -0.0004  0.2290
12949W        W28080   5.333   9.478  14.123  0.0286 -0.0155  0.0804
12950W        W28081  10.225   9.387  11.889  0.3893 -0.0243  0.1608
12951W        W28082   7.318  17.933   4.318  0.1355 -0.4238 -0.0006
12952W        W28083   8.692   0.042   2.205  0.0944 -0.0195  0.0283
12953W        W28084   7.822  13.426   1.529  0.2039 -0.3121 -0.1672
12954W        W28085   5.067   9.378   1.149 -0.0126  0.0384 -0.3274
12955W        W28086  12.863   0.109   2.589 -0.2868  0.0190 -0.0086
12956W        W28087  14.685   9.143   0.013  0.1240 -0.1387 -0.0265
12957W        W28088  10.523   1.221   2.703 -0.1170  0.0347 -0.1061
12958W        W28089   5.102   0.772   2.641  0.2758  0.0739 -0.0310
12959W        W28090  16.560  17.768   3.670  0.0582 -0.1964  0.0761
12960W        W28091   0.856  14.375   4.006  0.1038  0.0180  0.0754
12961W        W28092  14.883   6.982  11.264 -0.1043 -0.0677  0.2489
12962W        W28093  17.002   1.370   1.478  0.0010  0.1982 -0.0663
12963W        W28094   7.922   2.379  11.811 -0.0527 -0.3414  0.0387
12964W        W28095   1.117  10.763  15.560 -0.0289 -0.1395  0.1462
12965W        W28096  18.011  17.710  15.176  0.0047 -0.0118 -0.0126
12966W        W28097   4.935   5.172   3.337  0.0304  0.1095 -0.0158
12967W        W28098  11.728   8.142   3.986 -0.3532  0.2321 -0.1726
12968W        W28099   2.132  13.355  11.411 -0.1319  0.0369  0.0418
12969W        W28100   9.039   3.535  15.684  0.2239 -0.1230  0.2041
12970W        W28101   4.926   1.632   3.830  0.5945  0.1312  0.0417
12971W        W28102  12.534   8.114  13.175 -0.3071  0.3545 -0.0989
12972W        W28103   7.089   5.448  11.570 -0.0829 -0.2941 -0.3005
12973W        W28104  15.127   5.659   2.475 -0.0878 -0.1847 -0.0750
12974W        W28105  10.614   1.853  11.100  0.2156  0.1759 -0.4380
12975W        W28106   9.737  16.899   5.314 -0.3042 -0.1391 -0.0009
12976W        W28107  10.825   8.079  14.078 -0.1129  0.1141  0.0608
12977W        W28108  14.678  12.374   3.161  0.6047 -0.1434 -0.2649
12978W        W28109  14.870  17.626  14.664 -0.2391 -0.0354  0.0189
12979W        W28110   6.362  16.914  11.484  0.1375  0.3588 -0.1495
12980W        W28111   1.688   6.187   1.052 -0.1327 -0.0372  0.1090
12981W        W28112   5.132  15.566  12.885  0.0612 -0.2762 -0.0383
12982W        W28113   0.850  17.136   3.425 -0.2126  0.1472  0.0238
12983W        W28114  11.900  13.220  11.485 -0.1023  0.0047  0.0574
12984W        W28115  16.646  11.719  12.878  0.1381 -0.3210 -0.3578
12985W        W28116  11.558   2.336  13.075  0.1068  0.3042  0.1724
12986W        W28117  15.978   3.290   2.109  0.0936  0.2017 -0.0466
12987W        W28118  16.530  13.229  12.491 -0.2321 -0.0924 -0.0391
12988W        W28119   2.453   1.894   0.888 -0.0417  0.0197 -0.0957
12989W        W28120  13.320  11.417   2.125  0.0379 -0.1058 -0.0380
12990W        W28121   0.481   6.774   4.928  0.2835 -0.2074 -0.0843
12991W        W28122  13.814   8.205  15.500 -0.2462  0.1297 -0.1708
12992W        W28123   0.408  16.288  12.468  0.0957  0.0237 -0.1657
12993W        W28124   7.155   4.079  11.415  0.0292 -0.1415  0.2092
12994W        W28125   1.073   7.679   4.853  0.0113  0.2301  0.2422
12995W        W28126   5.939   5.592  12.691  0.0733  0.1770  0.1228
12996W        W28127   4.042  14.845   0.248  0.1966  0.1611  0.2045
12997W        W28128  14.969   2.131  12.656 -0.2186  0.0989  0.0306
12998W        W28129  17.356  17.392   0.350  0.0708  0.2576  0.3220
12999W        W28130   0.877  12.144   5.276 -0.3634  0.1999 -0.2766
13000W        W28131  13.230  14.810   3.547  0.0623 -0.0858 -0.1699
13001W        W28132   7.198  15.357   4.697 -0.2485 -0.1097  0.0265
13002W        W28133   8.184  17.874   1.808 -0.3598  0.2957 -0.3861
13003W        W28134   6.788   6.722   2.879 -0.4297 -0.0073  0.0690
13004W        W28135  16.705  15.377   1.350 -0.0733  0.1423 -0.0403
13005W        W28136  18.052   1.255   5.685 -0.1902 -0.2695  0.1038
13006W        W28137  12.497  10.363  15.399 -0.0337  0.0006 -0.0815
13007W        W28138   3.826   1.601   5.249 -0.0491 -0.3603 -0.0271
13008W        W28139  16.278   4.611   3.174 -0.1306 -0.0254  0.0124
13009W        W28140   7.956   5.078   3.325 -0.2334  0.0199 -0.0356
13010W        W28141   0.137  12.238  13.550 -0.1928 -0.1726  0.1955
13011W        W28142   3.854  14.125  15.954 -0.0523  0.1457  0.0338
13012W        W28143   1.465   1.942  15.889 -0.3988 -0.1073 -0.2789
13013W        W28144  14.277   0.046   5.319  0.0171  0.2966 -0.2424
13014W        W28145   5.325   6.194   5.597  0.1034  0.1605  0.0446
13015W        W28146   9.779  15.337   3.729 -0.0043  0.0250  0.1990
13016W        W28147  11.330  14.504  13.332 -0.0506 -0.0581 -0.1263
13017W        W28148  10.892   6.047   0.647  0.3490 -0.3248  0.0707
13018W        W28149  10.785  12.830  15.562  0.0363  0.2569  0.0152
13019W        W28150   1.304   0.473   3.736 -0.3442 -0.3101 -0.2222
13020W        W28151   2.012   3.397   3.729 -0.1506  0.1896 -0.2274
13021W        W28152   0.573   2.479   4.181 -0.0636 -0.0694  0.1177
13022W        W28153  12.640  14.557  11.327  0.1154  0.2355 -0.0597
13023W        W28154   2.290  15.473  14.136 -0.0359 -0.0507 -0.1626
13024W        W28155   7.590   3.106  13.415 -0.0932  0.1044  0.0514
13025W        W28156  11.813  13.885   4.123 -0.2447 -0.5023  0.1275
13026W        W28157  10.086   0.967   0.549 -0.1327  0.2702 -0.2026
13027W        W28158   9.736   4.216   5.200 -0.1799 -0.4342  0.0760
13028W        W28159   9.273  12.397  11.235 -0.0362 -0.1507 -0.2692
13029W        W28160  16.075   4.770   4.196  0.0363 -0.0910 -0.0008
13030W        W28161  10.736  16.507   3.697 -0.0122 -0.0792  0.0777
13031W        W28162  11.571   6.882  14.756  0.1005  0.0211  0.3444
13032W        W28163   9.254  12.923   1.508 -0.1540  0.2256 -0.0150
13033W        W28164  10.390  17.798  13.319  0.1032  0.2392  0.0009
13034W        W28165   9.089  10.216  12.600  0.0863  0.0374 -0.2491
13035W        W28166  17.379  14.320   4.362  0.1047  0.1561 -0.0188
13036W        W28167   7.259  10.298  14.371 -0.2905  0.0580 -0.0350
13037W        W28168   4.600   9.179  10.978 -0.0738 -0.0793 -0.3003
13038W        W28169  14.629  12.035   5.156  0.3007 -0.4888 -0.1460
13039W        W28170  14.675  15.251  13.482 -0.1710 -0.0147 -0.2854
13040W        W28171   5.074  15.818   4.454 -0.1008  0.0597 -0.0481
13041W        W28172   1.680   3.359   5.075  0.1222  0.2196  0.0138
13042W        W28173  11.368  11.170   3.603  0.1378  0.1154  0.1849
13043W        W28174  13.038   7.141  14.254  0.2386 -0.0111  0.0376
13044W        W28175   1.594  16.199   1.300 -0.0558  0.1306 -0.0399
13045W        W28176   7.427   7.976   5.487 -0.0998  0.0591 -0.1965
13046W        W28177  14.939   0.973   3.791 -0.1563 -0.0385  0.1657
13047W        W28178  13.427  11.782  12.321  0.5455 -0.2004 -0.1889
13048W        W28179   7.336  12.119   2.562  0.2041 -0.0029 -0.0404
13049W        W28180  12.954  14.649  16.236 -0.0158  0.1600 -0.1854
13050W        W28181   9.719   5.007  12.129 -0.1348 -0.2083  0.0224
13051W        W28182   6.665  16.844  14.884 -0.0226 -0.2047  0.2042
13052W        W28183  16.685   3.589   5.008 -0.0748  0.2638 -0.1470
13053W        W28184  10.957  10.162   4.513  0.0110 -0.0708  0.2725
13054W        W28185  12.906  10.191   4.778  0.1518  0.3797 -0.2949
13055W        W28186  16.826   6.269  12.984 -0.2472 -0.0816  0.0881
13056W        W28187  13.625   4.239   5.566 -0.0139 -0.0827 -0.1747
13057W        W28188   8.410  11.369  11.304  0.0374 -0.2177  0.1512
13058W        W28189  17.914  16.556   1.021  0.0450 -0.1456  0.1689
13059W        W28190  10.110   6.620   2.424  0.0697 -0.3412  0.2411
13060W        W28191   2.136   4.306  15.801 -0.0447 -0.1433 -0.0289
13061W        W28192   6.510   7.481  12.721  0.1659  0.0147 -0.0728
13062W        W28193   4.920   1.860  12.047 -0.4335 -0.1681 -0.2973
13063W        W28194   0.262  12.706   2.323  0.2428  0.0390  0.2448
13064W        W28195   9.267   6.460  13.094  0.0361  0.1830  0.3276
13065W        W28196  12.029  16.569   2.203  0.3582 -0.1158 -0.1059
13066W        W28197  14.922  13.134  14.931  0.1094  0.2061 -0.0486
13067W        W28198  16.641  17.931   4.133  0.3249  0.0531  0.1635
13068W        W28199  15.864  10.396  15.130  0.0460  0.1576  0.0356
13069W        W28200   4.513  16.258  10.737 -0.1625 -0.2943  0.0291
13070W        W28201  13.213   4.758  15.963 -0.0179 -0.2211 -0.0253
13071W        W28202   8.235   8.247   5.309  0.2718  0.2388  0.0969
13072W        W28203   4.610   3.040   0.158  0.0019  0.0442  0.2073
13073W        W28204   4.958   8.884   5.007 -0.0200  0.2490  0.0866
13074W        W28205   9.841  12.250   4.856 -0.0191  0.2451 -0.0742
13075W        W28206   6.448  16.787   4.503  0.1760 -0.2226 -0.0130
13076W        W28207   4.235   6.324  11.481  0.2080  0.2950 -0.1833
13077W        W28208  17.194  15.452   1.740  0.1156 -0.0256  0.2641
13078W        W28209  10.237   0.985  14.235 -0.4593 -0.0503  0.2887
13079W        W28210  11.601   0.892   5.425  0.2739 -0.2001  0.2000
13080W        W28211   4.225   7.613   2.060 -0.1156  0.0151 -0.2003
13081W        W28212   4.405   6.862  12.638 -0.4455  0.1213 -0.3665
13082W        W28213  11.478  17.830  15.632  0.1669 -0.1536 -0.0667
13083W        W28214   7.819   1.389  11.899 -0.0258 -0.0342  0.2541
13084W        W28215  11.069   7.629  15.407 -0.0250  0.0685 -0.2251
13085W        W28216  13.708  11.317  12.414 -0.0706 -0.3707  0.1149
13086W        W28217   4.318   6.343   4.102 -0.0314  0.0156  0.0103
13087W        W28218   1.657   3.244  12.860  0.3090 -0.0830  0.0782
13088W        W28219  13.755  10.815  12.482 -0.2661  0.2219  0.0687
13089W        W28220  12.639  11.999  13.399 -0.0818  0.2642 -0.1889
13090W        W28221   2.806  15.206   2.164  0.0790  0.0254 -0.0633
13091W        W28222  17.674  13.261   0.658 -0.0472  0.1108 -0.2886
13092W        W28223  10.724   2.867  10.933 -0.0187  0.1508  0.0889
13093W        W28224  16.245   5.683   4.492 -0.0536  0.2854 -0.1259
13094W        W28225  16.066   0.740  11.381  0.0717  0.1205  0.0318
13095W        W28226   6.112  14.544  11.648 -0.1614 -0.0624 -0.1091
13096W        W28227  13.118  10.993   4.349 -0.0800 -0.0470 -0.3211
13097W        W28228  10.198   2.207   3.681  0.2449  0.3177  0.1783
13098W        W28229  14.611   4.403  13.479  0.2567  0.1389  0.3990
13099W        W28230  13.237  15.535  10.994  0.0049 -0.0236 -0.1279
13100W        W28231  15.701   8.541   2.540 -0.0016 -0.1627 -0.0208
13101W        W28232  11.882   5.007   1.468 -0.3918 -0.1405  0.1414
13102W        W28233  14.393   9.389   3.118  0.1892 -0.0305 -0.3272
13103W        W28234  16.533   9.589   1.058  0.0015  0.0148 -0.0506
13104W        W28235  14.598   9.502  13.675 -0.2040  0.1685 -0.1374
13105W        W28236  16.174   3.682   0.956  0.3441 -0.1186 -0.1529
13106W        W28237   6.003   3.676  11.601 -0.1715  0.2300  0.3707
13107W        W28238  16.118  10.725   3.986  0.2264  0.1093 -0.1666
13108W        W28239   1.057   2.301   3.971  0.0985  0.0027  0.0389
13109W        W28240  17.235  10.064   1.894 -0.0172  0.2548  0.0296
13110W        W28241   5.352   4.625   4.240 -0.0148  0.3928  0.4664
13111W        W28242   0.139  10.034  12.855 -0.1735  0.0582  0.1025
13112W        W28243   9.123   1.847  11.343 -0.4001 -0.3063  0.4056
13113W        W28244  17.920   8.251   0.759  0.1951 -0.0616 -0.0250
13114W        W28245   9.795   9.334   4.776  0.2023  0.0185  0.1196
13115W        W28246  14.796  11.310  11.320  0.2061  0.0048 -0.0749
13116W        W28247  10.836   4.935  12.169 -0.1418 -0.2184 -0.1277
13117W        W28248  16.046  11.966   6.452 -0.0083  0.2835  0.0962
13118W        W28249   3.819  11.538   4.474 -0.1841 -0.1951  0.0687
13119W        W28250   1.039   8.079  14.174 -0.2566 -0.0395  0.0701
13120W        W28251   0.004  12.545  15.341 -0.0906  0.1294  0.3358
13121W        W28252  14.276   9.489   0.147  0.0778 -0.0629 -0.0560
13122W        W28253  12.184  13.733  14.977 -0.0612  0.0134 -0.0351
13123W        W28254  12.033  17.536  16.099 -0.1658  0.0374  0.1611
13124W        W28255   6.024   6.154   0.110  0.2128  0.1140  0.4527
13125W        W28256   4.513  11.746   3.101 -0.2074  0.0571 -0.1514
13126W        W28257   8.313   2.614   0.664 -0.0775 -0.2167  0.1714
13127W        W28258   4.846  17.736  16.035 -0.1757  0.3235 -0.0054
13128W        W28259  13.567   4.378  13.342 -0.1132  0.0679  0.0004
13129W        W28260  15.697   6.986  13.842 -0.0167 -0.1041 -0.0798
13130W        W28261   2.003  12.277  11.697 -0.0086  0.0961  0.1718
13131W        W28262   9.085  10.990  13.213 -0.1104 -0.0471  0.0436
13132W        W28263   8.260   5.475   4.491  0.0038 -0.2115  0.0225
13133W        W28264   3.734  16.121  11.836 -0.1056 -0.2294  0.2727
13134W        W28265   6.565  14.494   1.034 -0.0864  0.2447 -0.2356
13135W        W28266  12.531  17.253   2.108 -0.0393 -0.3185 -0.0204
13136W        W28267   8.206  11.009   2.379 -0.1043  0.2222  0.1310
13137W        W28268   6.736   1.584   3.261  0.2210 -0.0057 -0.1264
13138W        W28269   0.347   4.267   4.131  0.2209  0.0929  0.1370
13139W        W28270  14.893   9.635  12.931  0.0759 -0.0544 -0.3442
13140W        W28271   0.137   9.245   4.923  0.2735 -0.0867  0.0146
13141W        W28272   1.102  10.757  13.012  0.1229  0.1680 -0.0909
13142W        W28273  13.148   3.809   5.895  0.0832  0.0655 -0.1184
13143W        W28274  16.167  16.996   1.684  0.1726  0.1168  0.0084
13144W        W28275   0.756   1.310   1.560  0.0903  0.0704  0.1879
13145W        W28276  17.185  14.935   0.622  0.3782  0.1776 -0.3086
13146W        W28277  14.818   6.973  10.464 -0.4606  0.1442 -0.0602
13147W        W28278  10.188   2.626   2.467  0.1925  0.2616 -0.1481
13148W        W28279  15.734  14.975   2.767 -0.1944 -0.3957  0.0304
13149W        W28280  16.329   7.286  15.395 -0.1557  0.0452  0.0391
13150W        W28281  16.118   0.003   4.547 -0.3307  0.0788 -0.1882
13151W        W28282   6.878  15.439   0.020 -0.1892 -0.0061 -0.0371
13152W        W28283  12.951   8.934  10.597  0.1680  0.0932 -0.1241
13153W        W28284   0.683  15.898  16.111  0.3331  0.2404  0.1845
13154W        W28285   4.413  17.439   5.472 -0.2639  0.0110  0.0105
13155W        W28286  16.712  12.617   0.141  0.1667 -0.2475 -0.0799
13156W        W28287   3.756  16.105  13.340 -0.4340  0.0842 -0.3326
13157W        W28288  15.015  14.488   0.067  0.0992  0.4680 -0.0617
13158W        W28289  14.730   2.151   4.626 -0.0770  0.1058 -0.2291
13159W        W28290   1.766  16.303  10.120 -0.0239 -0.1093 -0.1592
13160W        W28291   3.238  16.445  13.747 -0.1337  0.0619  0.1845
13161W        W28292  12.848   1.841   5.138 -0.0355  0.0200 -0.0177
13162W        W28293  15.410   5.661   2.910  0.3604  0.0530 -0.1759
13163W        W28294  12.273   2.076   3.539  0.1057  0.0697  0.1137
13164W        W28295   2.616  10.476  14.315 -0.1288  0.0639  0.0280
13165W        W28296  10.673   3.930  11.214 -0.0743 -0.1048  0.2020
13166W        W28297   5.040  15.092   1.048 -0.1029  0.1598 -0.2111
13167W        W28298  11.303  13.614   3.069  0.3258  0.2276  0.0255
13168W        W28299  17.612   2.617   3.275 -0.1254  0.0095 -0.1590
13169W        W28300  16.896   9.798   4.087 -0.0398 -0.0016  0.0679
13170W        W28301   6.253   9.961  14.979 -0.0151  0.2109 -0.0696
13171W        W28302   7.952   1.853  11.889  0.1751 -0.1062  0.0380
13172W        W28303  12.570  16.111  12.371  0.2653  0.2160  0.1994
13173W        W28304  11.560  16.118  11.227 -0.0649 -0.0188 -0.2707
13174W        W28305  13.722  10.692   5.155  0.0614  0.0934  0.1041
13175W        W28306   0.014  15.210   1.045  0.0500 -0.3025 -0.2684
13176W        W28307  15.862   6.750  11.030  0.2068  0.1513  0.1198
13177W        W28308  10.765  10.047   0.918  0.1235 -0.1130  0.1048
13178W        W28309  14.365  17.661   0.648 -0.0289  0.2015 -0.3369
13179W        W28310  14.911   6.168  13.360 -0.2233  0.3445 -0.1315
13180W        W28311   7.839  16.129   1.877 -0.0192 -0.1024  0.0810
13181W        W28312   4.370  14.388   2.715 -0.0220  0.1460 -0.2998
13182W        W28313  10.567  17.100   3.472  0.1261 -0.0185 -0.2265
13183W        W28314   9.822  14.075  12.886  0.0331 -0.0551  0.1247
13184W        W28315   4.250  10.541  12.581  0.3621 -0.0284  0.3173
13185W        W28316   9.968  17.196  15.243  0.1958 -0.2268  0.0350
13186W        W28317   4.504   4.833  11.589 -0.1147 -0.2296  0.2768
13187W        W28318   5.373   5.740   2.595 -0.1526  0.1935  0.2291
13188W        W28319  13.854  11.756  13.595  0.0974  0.0236 -0.3057
13189W        W28320   2.648  11.717  13.991  0.4515  0.0316 -0.2589
13190W        W28321  13.592  12.399  11.443 -0.1965 -0.4825 -0.1631
13191W        W28322   4.478  13.985  11.734  0.2132  0.1522  0.0114
13192W        W28323   5.422   4.305   5.042  0.2326 -0.1101  0.5119
13193W        W28324   7.856  16.019  13.387 -0.0340 -0.0172 -0.1060
13194W        W28325   6.727  15.367  12.455 -0.2576 -0.0659  0.1369
13195W        W28326   2.251   4.435   3.835  0.0344  0.0530  0.0081
13196W        W28327   9.682  12.687  16.210  0.2137  0.1555 -0.0863
13197W        W28328   8.899  10.127  13.716  0.0811 -0.3449 -0.3091
13198W        W28329   4.160   8.107  11.356 -0.2466 -0.1262  0.0770
13199W        W28330  15.425  12.193   2.774 -0.0678  0.1853 -0.0694
13200W        W28331  13.124  13.421   5.438 -0.0240 -0.2536  0.2082
13201W        W28332   8.884   7.268  14.291  0.0864  0.0231 -0.1965
13202W        W28333   4.750  10.654   2.814  0.2530 -0.2862 -0.1136
13203W        W28334   7.439   6.853  15.405 -0.1363 -0.1110  0.1269
13204W        W28335   1.737  17.413   3.344  0.0212  0.1081 -0.0909
13205W        W28336  13.251  10.706   1.077 -0.0759 -0.0321  0.1227
13206W        W28337  12.289   6.071  15.816  0.0639  0.3357 -0.2285
13207W        W28338   8.901  10.244   1.463 -0.0743  0.0425  0.0479
13208W        W28339   0.925   5.437  13.988  0.2506 -0.1561  0.0213
13209W        W28340  16.349   5.798  12.617  0.0654  0.3142 -0.1413
13210W        W28341  15.671  12.367   0.944  0.0027 -0.0779  0.0385
13211W        W28342  10.554   3.668   4.196 -0.0437  0.2882 -0.3145
13212W        W28343  12.486   1.506   0.867 -0.2345  0.2936 -0.1227
13213W        W28344  14.223   9.192   2.417  0.1895  0.2096  0.1859
13214W        W28345  12.849  15.447   5.471 -0.0256 -0.1907  0.1282
13215W        W28346   7.005   2.126   4.557  0.0286 -0.0682  0.2627
13216W        W28347  10.049  15.180   5.147 -0.1818  0.0530 -0.0016
13217W        W28348  16.862   2.711   4.994 -0.1295  0.1954  0.0593
13218W        W28349   2.508  15.678  15.337  0.0961 -0.1102 -0.0522
13219W        W28350   4.753   8.091   0.680  0.0063 -0.2698 -0.2470
13220W        W28351  13.707   4.808  14.472 -0.0519 -0.0774  0.0711
13221W        W28352   9.756   7.706  10.631 -0.0069 -0.1815 -0.0654
13222W        W28353   0.359   9.452   5.342  0.1568 -0.0847  0.0144
13223W        W28354  17.903   0.673  11.837 -0.1584  0.0857 -0.1504
13224W        W28355   8.072  11.489   6.110  0.0981 -0.0833  0.1950
13225W        W28356   1.068   4.258   3.415  0.0164 -0.1538  0.3612
13226W        W28357  13.841   1.819   4.946  0.3110 -0.1335 -0.1892
13227W        W28358  11.135   5.722  11.318  0.2455  0.0234 -0.0742
13228W        W28359  12.530  13.468  15.275 -0.0870 -0.1987 -0.1022
13229W        W28360   8.265  16.242  14.370 -0.1368  0.1732 -0.1690
13230W        W28361   7.612  14.357   1.483 -0.0075  0.2114  0.3064
13231W        W28362   9.351  10.570  13.006 -0.2328  0.2508 -0.0632
13232W        W28363  16.155   1.226  13.555  0.2159 -0.1289 -0.3067
13233W        W28364  11.008  11.073  14.626 -0.0538  0.1426  0.4168
13234W        W28365   5.622  15.732  12.992 -0.1734  0.0181  0.1187
13235W        W28366  16.137   9.835   2.089  0.0200 -0.0452 -0.1105
13236W        W28367  10.854  11.761   3.230 -0.1522  0.3681 -0.0205
13237W        W28368  15.446   1.308  15.492 -0.1611  0.0760 -0.0102
13238W        W28369   8.342   7.923   3.199  0.3206  0.1905 -0.0600
13239W        W28370   6.419   9.705   3.850 -0.0022 -0.0322  0.0757
13240W        W28371  11.233  16.202  16.110 -0.3164  0.0672 -0.1308
13241W        W28372  12.047  11.270  11.477 -0.1923 -0.0820 -0.1398
13242W        W28373   1.424   2.101  11.615  0.0026 -0.0263  0.0086
13243W        W28374   5.307  11.974   0.460  0.2075 -0.0086  0.0549
13244W        W28375  13.518  10.998  15.253 -0.0206  0.2546  0.0870
13245W        W28376   0.315   8.320  13.209  0.1687 -0.0275  0.0697
13246W        W28377   6.054  16.476   2.137  0.0661  0.1527 -0.1992
13247W        W28378   7.648  16.772   5.872  0.0472  0.3063 -0.0653
13248W        W28379  10.073  10.643   3.487 -0.1330 -0.1841 -0.1705
13249W        W28380  14.143  14.958  15.255  0.0836  0.0463 -0.1021
13250W        W28381   1.078  12.302  13.500 -0.3705  0.1138 -0.1814
13251W        W28382   0.792   8.809  16.117 -0.1115 -0.2443 -0.0982
13252W        W28383   8.732   3.448   1.287  0.0530  0.2087  0.1230
13253W        W28384   1.303   2.329  15.571 -0.4373  0.4720  0.3388
13254W        W28385   9.101  16.278  12.121 -0.2851 -0.0279  0.2420
13255W        W28386   0.001   5.990  13.715  0.0757 -0.0800 -0.3627
13256W        W28387   4.231  11.624   5.745  0.1756 -0.3917 -0.0113
13257W        W28388   9.015   3.456  11.206  0.0517  0.0654 -0.1188
13258W        W28389   5.339   3.972   0.544  0.0288 -0.1055  0.1408
13259W        W28390  11.707  17.955  16.114 -0.0612  0.3689  0.2534
13260W        W28391  12.821   8.688  11.816 -0.0924 -0.0480  0.0514
13261W        W28392  11.286  10.497   4.720  0.0226  0.0285 -0.2430
13262W        W28393  15.412   9.115  12.356  0.0566 -0.1749  0.0012
13263W        W28394   6.901   7.237   2.091  0.0084 -0.1559 -0.3117
13264W        W28395  14.017  13.881   2.023 -0.0068 -0.0283  0.1202
13265W        W28396   4.719   3.704   1.799  0.0826 -0.3526  0.1891
13266W        W28397  10.207  12.124   3.792 -0.0526 -0.1761 -0.1275
13267W        W28398   2.880  17.184  10.794  0.0612 -0.3294  0.1889
13268W        W28399   4.389   6.085   0.674 -0.0153 -0.0771  0.3899
13269W        W28400  14.824  10.838   0.370  0.2665 -0.1128 -0.2694
13270W        W28401   5.212   3.098  15.828 -0.0218  0.0145 -0.0257
13271W        W28402  13.787   3.691   3.986  0.0305  0.2091 -0.2708
13272W        W28403  11.875   4.292   0.865  0.2115 -0.2896  0.0722
13273W        W28404   5.549   0.443  13.075 -0.1374  0.0525 -0.2528
13274W        W28405   8.066   7.108  12.772 -0.0679 -0.0878  0.1467
13275W        W28406   2.526   0.580   0.704  0.0051 -0.1474  0.1918
13276W        W28407   1.120  11.983   4.835  0.2567 -0.0611 -0.3050
13277W        W28408  13.994   2.180  14.910  0.1370  0.1653 -0.0337
13278W        W28409   7.841  16.297   3.379 -0.0984 -0.0698 -0.0172
13279W        W28410   7.483   2.661   5.483  0.2339 -0.0226 -0.0690
13280W        W28411   4.731  13.229  13.172 -0.4347  0.0188 -0.2302
13281W        W28412   0.872   4.173   4.119 -0.2280  0.1171 -0.0746
13282W        W28413  13.685  12.458   4.649 -0.1195  0.2157  0.0159
13283W        W28414   4.972   2.136  14.888  0.1089 -0.2540 -0.2657
13284W        W28415  10.811   2.061  11.471  0.1555 -0.0370  0.1561
13285W        W28416   3.981  17.363  14.026  0.0733 -0.0932 -0.1170
13286W        W28417  13.492  14.613  12.980  0.0603 -0.2816  0.1277
13287W        W28418   6.008  17.657  16.200 -0.1790  0.1826 -0.1205
13288W        W28419  16.950  15.148   2.825 -0.0513 -0.3326  0.2240
13289W        W28420   5.405   9.537   2.733  0.0611  0.2097  0.1974
13290W        W28421   4.861  12.129  10.568 -0.1044  0.1890  0.2943
13291W        W28422   0.978   7.434   4.044 -0.2508 -0.0603  0.0495
13292W        W28423  13.316  10.874  11.678  0.0845  0.2523  0.0009
13293W        W28424  13.287   9.411   0.611  0.1962  0.3269  0.2944
13294W        W28425  15.996  15.109  11.665 -0.0854  0.2987  0.1611
13295W        W28426   1.495  16.451  15.076  0.2695  0.3423 -0.2265
13296W        W28427   3.007  13.172  12.016 -0.1205  0.0015  0.0824
13297W        W28428   8.400   8.057  14.496 -0.0182 -0.1198 -0.3071
13298W        W28429   2.902   9.099   5.744 -0.0175 -0.1085 -0.0001
13299W        W28430  15.284   2.736  14.235  0.4059  0.0438  0.0482
13300W        W28431   6.204   4.234   2.458  0.3135 -0.1404  0.0266
13301W        W28432   3.946   9.294  15.979 -0.2889  0.2372  0.0438
13302W        W28433  10.946   7.756   2.768 -0.0171 -0.1077 -0.0314
13303W        W28434   2.151  12.101   3.027 -0.1434 -0.0139 -0.2054
13304W        W28435   9.534  10.888   3.775 -0.2616 -0.0293  0.1882
13305W        W28436   0.235  11.242   4.385 -0.2769  0.0514  0.1336
13306W        W28437   0.604  17.477   4.190  0.0204 -0.1917 -0.2040
13307W        W28438   1.414  16.265   5.431  0.1879  0.2404  0.0646
13308W        W28439   5.480  14.878   2.869 -0.2710 -0.0070  0.3744
13309W        W28440  16.313   9.926   2.732 -0.0121 -0.1385  0.0866
13310W        W28441   3.470   8.662   3.380  0.1200  0.0408  0.1479
13311W        W28442   3.589  14.120   0.235 -0.0422  0.1622  0.2848
13312W        W28443   2.392  17.315  12.101  0.0143  0.2473 -0.0282
13313W        W28444  13.962  12.381  16.177  0.1056 -0.0430  0.0587
13314W        W28445   9.979   3.671  13.238 -0.2125 -0.0156  0.1402
13315W        W28446   7.970  15.439   2.360  0.3654 -0.0127  0.1774
13316W        W28447  14.850  16.738  15.171 -0.1943 -0.0378 -0.0598
13317W        W28448   8.254   1.382   2.179 -0.0502 -0.0145  0.0602
13318W        W28449   1.439   4.699  15.307  0.1284 -0.0007 -0.0437
13319W        W28450   7.311   2.725   4.526  0.3212  0.0173 -0.1091
13320W        W28451  17.053   3.886  13.597  0.0092 -0.0092 -0.0554
13321W        W28452   5.648  16.712  14.358  0.2382  0.0446  0.0964
13322W        W28453   5.176  17.365   3.557 -0.3162  0.0798 -0.1551
13323W        W28454  11.197   6.899  13.236 -0.0269  0.0052 -0.1496
13324W        W28455  16.988   3.757  12.348 -0.0174  0.1414 -0.0935
13325W        W28456  17.000   8.920  14.233  0.3917  0.2246  0.2234
13326W        W28457   2.659   9.866   0.708  0.0161 -0.2582  0.3258
13327W        W28458   5.605   3.039   1.136 -0.1463  0.2310 -0.2348
13328W        W28459   6.896  11.468   1.928 -0.0469  0.0896 -0.1059
13329W        W28460  17.632  17.682   2.214  0.2009 -0.1618  0.0677
13330W        W28461   0.561   9.588   1.086 -0.1910 -0.1148  0.0744
13331W        W28462  16.033   2.977  15.745 -0.0411  0.3520 -0.1338
13332W        W28463   4.933   9.887  14.101 -0.0398 -0.1639 -0.0371
13333W        W28464   4.193  13.796  15.243  0.0587 -0.2503 -0.1368
13334W        W28465  17.196   8.900   1.237  0.1233  0.1179  0.0094
13335W        W28466  17.005   5.378  16.222  0.1736  0.1704  0.0614
13336W        W28467  11.874   1.229   3.570 -0.0273  0.1582 -0.3120
13337W        W28468   8.761   0.320  14.714 -0.0200 -0.3140  0.1469
13338W        W28469  11.204   6.383   3.097  0.1167  0.0022  0.0800
13339W        W28470  11.628   4.664   5.338  0.0697  0.1914 -0.0975
13340W        W28471   4.092   2.291  15.938 -0.0892  0.0920  0.0185
13341W        W28472  14.725  15.622  15.533  0.1924 -0.0253  0.2566
13342W        W28473   8.258   7.318   1.223  0.1619  0.1305 -0.0916
13343W        W28474   3.454  17.716   1.914  0.3036 -0.1959  0.2197
13344W        W28475  13.148   0.582   4.158  0.2340 -0.0424 -0.5267
13345W        W28476   5.645   9.961  13.573 -0.1457 -0.2324  0.1973
13346W        W28477   8.431  14.407   0.753 -0.3872  0.0818 -0.1366
13347W        W28478   7.014  14.859  15.125 -0.0247 -0.1930  0.2486
13348W        W28479   8.772   2.958   3.407 -0.0900  0.1495  0.0985
13349W        W28480  13.998   4.983  13.503  0.0234  0.0186  0.0416
13350W        W28481   8.331   4.636   3.229 -0.2180  0.3556  0.1911
13351W        W28482  13.973  10.962   3.407  0.0632  0.1237 -0.0769
13352W        W28483  16.728   8.040  11.709  0.2265  0.0119  0.0236
13353W        W28484   0.740   1.423  15.042 -0.3997  0.3467 -0.1256
13354W        W28485   4.113   2.901  12.510 -0.2939 -0.1893  0.2258
13355W        W28486  15.530   9.526  15.233 -0.0052  0.0427 -0.0449
13356W        W28487  16.699  14.130   2.715  0.2003  0.1086  0.0687
13357W        W28488  15.955   5.391   1.441  0.0460 -0.0020 -0.0374
13358W        W28489   9.876  17.794  12.013 -0.1878 -0.0623 -0.0243
13359W        W28490  15.883   5.273   3.622 -0.0262 -0.4046  0.0958
13360W        W28491   0.289  13.346  14.927  0.3013 -0.0174 -0.1214
13361W        W28492  12.771   5.816   5.713 -0.0908 -0.5511  0.2002
13362W        W28493   7.576   8.658   0.887  0.0550  0.2612 -0.1716
13363W        W28494   6.715   5.398  13.777  0.0230  0.0383  0.1166
13364W        W28495   5.539   7.614   4.029 -0.0379  0.0054  0.1853
13365W        W28496   1.108  15.712   4.418  0.1057  0.0294  0.1411
13366W        W28497  13.172  17.762  14.261  0.3179 -0.1406 -0.1519
13367W        W28498   2.469  17.757   1.939 -0.1252 -0.0369 -0.0963
13368W        W28499   4.322  17.982  13.998  0.3150 -0.1536  0.1231
13369W        W28500  11.654   7.284  11.952  0.0433 -0.1242  0.0206
13370W        W28501  14.007  11.697  12.254 -0.2433 -0.1261  0.0612
13371W        W28502   8.198   4.636   2.492  0.0750 -0.3386  0.1499
13372W        W28503   3.643  14.513   5.536  0.1640 -0.2538  0.3786
13373W        W28504   0.828   0.496   4.459 -0.0291 -0.0945  0.1267
13374W        W28505   5.948   2.127   2.267  0.0397 -0.0748 -0.1095
13375W        W28506  17.836   8.039   6.119 -0.0686 -0.1537  0.0397
13376W        W28507  10.900  15.806  14.382  0.0540 -0.4493  0.0428
13377W        W28508   5.687   3.086   2.369  0.1663 -0.2878  0.2362
13378W        W28509  18.021  11.026  11.829 -0.0484  0.0482  0.3760
13379W        W28510  14.896   9.575  11.304  0.1774 -0.1688  0.0857
13380W        W28511  15.082  14.515  12.319  0.1734  0.0265 -0.0574
13381W        W28512   8.156   3.744   4.376 -0.1236 -0.2335  0.0113
13382W        W28513   8.507  13.276  11.225 -0.1239  0.1071 -0.2243
13383W        W28514   9.622  12.134  14.952  0.3587 -0.0868 -0.1668
13384W        W28515   6.370   0.968   4.460  0.2022  0.0254  0.0157
13385W        W28516   2.495  17.597  12.478  0.1040  0.1312 -0.2672
13386W        W28517   5.920  15.795   4.180 -0.3222 -0.1266  0.0898
13387W        W28518   6.779  14.441  14.808 -0.3805  0.0549  0.1698
13388W        W28519   8.184   2.340  12.938  0.2050  0.3587  0.0628
13389W        W28520   2.077   8.123   0.207 -0.0913 -0.0487  0.0385
13390W        W28521  13.213  12.887   2.418  0.0612  0.0206  0.0273
13391W        W28522  17.034   2.237   0.241  0.2684  0.0684 -0.1204
13392W        W28523   8.159  14.945  10.560 -0.0836  0.1126 -0.3881
13393W        W28524   2.743  15.562  14.868 -0.2572 -0.0083  0.0712
13394W        W28525  11.068   2.841   1.079  0.1546 -0.1811  0.1663
13395W        W28526  15.373   9.591   4.935  0.1570 -0.2542 -0.2027
13396W        W28527   0.568  14.554   1.546 -0.2649  0.0019 -0.2234
13397W        W28528  15.964   5.171  14.350 -0.0072  0.0568  0.0695
13398W        W28529   4.270  16.198  13.109 -0.0741 -0.0096  0.0969
13399W        W28530   9.879   0.377   3.965 -0.2027  0.0209  0.0449
13400W        W28531   3.079  14.828  11.963 -0.0311  0.1140  0.0987
13401W        W28532  14.728   8.766  11.601  0.3715  0.2262  0.1780
13402W        W28533  10.155   2.192   4.756 -0.1265  0.0459  0.2492
13403W        W28534  10.579   9.562  15.299  0.0025 -0.5015 -0.0164
13404W        W28535  15.620  10.196  12.879 -0.0507  0.0387  0.1559
13405W        W28536   6.477  17.909  12.130 -0.0078  0.1870 -0.2227
13406W        W28537   8.647  16.177   3.718 -0.1609  0.2289 -0.0798
13407W        W28538  12.470   1.212   4.632  0.1895  0.4823  0.1400
13408W        W28539  16.383   1.844  11.595 -0.0659  0.2151 -0.3537
13409W        W28540   8.259   6.968   4.209  0.0262  0.1826  0.3973
13410W        W28541  17.840   6.949  15.530  0.1637  0.2890  0.2258
13411W        W28542   2.993   4.107   3.534  0.0511 -0.0322 -0.0978
13412W        W28543   5.297   0.137   3.808  0.0724  0.1436 -0.0035
13413W        W28544  15.683   4.060   0.613 -0.0068  0.0691  0.0528
13414W        W28545  17.635   9.654   3.121 -0.0595  0.0607  0.1444
13415W        W28546   0.759   9.455   4.975  0.0509  0.0468 -0.0742
13416W        W28547  13.808   1.317   4.172  0.0851 -0.1083  0.0050
13417W        W28548   0.242   8.964   3.441  0.0573 -0.0437  0.0526
13418W        W28549  14.717  14.538  11.329  0.0058 -0.3270  0.0604
13419W        W28550  13.803   1.887  11.141 -0.2694  0.1339  0.0472
13420W        W28551  12.018  12.119   4.344 -0.4078  0.1997 -0.0543
13421W        W28552   9.350   0.370  13.962  0.0968 -0.0251  0.0745
13422W        W28553   0.066   6.951  11.873 -0.2110  0.2655  0.1035
13423W        W28554  14.700   6.897   3.144  0.2259  0.0959 -0.3479
13424W        W28555   0.525   2.295   2.542  0.0789 -0.0995  0.1947
13425W        W28556   3.307   2.341   3.422  0.0373 -0.2245 -0.1715
13426W        W28557  14.086  17.102  13.761 -0.1246  0.4072 -0.0573
13427W        W28558  17.589   3.601  15.181 -0.2796 -0.1843  0.0319
13428W        W28559  11.764   3.290   1.636  0.0181  0.1330 -0.0090
13429W        W28560   6.377   8.441   3.394  0.1786  0.0518 -0.1347
13430W        W28561  14.191   4.592   1.286  0.3786  0.3259 -0.0481
13431W        W28562  13.557   2.846   2.933 -0.1288  0.0684  0.1574
13432W        W28563   2.086  11.131   2.680  0.0385  0.0624 -0.2776
13433W        W28564   0.309  10.510  11.480  0.0881 -0.0843 -0.1568
13434W        W28565   6.109   7.858  14.056 -0.0867  0.1971  0.0218
13435W        W28566  15.075   4.559  15.262  0.3165 -0.0146  0.0583
13436W        W28567  12.778   8.101   1.127  0.1074 -0.1740  0.1311
13437W        W28568   2.803  14.093   0.726  0.0156 -0.2805 -0.0958
13438W        W28569  17.461   2.476  15.424 -0.0261 -0.4747  0.3343
13439W        W28570  11.050   8.528   0.243  0.1574 -0.0065  0.1389
13440W        W28571   4.915   6.430  13.048 -0.0943 -0.0352  0.1672
13441W        W28572  10.198   0.490  15.345 -0.1572  0.1326  0.3518
13442W        W28573   2.056  17.834   0.967 -0.1580  0.3999  0.2725
13443W        W28574   9.511  12.288   5.254  0.0353 -0.0860 -0.2422
13444W        W28575   0.619  10.818  12.765  0.2722  0.0223  0.2004
13445W        W28576  17.361  14.963  15.628  0.2470 -0.1355 -0.0796
13446W        W28577   5.001  16.398   0.134  0.1944  0.0328  0.1850
13447W        W28578   6.815  12.886   3.716  0.0051 -0.2057 -0.1891
13448W        W28579  13.325   5.827   1.100 -0.1447  0.0099  0.3700
13449W        W28580  10.985  12.904  10.718  0.1306 -0.0176 -0.1291
13450W        W28581  14.193  12.226   3.041 -0.0518 -0.1961 -0.0458
13451W        W28582   6.242   2.339   0.815  0.0394 -0.0035  0.2721
13452W        W28583   9.130   1.238  15.262  0.1375  0.0100  0.4094
13453W        W28584   1.719   7.559  10.928  0.1725  0.1460 -0.2971
13454W        W28585   5.011  17.314  12.982 -0.0081  0.0759  0.0910
13455W        W28586  10.957   5.964   1.287 -0.0244 -0.1167 -0.3767
13456W        W28587  11.399   4.414  10.962  0.2037 -0.1222  0.0753
13457W        W28588  13.230  16.507   4.024 -0.0092  0.0175 -0.0552
13458W        W28589   2.007   9.342   1.848  0.2003 -0.1756  0.0716
13459W        W28590  15.168   2.155   3.278 -0.3322 -0.1720  0.0383
13460W        W28591   3.998   6.507   4.870  0.3250 -0.0002  0.0379
13461W        W28592   8.074  11.684   3.271  0.1119  0.3363 -0.2920
13462W        W28593  17.166  16.196   1.569 -0.2576  0.0093  0.0247
13463W        W28594  16.826  10.312  12.999  0.3042  0.2187 -0.0211
13464W        W28595   1.601  17.869  13.633 -0.0697 -0.0874 -0.3245
13465W        W28596  16.950  14.405   1.322 -0.0949 -0.1420 -0.0179
13466W        W28597  16.127   5.135  11.166  0.3294 -0.0482  0.1883
13467W        W28598   9.447  13.171  13.198 -0.0671  0.1093  0.1503
13468W        W28599  17.342   4.646  11.681  0.1035 -0.0123 -0.0674
13469W        W28600  12.892  12.819   4.865 -0.1113 -0.0886 -0.1681
13470W        W28601   3.083   4.743   1.142 -0.1838 -0.0980 -0.1298
13471W        W28602   7.800  11.381  12.002  0.3426 -0.2055 -0.0104
13472W        W28603  12.570   9.134  11.820 -0.0633 -0.0043  0.1308
13473W        W28604   6.533   4.255  10.314  0.0352  0.1403 -0.0246
13474W        W28605   0.979  16.618  11.882 -0.0945 -0.2122  0.0862
13475W        W28606   3.301   4.297  12.530 -0.1162  0.1225  0.4796
13476W        W28607   1.647   1.142  13.783 -0.3103  0.0416 -0.1195
13477W        W28608  12.008   3.219   4.729  0.0257  0.2263 -0.2813
13478W        W28609  12.800   5.122   3.295  0.2267  0.0281 -0.0249
13479W        W28610  10.895  14.598   1.003 -0.1426 -0.3056  0.1731
13480W        W28611   7.025   3.394   5.761  0.1012 -0.0589 -0.1141
13481W        W28612  12.547   2.536  12.522 -0.1715  0.2408 -0.0557
13482W        W28613   6.154   0.267   3.216  0.0533 -0.2864  0.1173
13483W        W28614   3.304  11.209   5.195  0.0042  0.0621 -0.1485
13484W        W28615  15.406  17.976  15.600 -0.1837  0.0595 -0.1142
13485W        W28616   9.618   7.438  14.580  0.0681  0.3891  0.0820
13486W        W28617  11.033   9.339   4.436 -0.2606  0.0544  0.0662
13487W        W28618   4.807  13.658  15.943  0.0215 -0.1239 -0.2259
13488W        W28619  18.069  11.338  10.270  0.1664  0.0065  0.0147
13489W        W28620  13.568  12.393  14.080  0.0693  0.0220 -0.0401
13490W        W28621  15.620   5.177  13.978 -0.0811 -0.0913 -0.2428
13491W        W28622  13.648   7.102  11.587 -0.0340 -0.0293  0.1603
13492W        W28623  10.371  15.478  14.282 -0.0740  0.0568  0.3661
13493W        W28624  12.422  15.241  13.179  0.0261 -0.0195 -0.3424
13494W        W28625  13.743   4.717   5.410  0.3274 -0.0058 -0.0300
13495W        W28626  10.500   0.516   5.841  0.1018  0.2491  0.0672
13496W        W28627   7.423   6.709  15.861  0.1404 -0.2449  0.1123
13497W        W28628   2.760  12.292  14.246  0.0183 -0.1214 -0.2319
13498W        W28629   2.157   6.809   3.054  0.0358 -0.2044  0.2498
13499W        W28630   2.937  11.003  13.507 -0.0398  0.0655 -0.2502
13500W        W28631  16.020   3.285  12.187 -0.0608 -0.0856  0.2244
13501W        W28632   4.805  13.335   1.015 -0.1147  0.0469  0.4187
13502W        W28633  16.298  12.181   5.411 -0.0209 -0.2353  0.1894
13503W        W28634   0.746   7.972   4.137  0.2266 -0.0762  0.0233
13504W        W28635  11.021  16.758   3.330 -0.0642  0.0086  0.0956
13505W        W28636   0.578   7.993   2.133 -0.1963 -0.1770  0.0859
13506W        W28637  15.035   2.515   3.750  0.1061  0.2002 -0.0152
13507W        W28638   5.016  17.832   1.453  0.2576  0.1372  0.2982
13508W        W28639   3.468   5.697   3.343  0.3897 -0.2286  0.0332
13509W        W28640  13.845  18.082   1.213  0.2063  0.0936  0.1475
13510W        W28641   5.275  11.349   2.003 -0.2099 -0.1740  0.1943
13511W        W28642   3.956   4.552  14.985  0.1810  0.1065 -0.1201
13512W        W28643   7.368  17.584   6.209  0.1134  0.0300 -0.2505
13513W        W28644   9.207   0.166  14.427 -0.0608  0.0087 -0.0537
13514W        W28645  16.995   2.953   0.773 -0.1816  0.0433 -0.1467
13515W        W28646  10.832  15.653  12.437 -0.2046 -0.4349  0.0530
13516W        W28647  13.781   8.572   1.663  0.1933 -0.3211 -0.0043
13517W        W28648   6.481  16.172  15.783  0.0303  0.3006 -0.1917
13518W        W28649  11.854  11.175   3.248  0.0686 -0.2936 -0.0762
13519W        W28650   7.630  10.860   0.601  0.2427 -0.4354  0.1019
13520W        W28651   5.501  14.190  11.620 -0.0216  0.0136  0.3859
13521W        W28652  12.700  11.668   5.563 -0.2655 -0.0314  0.0985
13522W        W28653   0.661   0.865  15.730 -0.0591  0.0153 -0.3499
13523W        W28654  10.965   5.952  12.729 -0.1758 -0.2621  0.1322
13524W        W28655   2.616   6.575  14.691  0.0896 -0.0415  0.0139
13525W        W28656  15.861  17.662  15.485 -0.2064  0.2568  0.0103
13526W        W28657  17.674   0.854   1.384 -0.0339  0.0732 -0.0523
13527W        W28658   0.514   0.325   0.587 -0.2031 -0.5030  0.1318
13528W        W28659  11.748   3.804   1.434 -0.1973  0.1872  0.0710
13529W        W28660   6.614   2.775   1.066  0.3241  0.0083 -0.0836
13530W        W28661   4.431   1.704  15.448 -0.0069  0.1683  0.2283
13531W        W28662  16.689  15.869   4.466 -0.0622  0.2032 -0.2120
13532W        W28663   4.482   3.326  12.648 -0.2168  0.3104  0.2078
13533W        W28664  16.596   3.436  11.497  0.1324 -0.2146  0.1272
13534W        W28665   9.648  16.493  14.880  0.3409  0.0488  0.0066
13535W        W28666   9.581   8.067   4.672  0.0513  0.0676 -0.1138
13536W        W28667  11.069   4.185   3.602  0.0830  0.2215  0.0859
13537W        W28668   8.223  12.876   1.950  0.0545  0.4631 -0.0746
13538W        W28669  13.598  16.968  15.150 -0.2015 -0.0201  0.0958
13539W        W28670  16.805  14.024  14.033  0.0020  0.0460 -0.2891
13540W        W28671   5.815   9.871   2.609 -0.0229 -0.1372 -0.0750
13541W        W28672   5.852   1.703  12.824 -0.2541 -0.2285  0.0323
13542W        W28673   4.262  12.439   2.414  0.1089  0.2896  0.3013
13543W        W28674  14.610  15.710   2.418  0.4050  0.1434  0.1545
13544W        W28675  11.049  16.817  14.425 -0.2784  0.1606  0.2229
13545W        W28676   6.686   6.448   2.415 -0.1911  0.0570 -0.0590
13546W        W28677   8.023   4.980   2.008  0.1348  0.0901 -0.0826
13547W        W28678   6.009  17.653  13.147 -0.1082  0.4707 -0.2563
13548W        W28679  11.415  13.983  14.019 -0.0199  0.0479  0.0127
13549W        W28680   0.562   1.885  14.834 -0.0442 -0.1002  0.0414
13550W        W28681   5.532  17.457   3.212  0.2189  0.0693  0.1610
13551W        W28682   7.085  14.942  15.595 -0.2262  0.0646 -0.3532
13552W        W28683  10.108  16.529   5.425 -0.3862  0.0022 -0.4537
13553W        W28684   1.793  11.922   3.634  0.0757  0.1798 -0.2405
13554W        W28685  16.188   8.308   3.517 -0.1576 -0.2309  0.0110
13555W        W28686  15.379   3.580   4.495  0.0345  0.0260 -0.0479
13556W        W28687   3.223   8.929   1.608  0.0138 -0.0106 -0.1248
13557W        W28688   2.755  16.455   4.856  0.7426  0.3020 -0.1916
13558W        W28689  11.418  11.572  16.018 -0.1254 -0.1134  0.1472
13559W        W28690   6.213   0.438  14.310  0.1194  0.1802 -0.1319
13560W        W28691   7.987  10.929   2.871  0.0248 -0.2398  0.0273
13561W        W28692  13.788   5.764   2.671 -0.2531  0.1682 -0.2652
13562W        W28693   7.788  12.713  10.613  0.1147 -0.0207 -0.3043
13563W        W28694  17.623  12.686   2.827 -0.1510  0.0046  0.2120
13564W        W28695   7.630  18.044  12.823  0.0208  0.2698  0.1163
13565W        W28696   1.637   7.780   1.907 -0.2627  0.2211 -0.1515
13566W        W28697   8.436  12.845  12.087  0.1793 -0.0802 -0.1898
13567W        W28698   1.228  16.637   5.725 -0.0636 -0.0660 -0.3496
13568W        W28699  11.417   8.274  14.769  0.2088  0.4172  0.0962
13569W        W28700  14.078   8.163  13.024 -0.1968 -0.1190 -0.1320
13570W        W28701   9.659  10.038   4.670  0.2133 -0.0072 -0.3471
13571W        W28702   8.132   7.270   9.948  0.0970  0.1231 -0.3458
13572W        W28703  12.795   7.976  10.549  0.0657 -0.0997  0.0373
13573W        W28704   2.913   6.667   5.544 -0.0659 -0.1289  0.6010
13574W        W28705   5.134  12.943  13.839 -0.1402 -0.1465  0.2257
13575W        W28706  11.136   8.456  11.449 -0.2372  0.1152 -0.1044
13576W        W28707   4.358  11.688  13.873 -0.0982  0.1369  0.0236
13577W        W28708  17.476  14.126   0.618 -0.1269  0.0119  0.1193
13578W        W28709  17.383   5.558  14.725 -0.2199 -0.0619  0.0929
13579W        W28710   8.288   0.352  14.275 -0.2397 -0.1391  0.0069
13580W        W28711   2.628   1.703  13.145 -0.2811  0.0157 -0.0991
13581W        W28712   0.665  13.324  15.902 -0.2772 -0.2407 -0.0787
13582W        W28713  12.030   4.465  15.907  0.1008  0.4013 -0.0392
13583W        W28714   0.979   4.435  15.071 -0.0832  0.0255 -0.3303
13584W        W28715   5.424  16.851   0.127 -0.2541 -0.0477 -0.1264
13585W        W28716  16.873   6.802  11.917 -0.1075  0.0791  0.1311
13586W        W28717   8.514   8.141   2.378 -0.1441  0.0654  0.0750
13587W        W28718   0.945   9.275  16.124 -0.1389  0.0339 -0.1115
13588W        W28719  15.494  16.799   5.172 -0.1161 -0.0949  0.0111
13589W        W28720   9.100   6.430   0.526 -0.1255  0.0533  0.2037
13590W        W28721   6.044   7.315   4.906 -0.0985  0.1525  0.0673
13591W        W28722   3.654  15.232   0.923  0.1632 -0.0456  0.0645
13592W        W28723   7.527   5.388  12.807  0.0010 -0.2094 -0.1390
13593W        W28724   7.063  13.035   5.423 -0.1337 -0.0327  0.0587
13594W        W28725   7.068   9.173   2.501 -0.0998 -0.0762  0.1162
13595W        W28726   1.426   9.946  13.450  0.0454 -0.0687 -0.0752
13596W        W28727   7.261  10.695   1.579 -0.3256 -0.0134  0.1522
13597W        W28728   9.577  16.156  10.198  0.1663  0.2039  0.2407
13598W        W28729  11.905  15.810  15.435  0.1630 -0.2688 -0.1750
13599W        W28730   0.682   2.238   1.460 -0.0742 -0.0947  0.1508
13600W        W28731  13.616   5.269  13.111 -0.1816 -0.2951  0.0859
13601W        W28732   8.320   5.287  14.876  0.2289 -0.2540 -0.1633
13602W        W28733  14.776  12.310  14.322  0.1370 -0.0981 -0.0501
13603W        W28734  11.454  11.978   3.908  0.0863  0.2396 -0.0735
13604W        W28735  14.800   1.683   4.811  0.0888 -0.1214  0.0652
13605W        W28736   1.984   7.767   2.300 -0.0380 -0.4592  0.0065
13606W        W28737  12.994  10.292   3.692 -0.1082 -0.0352 -0.0635
13607W        W28738   0.927   3.937   2.319  0.1692 -0.1860 -0.0560
13608W        W28739   1.723  13.156  11.604  0.2571 -0.0838 -0.0998
13609W        W28740   9.232   5.814   1.299  0.0481  0.0635  0.1595
13610W        W28741   1.581   3.330  16.194 -0.1998  0.1687  0.0861
13611W        W28742   6.963  12.260   0.228  0.1091 -0.0588 -0.0477
13612W        W28743  16.732  15.033   5.516 -0.0178  0.0240 -0.1198
13613W        W28744  17.357   7.065   4.415 -0.2343  0.0515  0.3259
13614W        W28745  15.041   9.712   3.947  0.4003 -0.1511  0.1137
13615W        W28746  11.592   2.851   5.975 -0.2262 -0.3199 -0.1344
13616W        W28747   8.121  10.844   0.566  0.0105 -0.0305  0.1441
13617W        W28748  10.400  15.938  14.520  0.1215  0.1495  0.2040
13618W        W28749   0.625  15.685  13.183  0.2294 -0.3222 -0.0420
13619W        W28750   2.452  14.662  13.128 -0.1176  0.1433  0.1468
13620W        W28751  13.002  12.469  12.762  0.0084  0.2662 -0.0032
13621W        W28752   6.004   4.288   2.960  0.0467 -0.1398  0.1468
13622W        W28753  12.277   9.058   3.728  0.2192  0.0132 -0.3389
13623W        W28754   7.826   6.792   0.113  0.0832 -0.1286 -0.1318
13624W        W28755  17.071   3.054  12.354  0.0491  0.0431 -0.0275
13625W        W28756  11.099  17.777   3.731  0.0338 -0.1156  0.3524
13626W        W28757  14.361   3.082   5.668 -0.1091  0.3522  0.3489
13627W        W28758  17.309  13.858  12.189 -0.0315  0.1060 -0.1345
13628W        W28759   1.189   0.378   2.632 -0.1014  0.1668  0.1555
13629W        W28760   9.181   1.739  15.053  0.1556 -0.1077  0.1221
13630W        W28761   7.387   0.106   2.350 -0.0567 -0.1877  0.0991
13631W        W28762   8.218   1.223  13.304  0.2486 -0.1672 -0.1924
13632W        W28763  16.314   5.031  15.442  0.2267  0.0598 -0.0209
13633W        W28764   4.801   6.173  12.126 -0.1368  0.2820  0.1530
13634W        W28765  11.880  11.474   5.353 -0.1239  0.1560  0.0895
13635W        W28766  14.572  13.890   0.764 -0.1177 -0.1014  0.1346
13636W        W28767   5.159  10.761   0.085  0.0429  0.1009  0.3037
13637W        W28768  15.767  14.747  13.635  0.1833 -0.0374 -0.0613
13638W        W28769  17.418   3.023  11.688 -0.0891  0.1684  0.0937
13639W        W28770   5.799   6.653  13.839  0.0254  0.2253  0.1990
13640W        W28771   3.961  14.620  12.140 -0.0143 -0.1393 -0.1915
13641W        W28772   5.435  12.081  11.821 -0.1864 -0.2865  0.1151
13642W        W28773  13.855   1.779  13.950  0.0780 -0.2198  0.0260
13643W        W28774   6.258   8.324   0.710  0.2066 -0.0334 -0.0600
13644W        W28775   8.792  10.559   0.179 -0.0843 -0.1725  0.2482
13645W        W28776  10.619  17.320  11.219  0.4235  0.1493  0.3337
13646W        W28777  18.066   9.192  13.195 -0.0274  0.4285  0.1205
13647W        W28778   7.801   4.958  12.511  0.0952 -0.1629  0.1385
13648W        W28779   1.745   6.148  13.008  0.2659  0.2293 -0.1068
13649W        W28780   0.660   7.156   0.904 -0.0369 -0.0229  0.0556
13650W        W28781  12.155  10.094   1.312  0.1547  0.4316  0.0648
13651W        W28782   8.779   3.152   2.940 -0.1767  0.0916 -0.1136
13652W        W28783  13.140   0.791  12.594 -0.1987 -0.0971 -0.1076
13653W        W28784  16.330  10.100  11.787 -0.0865  0.0261 -0.0873
13654W        W28785   3.357   0.071  13.343 -0.0142  0.1588 -0.0653
13655W        W28786  16.044  13.106   1.330  0.2118 -0.0999  0.1528
13656W        W28787   3.760   1.794   1.324 -0.4863 -0.2479 -0.0331
13657W        W28788  12.945   4.595   1.310  0.0066  0.0094  0.0954
13658W        W28789  11.008  10.324  12.674  0.0784  0.2226  0.1042
13659W        W28790  17.674   4.660   3.706 -0.1908 -0.2262 -0.0428
13660W        W28791  17.894   1.355   1.190  0.0140  0.3524  0.0266
13661W        W28792  15.504  11.264   1.199  0.1900  0.1942 -0.1809
13662W        W28793   6.963  16.463  14.784  0.0907 -0.0036 -0.3862
13663W        W28794   6.405  12.678  13.381  0.1643 -0.2625  0.1126
13664W        W28795   0.470  12.332   1.298  0.2121 -0.1287  0.2390
13665W        W28796  16.420   6.617  13.038 -0.0823  0.0912  0.1828
13666W        W28797  15.514  14.709  15.788 -0.0918  0.0938  0.0917
13667W        W28798   0.543  10.744   1.714  0.2295  0.2616  0.2341
13668W        W28799  12.516  14.062  11.695  0.0602 -0.4663 -0.0499
13669W        W28800   5.138   4.480   5.546  0.0744 -0.0477  0.1146
13670W        W28801   3.519  13.886  15.048 -0.0960  0.1146  0.4003
13671W        W28802   2.650   4.825   1.446  0.0703 -0.0579  0.0133
13672W        W28803   9.734  15.624  15.162 -0.1513  0.0667 -0.3482
13673W        W28804   0.111  13.561   0.257  0.0897 -0.1771 -0.0595
13674W        W28805   7.715   6.820   3.221 -0.2879  0.0107 -0.1757
13675W        W28806  17.577  11.046  11.346 -0.1027 -0.0774  0.2531
13676W        W28807   4.463   0.112   5.072 -0.1597  0.1826  0.2065
13677W        W28808   9.564   9.804   2.143  0.6461 -0.0944 -0.0076
13678W        W28809   8.459   8.673   5.225 -0.2156 -0.0221 -0.0905
13679W        W28810   0.642  17.966   5.101 -0.3537 -0.0042  0.0712
13680W        W28811  16.682  16.606  15.447  0.1252 -0.1390  0.0868
13681W        W28812   4.971  15.884   1.779  0.0494  0.2476 -0.0474
13682W        W28813   4.696   0.944  15.575 -0.3130  0.0314  0.0827
13683W        W28814  10.754   6.346   4.983  0.1094 -0.1562 -0.1233
13684W        W28815   0.095   0.822   5.475  0.4712 -0.2568  0.1847
13685W        W28816  13.363  17.626  16.071 -0.0179 -0.0082  0.1165
13686W        W28817   8.302   8.830   4.147 -0.3695 -0.0167  0.0360
13687W        W28818   0.972   5.706   0.526 -0.1259 -0.1196 -0.1882
13688W        W28819  11.148  11.632  11.936 -0.2545  0.0229 -0.0180
13689W        W28820   9.209   2.419   3.651 -0.1805  0.0479 -0.2060
13690W        W28821  11.732   5.365  10.842  0.1191 -0.0303 -0.3567
13691W        W28822   6.338  16.894   0.334 -0.1897 -0.1458  0.1200
13692W        W28823   5.631  10.282   1.800  0.0300  0.0452  0.0547
13693W        W28824  17.579  16.516  15.358  0.1067  0.0924  0.0611
13694W        W28825  12.741   3.504   4.690 -0.0896 -0.1243 -0.2083
13695W        W28826   8.722  13.378   1.171  0.1708 -0.1240 -0.0747
13696W        W28827  15.235   1.030  13.805 -0.0018 -0.2052  0.1541
13697W        W28828   4.346  12.772   3.413 -0.0482 -0.3151 -0.1932
13698W        W28829  13.402  16.920   3.141 -0.3095  0.1207 -0.0416
13699W        W28830  17.163  10.992   0.330 -0.2274 -0.0964 -0.1432
13700W        W28831   6.926   4.081  15.408  0.0748 -0.1272  0.0605
13701W        W28832   7.211   5.143   5.709 -0.3115 -0.2195  0.2962
13702W        W28833   8.596   1.365  16.197  0.1840 -0.1247 -0.3088
13703W        W28834  10.309   9.778  15.730 -0.0174  0.3015 -0.1961
13704W        W28835   8.963   5.081  10.045 -0.1150 -0.2835  0.1444
13705W        W28836  11.123   6.561  10.707 -0.0241 -0.3225  0.0776
13706W        W28837   8.588  15.008   0.939  0.1694 -0.2828 -0.3418
13707W        W28838   2.990  14.898  12.451 -0.1424 -0.0914 -0.0417
13708W        W28839  10.029   6.967   1.407 -0.1413 -0.1673  0.1239
13709W        W28840  15.043  13.549  15.232 -0.0101 -0.2341  0.0887
13710W        W28841   3.496  17.065   0.535  0.1324  0.0715 -0.1507
13711W        W28842  15.470  17.064  12.305 -0.0547 -0.0643 -0.1294
13712W        W28843   0.750  13.283   0.161 -0.0160 -0.1665  0.1149
13713W        W28844   9.854  13.127   2.390 -0.0621  0.1356  0.2316
13714W        W28845  11.651  11.140   4.004 -0.3586 -0.0448  0.0208
13715W        W28846   6.356   9.126   1.868  0.1376  0.0823 -0.0352
13716W        W28847  13.689   4.469  11.541  0.2191 -0.1529  0.1527
13717W        W28848   3.092  14.377  12.565 -0.2071 -0.0156  0.0307
13718W        W28849   1.265   3.622   1.761  0.2675 -0.2489 -0.2486
13719W        W28850  15.742  13.908  13.550 -0.3360 -0.0096  0.0538
13720W        W28851   5.044   4.844  12.274  0.0318 -0.2723  0.0111
13721W        W28852   2.649  12.376  10.650 -0.0188 -0.0002 -0.0009
13722W        W28853   5.137  17.435   0.047 -0.0913 -0.1401  0.1785
13723W        W28854   5.074   4.285   0.166 -0.0047 -0.0058  0.1586
13724W        W28855  17.697   9.961   5.341  0.0507  0.1267  0.1176
13725W        W28856   2.665   5.802   5.120  0.2311 -0.1980 -0.1946
13726W        W28857  13.437  12.490  14.554 -0.3380  0.1436 -0.2624
13727W        W28858  17.766   4.560  11.422 -0.1512  0.1337 -0.1361
13728W        W28859   9.987   7.858  13.719  0.1231 -0.2211 -0.0456
13729W        W28860   2.435   6.154   2.572  0.1315  0.3096  0.2008
13730W        W28861   5.512   0.809   4.948 -0.1844  0.0098  0.0130
13731W        W28862  15.840   6.129  12.259 -0.1667 -0.1309  0.1649
13732W        W28863   4.672   3.631  13.028  0.1499 -0.0080  0.0337
13733W        W28864  11.130  14.057   2.278 -0.2466  0.1661 -0.4553
13734W        W28865  10.503   3.538   5.109  0.0067  0.0884  0.2424
13735W        W28866  16.042   4.187  11.334  0.0867  0.0084 -0.0431
13736W        W28867  16.629  11.482  14.405 -0.0770 -0.0962  0.0856
13737W        W28868  12.837   8.709  14.186  0.0072 -0.5191  0.0586
13738W        W28869   4.420   9.552   1.060 -0.1243  0.1119  0.3116
13739W        W28870   3.875   6.903  15.257  0.1319  0.2477  0.1446
13740W        W28871  12.815   7.478  11.863 -0.0713 -0.0984  0.1904
13741W        W28872  10.492  14.051  13.086  0.0358 -0.1911 -0.0211
13742W        W28873   4.969   0.335  16.240 -0.5432  0.2576  0.1156
13743W        W28874   2.527  11.898  14.477  0.2167 -0.2809  0.1603
13744W        W28875   6.688   3.382  13.344 -0.0363 -0.0900  0.1044
13745W        W28876  13.621  16.323   1.103 -0.2961 -0.1354  0.1255
13746W        W28877   7.673   3.378   2.143 -0.0249 -0.2178 -0.0064
13747W        W28878  14.090  13.215   4.402 -0.1034  0.0678 -0.1016
13748W        W28879  12.671   3.786   0.277  0.0778 -0.0594  0.1783
13749W        W28880  12.147   8.426  14.654  0.0993 -0.1491  0.0509
13750W        W28881  10.773   3.479  15.733 -0.0682 -0.0558 -0.3341
13751W        W28882   7.877   6.518  15.381  0.1389  0.0380 -0.1418
13752W        W28883   4.629  16.436   4.764  0.0467  0.2274 -0.1107
13753W        W28884   7.354  14.161  11.712  0.1545  0.0262 -0.2894
13754W        W28885   3.917   6.383   0.560 -0.2088 -0.1358  0.0270
13755W        W28886  15.246  16.527   0.472 -0.1197  0.1022 -0.0147
13756W        W28887   4.218   8.753   4.532 -0.1104 -0.0352  0.1015
13757W        W28888   3.561   5.392  13.020  0.0005 -0.0026 -0.1610
13758W        W28889   5.207   6.041   1.315  0.0889 -0.1729 -0.0319
13759W        W28890  16.782   6.952   3.478 -0.0608 -0.1164  0.0242
13760W        W28891   9.863  11.703   3.823  0.1009 -0.1181 -0.1359
13761W        W28892   7.485  14.219   0.692 -0.1181  0.2325  0.5705
13762W        W28893   1.929   3.556   2.926 -0.1420 -0.0148 -0.2191
13763W        W28894   0.333   0.222   2.206  0.2576 -0.2309 -0.0237
13764W        W28895  14.581   0.377  11.662  0.0021 -0.2007 -0.2088
13765W        W28896   0.306   5.725  13.411  0.2707  0.3394  0.3115
13766W        W28897   0.182   8.941  11.252  0.1159  0.0116  0.0837
13767W        W28898   8.904   2.594  12.409 -0.2343 -0.0337 -0.0201
13768W        W28899   8.081  15.460  13.761 -0.0699 -0.2922 -0.1198
13769W        W28900   0.872   7.836   1.654 -0.1500  0.0921  0.0927
13770W        W28901  13.344  16.472   2.616  0.0619  0.1678 -0.0487
13771W        W28902  17.051  15.984   1.153  0.0146 -0.2042  0.2523
13772W        W28903  16.003  14.645   4.287  0.0635 -0.1356  0.2605
13773W        W28904  15.275  11.234   5.441  0.0878  0.2040  0.3866
13774W        W28905   9.881  17.811   5.427 -0.2988 -0.0315  0.0508
13775W        W28906  13.122   7.883   2.828  0.2182  0.1452 -0.1553
13776W        W28907  13.692  15.107   1.874 -0.0867 -0.1384 -0.2763
13777W        W28908   0.990   3.050  15.518  0.1956  0.0155  0.0973
13778W        W28909  17.167   0.046   5.569 -0.2330 -0.0944  0.0501
13779W        W28910   0.957   5.546   4.274  0.1281  0.2091 -0.1419
13780W        W28911   9.329  11.584   1.907 -0.1504 -0.0281 -0.1313
13781W        W28912  13.769   1.384   1.947 -0.1386 -0.0184  0.4166
13782W        W28913   1.304  12.769  15.263  0.1187 -0.2922  0.0515
13783W        W28914   1.308  12.086   1.557  0.0481 -0.2359  0.0512
13784W        W28915  11.112   7.507   4.356 -0.1171  0.1404  0.0988
13785W        W28916  17.011  13.716  10.777 -0.0688  0.2327  0.0410
13786W        W28917  12.921   8.682   4.246  0.1100  0.1036  0.1942
13787W        W28918   9.472  11.804   3.320 -0.2584 -0.1589  0.1727
13788W        W28919   3.340   7.401   1.785  0.0130 -0.1337 -0.0898
13789W        W28920   2.409  17.789  16.192 -0.1299 -0.0510  0.0754
13790W        W28921  17.862   0.352  11.487 -0.1029  0.3081  0.2167
13791W        W28922  12.486   0.743  10.542  0.2256  0.1224 -0.1485
13792W        W28923   1.543   2.907   5.259  0.1860 -0.2938 -0.1212
13793W        W28924  17.687  17.345   3.024  0.0388 -0.0425 -0.2280
13794W        W28925  14.853   5.282   2.085 -0.0511  0.0207  0.1103
13795W        W28926  14.406  17.500  15.092 -0.0611 -0.2749  0.1959
13796W        W28927  14.317   1.837   3.333 -0.4462  0.2042  0.2008
13797W        W28928  10.437  16.498   1.607 -0.1020 -0.2041  0.4331
13798W        W28929   4.581   4.107  12.598 -0.0775 -0.1231 -0.0293
13799W        W28930   7.005   6.573   1.324  0.0573 -0.0106 -0.1052
13800W        W28931  16.355  11.236   3.967 -0.2802 -0.0914 -0.0982
13801W        W28932   0.969   7.236  13.891 -0.0886  0.2721 -0.0968
13802W        W28933   9.370  17.588  10.859  0.0207  0.0251 -0.1984
13803W        W28934  17.930  17.753   4.018  0.1626 -0.1572  0.0984
13804W        W28935  13.169   5.867   2.374  0.0007  0.3740 -0.0170
13805W        W28936   7.847  14.564  14.602 -0.1022  0.2022 -0.1331
13806W        W28937   3.498  14.154   1.130 -0.2455 -0.4187 -0.1635
13807W        W28938  13.754  15.855  15.185  0.0088 -0.0078 -0.0250
13808W        W28939  18.009  14.297   1.004  0.2919  0.1311 -0.1553
13809W        W28940  12.849   2.162  14.892  0.0512 -0.2608 -0.0568
13810W        W28941  13.401  16.118  15.555  0.1075  0.1070  0.1164
13811W        W28942   1.582   2.745   4.426 -0.0185 -0.0309  0.3669
13812W        W28943  13.223   8.807  11.514 -0.1230  0.0214 -0.0219
13813W        W28944  12.293  14.202   1.247 -0.0592  0.0483 -0.1100
13814W        W28945  17.174   1.390   0.798  0.0552  0.2337  0.1147
13815W        W28946  12.423  14.814   2.520  0.2531 -0.1316  0.3088
13816W        W28947   6.195   9.796  14.431  0.0389 -0.4326 -0.3333
13817W        W28948   0.871  14.840  11.407  0.0422 -0.1013 -0.5121
13818W        W28949  11.139  16.276   5.260  0.0065  0.2560 -0.2195
13819W        W28950   2.151   5.305  12.763 -0.0840 -0.1735  0.0775
13820W        W28951   2.218   6.788  11.212 -0.0099 -0.1214 -0.0481
13821W        W28952  11.901   2.720   4.558  0.0091 -0.1207 -0.4533
13822W        W28953   9.994   9.401  11.422 -0.0356 -0.0008 -0.1585
13823W        W28954  17.282   9.240   2.643  0.1172 -0.1872 -0.3381
13824W        W28955  12.301  12.821   2.658  0.0908 -0.3184 -0.1506
13825W        W28956  16.275   3.183   2.676 -0.1555  0.0714 -0.0937
13826W        W28957  13.150   7.298   4.643 -0.1831 -0.2974 -0.0430
13827W        W28958   7.012  11.007  11.170  0.2751  0.1739  0.0533
13828W        W28959  15.482   3.552  13.584 -0.2161 -0.1418  0.0976
13829W        W28960   4.988   6.015  10.337 -0.0329  0.2556 -0.4497
13830W        W28961   9.928   7.247   4.162  0.1383  0.0636 -0.0135
13831W        W28962  17.134   7.701  15.641  0.0198  0.1490 -0.0250
13832W        W28963  17.925  16.530   4.022 -0.0455  0.1321  0.1625
13833W        W28964  17.467   2.247  11.842  0.0044  0.2307  0.0746
13834W        W28965  11.099   4.806   1.942 -0.1627 -0.0171  0.2298
13835W        W28966  14.534  13.382   1.771 -0.0845  0.1586  0.2080
13836W        W28967   4.360   6.393   1.135  0.2402 -0.0259  0.1136
13837W        W28968   2.756   3.105   3.962  0.1076 -0.1695  0.0879
13838W        W28969   2.996   9.426  11.802  0.3668 -0.0716  0.0578
13839W        W28970   3.983  10.924   5.304  0.2093 -0.1062 -0.0872
13840W        W28971   1.240  10.316   6.208  0.2185  0.0277  0.1900
13841W        W28972  15.064  10.236  15.580 -0.2263  0.3577  0.1487
13842W        W28973  12.215   5.215  14.952  0.0898  0.4078 -0.1284
13843W        W28974   3.274  13.794   3.902  0.1725 -0.1280  0.2886
13844W        W28975  14.407  15.161   1.023  0.1407  0.3310  0.1402
13845W        W28976  16.044   8.974  11.410  0.0559 -0.2511 -0.1929
13846W        W28977   7.334  13.614  13.382  0.2453 -0.0075 -0.2161
13847W        W28978   5.376  16.803  14.989 -0.0802 -0.0345  0.1152
13848W        W28979  13.950  18.034  13.718 -0.0535 -0.1080 -0.0898
13849W        W28980  12.760   2.461   0.902 -0.1152  0.1498  0.1317
13850W        W28981  15.494   4.987   3.522 -0.0861  0.1175  0.1724
13851W        W28982   9.429  10.889  10.957  0.0998 -0.1535 -0.0826
13852W        W28983   2.131  15.507   2.082 -0.0726 -0.0622 -0.2587
13853W        W28984   2.175   3.483   1.440 -0.0069  0.0747 -0.1555
13854W        W28985   7.811   8.696  12.035 -0.2260 -0.1556  0.1135
13855W        W28986   9.387   9.520   2.980  0.1343  0.2779  0.1126
13856W        W28987   7.997  16.709   0.501 -0.1667  0.1168  0.3709
13857W        W28988   4.845  12.801  13.458  0.1580 -0.0681 -0.2833
13858W        W28989   5.410   5.765   4.460 -0.0323 -0.0510 -0.0537
13859W        W28990   3.541   0.105  16.032  0.1730 -0.1893  0.1131
13860W        W28991   1.690   4.178  15.606  0.2895  0.0448 -0.1176
13861W        W28992   8.413  15.486   0.502 -0.0384 -0.0861  0.0742
13862W        W28993   1.260   5.186  13.722  0.5244  0.0963 -0.0110
13863W        W28994   3.779   2.881   1.623 -0.1857  0.1660  0.0769
13864W        W28995   1.399  12.523   5.059 -0.1470  0.3858  0.0845
13865W        W28996   7.903   4.417   3.462  0.0564  0.2768  0.0172
13866W        W28997  12.774   7.405   3.563  0.3002  0.0030 -0.1826
13867W        W28998   1.298   8.076  13.722  0.0117 -0.1168  0.1327
13868W        W28999   1.039   9.121  12.396  0.0282 -0.1814  0.0359
13869W        W29000   0.818  11.047   2.052 -0.2622 -0.3875  0.2148
13870W        W29001   6.088   5.878  10.845 -0.0877 -0.1337  0.1732
13871W        W29002   8.541   1.623  13.461 -0.0753  0.0210 -0.1689
13872W        W29003  13.313   6.486   2.708  0.0878  0.2629  0.2346
13873W        W29004   4.509   7.319   2.314 -0.1704 -0.1689  0.2232
13874W        W29005  15.535   1.301  13.442 -0.0869 -0.1572 -0.0263
13875W        W29006   0.248   2.040   3.469 -0.0656  0.1590 -0.1134
13876W        W29007  16.169  14.139  13.997  0.3533 -0.0164  0.0806
13877W        W29008  12.156  15.831  14.023 -0.1622 -0.3439 -0.4358
13878W        W29009   7.779   9.095   1.689 -0.0139 -0.0428 -0.0163
13879W        W29010  14.923   0.222  14.400 -0.1442  0.1431  0.0046
13880W        W29011  13.576   2.972  14.671  0.1064 -0.0429  0.1940
13881W        W29012  15.674  15.136   5.263  0.0204 -0.1640 -0.2608
13882W        W29013   2.046  10.503  14.264 -0.0340 -0.1528 -0.2091
13883W        W29014  17.647  10.891   3.900  0.0581  0.0186  0.5312
13884W        W29015  16.995   0.797  11.312  0.0304 -0.0452  0.0163
13885W        W29016  10.017   8.904  12.274 -0.3810 -0.1230 -0.0077
13886W        W29017  12.218  14.432  16.131 -0.2085 -0.2736  0.0770
13887W        W29018  11.464  16.424   1.762 -0.0436 -0.1595 -0.0658
13888W        W29019   4.527   1.354  15.830 -0.1638  0.2703 -0.1328
13889W        W29020   4.950  15.910  12.333  0.0329  0.0805 -0.4065
13890W        W29021   9.860   8.851   3.961 -0.3637 -0.1600 -0.0154
13891W        W29022   7.866  15.428  15.052  0.0868 -0.0075  0.1091
13892W        W29023   5.467  14.573  15.924 -0.1419  0.0601  0.0354
13893W        W29024  15.254   7.655   4.272  0.0557  0.1092 -0.0306
13894W        W29025   9.231   3.768   1.953 -0.1120  0.0763  0.1053
13895W        W29026  15.796   3.782  13.213  0.1639  0.2601 -0.2993
13896W        W29027   8.377  11.199  15.291 -0.0827 -0.0726  0.0930
13897W        W29028   4.441   8.977  15.142  0.1059  0.0119  0.0444
13898W        W29029  16.182   5.778   1.636 -0.1668  0.0013 -0.3780
13899W        W29030   7.397  14.211  16.003  0.0728 -0.0575 -0.0994
13900W        W29031  12.696  14.211   3.075  0.1823 -0.1491  0.0433
13901W        W29032   3.944   6.704   0.141  0.0243  0.1973  0.0568
13902W        W29033   1.289   3.668  14.072  0.0482  0.2049 -0.1171
13903W        W29034  12.211  11.087   2.829 -0.2869 -0.2307  0.0874
13904W        W29035  12.476  10.501   5.699  0.3932 -0.2193 -0.0282
13905W        W29036  14.802   6.985   3.657 -0.1852  0.2696  0.2585
13906W        W29037   3.140  13.332   4.614  0.0760  0.0161  0.1835
13907W        W29038   0.694  18.022   2.463  0.1409  0.1813  0.0075
13908W        W29039   4.919   8.675  15.236  0.0978 -0.2019  0.1967
13909W        W29040  10.217  11.523   5.017  0.0960  0.2802  0.3086
13910W        W29041  15.521   0.537   2.035  0.1735  0.0854 -0.3306
13911W        W29042  11.100   5.973   2.557 -0.0178  0.1744  0.3124
13912W        W29043  13.920   4.319  13.970  0.1083 -0.5086 -0.2671
13913W        W29044  15.935  15.009   2.258  0.1191 -0.3921  0.1654
13914W        W29045   8.770   1.199  11.457  0.3460 -0.1782  0.2108
13915W        W29046  15.785  15.106  11.162 -0.2916  0.0640 -0.1408
13916W        W29047  13.867   2.211   4.166  0.0314  0.0090  0.1664
13917W        W29048  10.698  11.702  12.311  0.1679  0.1513  0.1451
13918W        W29049  17.142   3.346  15.096  0.0529 -0.1240 -0.2056
13919W        W29050  12.111   2.990   5.661 -0.1805  0.1879  0.1080
13920W        W29051  13.102   0.654   2.127  0.0668 -0.1043 -0.2121
13921W        W29052   1.191  17.649   4.757  0.0972  0.0164 -0.1616
13922W        W29053  14.122  11.884  13.137  0.3354  0.0207 -0.0136
13923W        W29054   1.626   6.700  11.954  0.0899 -0.3402 -0.0033
13924W        W29055  11.252  10.537   0.207  0.2584  0.0390  0.0372
13925W        W29056  14.783   3.251  15.386 -0.0402 -0.1238 -0.1604
13926W        W29057  11.407  12.884   3.883  0.1240  0.0232 -0.2133
13927W        W29058   1.789  10.306  16.070  0.0353 -0.0355  0.2134
13928W        W29059  15.774  13.789  16.011  0.4307 -0.1309  0.1898
13929W        W29060  16.517   8.258  12.955  0.3392  0.1239 -0.0632
13930W        W29061  15.605   5.101   2.700  0.4183  0.0834 -0.3654
13931W        W29062   5.902  17.865   2.322  0.0407  0.1488  0.0521
13932W        W29063   5.087   3.401  12.982  0.0490  0.0340 -0.0202
13933W        W29064  11.545  14.268   5.388 -0.1857  0.0454  0.2852
13934W        W29065  17.074   7.697   6.381 -0.2371  0.2849 -0.3440
13935W        W29066  11.090   1.033   4.322 -0.1036 -0.1897  0.0169
13936W        W29067   6.052  11.515  12.438 -0.0863  0.1944  0.2505
13937W        W29068   2.529   5.733  13.897 -0.3246 -0.1329  0.3324
13938W        W29069  10.583   0.507   1.425 -0.3368  0.1165 -0.3311
13939W        W29070   3.294   3.623  15.084  0.0763  0.0343  0.2490
13940W        W29071  14.436   1.976   2.305 -0.1307 -0.2295 -0.1135
13941W        W29072  12.594   7.153  14.842  0.0818  0.0961  0.0502
13942W        W29073  13.494  16.214   4.327 -0.2146 -0.0449 -0.0533
13943W        W29074  15.874   9.524   4.759 -0.0149  0.1684 -0.0562
13944W        W29075   3.302   8.747   4.191  0.2727  0.1306  0.1744
13945W        W29076  16.647   3.463   2.902 -0.1349 -0.2221  0.0360
13946W        W29077  13.468   5.635   3.342 -0.1801 -0.1239  0.0918
13947W        W29078  15.191   1.594   1.133  0.0737 -0.0316  0.0511
13948W        W29079   6.561   3.182  16.083  0.2585  0.1360  0.0025
13949W        W29080   4.055  16.901  14.793 -0.0305  0.0332 -0.0722
13950W        W29081  16.379   3.310   3.748  0.2536 -0.2440 -0.1560
13951W        W29082   8.174   0.624   0.777  0.2835 -0.1155  0.1675
13952W        W29083   6.355  16.349   2.507  0.0761  0.1582  0.1012
13953W        W29084   1.623  15.004  15.773  0.1766 -0.0850 -0.1980
13954W        W29085   5.487   1.980  13.224 -0.1991  0.0593 -0.6405
13955W        W29086   6.005  12.008  12.340  0.0080 -0.0718 -0.3299
13956W        W29087  12.159   1.372  12.120 -0.1588  0.1495 -0.1053
13957W        W29088  14.883  12.229  11.869 -0.0149 -0.1397 -0.1253
13958W        W29089  11.562   0.391   1.226 -0.1365  0.0383  0.1769
13959W        W29090  15.392   4.939  15.378 -0.2261 -0.0222  0.2779
13960W        W29091  15.835   3.528  15.699 -0.0534  0.0805  0.2431
13961W        W29092   8.039   8.020   0.033  0.1276 -0.1159  0.0335
13962W        W29093   7.379   3.601  11.611  0.0818  0.0594 -0.0872
13963W        W29094  17.266   3.749   2.129  0.1541 -0.0297 -0.0640
13964W        W29095  17.634  17.837   3.140 -0.2944 -0.1943  0.2234
13965W        W29096   8.498   6.201   5.320 -0.1721 -0.0831 -0.2289
13966W        W29097   5.759   5.321   2.701 -0.0565 -0.1149 -0.2371
13967W        W29098   3.734   2.183   3.081 -0.1934 -0.0698 -0.1373
13968W        W29099   2.668  11.003  12.365 -0.1505 -0.0187 -0.0876
13969W        W29100  15.492  11.810  12.542  0.0335  0.2186  0.1010
13970W        W29101   4.563   8.052  12.838  0.0012 -0.0233  0.1164
13971W        W29102   3.971  13.688   3.575  0.0541  0.0077  0.3376
13972W        W29103   6.351  18.083   3.652  0.2593  0.1221 -0.1811
13973W        W29104  10.250   8.792   1.994  0.1012  0.1212  0.1569
13974W        W29105  14.181   1.972  11.959 -0.0020  0.0417  0.1946
13975W        W29106  12.263  11.292   1.920  0.0324 -0.2275 -0.1291
13976W        W29107  14.098   1.582  12.887 -0.3848  0.0330 -0.3237
13977W        W29108  14.419   8.962  15.899  0.1189  0.4873 -0.1257
13978W        W29109  11.275   7.221  15.091 -0.0280  0.2921  0.0930
13979W        W29110  11.722   9.356   2.251  0.4050 -0.1841  0.1148
13980W        W29111   6.114   4.077  13.717 -0.0279  0.1689  0.4056
13981W        W29112  16.998   7.492  12.497  0.0411 -0.0273  0.0065
13982W        W29113  14.705   9.500   0.961 -0.4089 -0.3336 -0.0823
13983W        W29114  12.094   3.632  15.575 -0.1244 -0.1167  0.1986
13984W        W29115  17.077  14.400  13.738  0.1270  0.0899  0.0445
13985W        W29116   0.130   4.860   1.235 -0.0416  0.0798  0.0283
13986W        W29117  13.187   7.800  14.050 -0.3210 -0.1061  0.0365
13987W        W29118   2.516   5.454   0.895 -0.0560 -0.4754 -0.1060
13988W        W29119  17.796  14.818  12.033  0.1520  0.1105  0.2102
13989W        W29120  17.745  11.999  11.636 -0.0831 -0.0291  0.0794
13990W        W29121   5.677  14.075   1.106  0.2263 -0.1283  0.0792
13991W        W29122   7.917   8.452  15.803  0.2397  0.1262  0.2792
13992W        W29123   1.815  13.263   4.276 -0.5431  0.3781  0.0594
13993W        W29124  12.485  16.957   1.597 -0.1205  0.0268 -0.1370
13994W        W29125   3.445  12.054  15.660 -0.1482 -0.0799  0.2129
13995W        W29126  11.535  17.540   3.687 -0.3664  0.1206  0.0650
13996W        W29127   2.228   3.161   0.161  0.0898 -0.1485  0.0270
13997W        W29128   4.048   7.789   4.338 -0.0307  0.2507 -0.1740
13998W        W29129   0.454   6.184  13.556 -0.0202 -0.0166 -0.0336
13999W        W29130   3.516   5.830  11.559  0.0166 -0.0846 -0.2091
14000W        W29131   8.662   2.870  14.614 -0.1276 -0.0766  0.1133
14001W        W29132  15.306  12.566  13.791  0.3750  0.0252 -0.3353
14002W        W29133   0.950   7.083  15.640 -0.4209 -0.0636  0.1346
14003W        W29134  11.442   9.896  16.187 -0.0115  0.0682  0.2036
14004W        W29135   9.276   4.874   3.631  0.0647 -0.0999 -0.1317
14005W        W29136  13.792  10.907  13.362 -0.0744  0.0259  0.0198
14006W        W29137  14.762   9.957   4.315 -0.0239  0.0502  0.0369
14007W        W29138   8.401  10.545  11.527 -0.1208 -0.1287  0.3109
14008W        W29139   1.045   4.623   2.996  0.1212  0.2382 -0.0163
14009W        W29140  12.579  15.767  11.931 -0.0740 -0.0793  0.1309
14010W        W29141   4.706   6.775  10.685  0.2645 -0.1073  0.0364
14011W        W29142   8.735   1.498   0.765 -0.1401 -0.0290 -0.0185
14012W        W29143  13.524  17.436   2.818 -0.0628  0.0336  0.1270
14013W        W29144   6.516  16.954   5.309 -0.1459  0.0132 -0.1267
14014W        W29145   0.632   4.739   2.718  0.1834 -0.3479  0.1068
14015W        W29146  13.119   9.247  10.937  0.0437  0.0366  0.2984
14016W        W29147   0.501  12.444   5.090  0.0245  0.3140  0.0891
14017W        W29148   0.563  17.909  13.277 -0.0011  0.1835  0.3370
14018W        W29149  14.946  14.153  11.519  0.3745 -0.1732 -0.0330
14019W        W29150  12.709  12.528   3.649 -0.0808  0.1837  0.1011
14020W        W29151  11.964  17.920  15.074 -0.0524 -0.0477  0.0188
14021W        W29152   3.926   1.761   3.893 -0.1488 -0.3290  0.0851
14022W        W29153  14.823  10.642  15.534 -0.3726  0.0056  0.1311
14023W        W29154   5.977   8.674   0.950 -0.1123  0.2646  0.0039
14024W        W29155   0.156   8.165   3.909  0.1235  0.1062  0.2380
14025W        W29156   7.149  16.539   2.812  0.0414  0.1436  0.1571
14026W        W29157   5.852  12.420  11.273  0.1443 -0.1858  0.1088
14027W        W29158   8.258   7.632   6.187  0.0020 -0.0819 -0.2221
14028W        W29159   6.728  15.051   2.117 -0.0532 -0.2305 -0.5273
14029W        W29160   3.028   1.905   5.431 -0.1537  0.0908  0.1032
14030W        W29161  15.272   1.003   2.821  0.0292  0.1621  0.0379
14031W        W29162  12.833  11.165  13.098  0.0547 -0.1694 -0.1953
14032W        W29163  15.982  10.624   2.429  0.0114  0.0739 -0.1483
14033W        W29164  11.120   2.088   4.788 -0.1770 -0.3254  0.0135
14034W        W29165  10.293   5.129   3.982 -0.0381 -0.2055  0.1264
14035W        W29166   8.425  16.621   4.031 -0.1830  0.3847  0.2319
14036W        W29167   5.262  12.894   3.249 -0.0702 -0.0558 -0.2044
14037W        W29168   8.820  11.827  13.869 -0.2587  0.3222  0.0933
14038W        W29169  11.759   2.135  16.107 -0.0218 -0.1753  0.1748
14039W        W29170  12.638   7.316  11.368  0.0051  0.1354  0.1686
14040W        W29171   6.110   3.533  14.429 -0.0314  0.1711 -0.2640
14041W        W29172   3.352  14.551   0.352  0.2373 -0.0094  0.2458
14042W        W29173   8.671  11.187  15.738  0.2361 -0.2595 -0.0933
14043W        W29174  11.735  15.310   2.740  0.3521  0.2490 -0.0573
14044W        W29175  11.605  17.596  15.169  0.2542 -0.1666  0.0246
14045W        W29176   7.920   3.408  14.193  0.0850 -0.0909 -0.2597
14046W        W29177  12.345  11.301   4.609  0.1818 -0.0471 -0.0163
14047W        W29178   3.500  14.842  12.854  0.0268  0.2801  0.1161
14048W        W29179   7.249   3.207   3.215 -0.0589 -0.0341 -0.1929
14049W        W29180   4.850   4.915  15.693  0.0815 -0.0135  0.0363
14050W        W29181  17.520   2.484   0.372  0.0776  0.0849 -0.4145
14051W        W29182  11.397   7.926   4.253  0.2016  0.1949 -0.1461
14052W        W29183  13.104   4.047  12.177  0.2029 -0.1340 -0.0085
14053W        W29184   9.136   1.391   1.678  0.2653  0.3213  0.1127
14054W        W29185  12.935  16.461   4.956  0.2333 -0.0073 -0.0434
14055W        W29186  14.214   0.749   3.559 -0.4306 -0.1466 -0.0968
14056W        W29187   5.487  10.396  11.539 -0.2994  0.1824  0.1263
14057W        W29188  15.988  12.644  12.684  0.1053 -0.2794  0.1693
14058W        W29189   1.954   8.700   5.823 -0.1644 -0.0699 -0.2073
14059W        W29190  14.584  16.425   1.325 -0.0805  0.0112  0.1762
14060W        W29191   7.584  10.184   0.986 -0.1661 -0.0907 -0.1499
14061W        W29192  16.157  10.207  11.011  0.0066  0.0378 -0.0063
14062W        W29193  17.674  17.534  12.453  0.3186 -0.0109  0.0059
14063W        W29194   0.942  12.004  15.439 -0.0197 -0.0149  0.1549
14064W        W29195   5.050   1.300  16.232 -0.0513  0.0985  0.1316
14065W        W29196   0.252   0.206   1.344  0.0094  0.1491 -0.1247
14066W        W29197  13.152  14.222   2.688  0.0452  0.0470 -0.1393
14067W        W29198   2.442  16.061   0.438  0.0480  0.1095 -0.0412
14068W        W29199  15.279   5.222  11.363 -0.0126  0.3333 -0.0503
14069W        W29200   3.545  13.822  12.465 -0.1157 -0.2309 -0.4358
14070W        W29201  11.645   8.733  15.838  0.1149  0.2098  0.1882
14071W        W29202   3.842   0.606  12.314  0.4123  0.1133  0.0608
14072W        W29203  11.799   4.018  11.617 -0.0209  0.0283 -0.1654
14073W        W29204   8.998  13.741   3.028 -0.0907 -0.2427 -0.1670
14074W        W29205  15.762  13.365   4.613 -0.3452 -0.0575  0.0822
14075W        W29206   7.177   4.183  13.531  0.0157 -0.2198  0.0850
14076W        W29207  10.201  18.028  16.093  0.0804  0.1726  0.2578
14077W        W29208  17.099  10.722  16.141 -0.0233 -0.1058 -0.0354
14078W        W29209  16.171  16.018   3.902  0.2152 -0.1667  0.2498
14079W        W29210   9.578   6.665  10.674 -0.1951 -0.0908 -0.1018
14080W        W29211   6.903  11.939  15.357 -0.0741 -0.1891  0.0799
14081W        W29212  13.113  16.413   2.136 -0.0095 -0.3226 -0.4234
14082W        W29213  12.748   7.666   2.040 -0.2469  0.1813 -0.0508
14083W        W29214   6.865   6.005  13.500  0.2702 -0.0645  0.0491
14084W        W29215  12.219   5.097   2.483 -0.0567 -0.1835  0.1438
14085W        W29216  15.049   8.919  10.346  0.1438  0.0472 -0.1314
14086W        W29217  12.467   5.790   1.489 -0.1656  0.3130  0.2293
14087W        W29218  10.350   3.642  12.479 -0.2220  0.0446  0.0086
14088W        W29219   1.903  16.986  14.119 -0.3211 -0.0796 -0.1721
14089W        W29220  11.983   9.023  10.601  0.0858  0.0356  0.0296
14090W        W29221  17.054   1.119  11.881 -0.1060  0.3148 -0.1819
14091W        W29222  13.453  16.186  12.087  0.2393 -0.2619  0.1079
14092W        W29223  12.563  17.844   1.238  0.2236  0.1590  0.0072
14093W        W29224  14.531   9.830   1.364  0.1333 -0.1077 -0.0401
14094W        W29225  15.697  11.379  11.437  0.1225  0.3698 -0.2471
14095W        W29226   9.520  15.870  13.143  0.1653  0.2678  0.0410
14096W        W29227  11.689   7.798   4.883  0.2826  0.1319 -0.1729
14097W        W29228   6.212   1.384  11.340 -0.4056  0.1260 -0.3508
14098W        W29229   2.638  12.906   4.164  0.2121 -0.1604 -0.3020
14099W        W29230  12.070  11.067  14.962 -0.0458  0.1183  0.2104
14100W        W29231   1.743   8.294   5.924 -0.0691 -0.0174 -0.1523
14101W        W29232   5.076   0.921  15.219 -0.1585  0.0879  0.0269
14102W        W29233   5.346  16.327   2.679 -0.1841  0.0800 -0.0403
14103W        W29234   0.497   9.797   3.861  0.1200  0.1230 -0.1030
14104W        W29235  15.416  11.776   3.027  0.3312  0.2974  0.0023
14105W        W29236   4.840   5.580   3.635 -0.3031  0.1384 -0.0591
14106W        W29237   5.291  13.000   2.738  0.5061 -0.1688 -0.0799
14107W        W29238   3.877  13.391  12.231  0.2035  0.1039 -0.0545
14108W        W29239  13.074   3.208  12.421  0.7087 -0.3102 -0.0943
14109W        W29240   7.675  13.222  10.619 -0.0738  0.0066 -0.1007
14110W        W29241   2.754   2.865   0.058 -0.0479  0.1832  0.0789
14111W        W29242  15.022  16.362  13.288  0.2201  0.0481  0.1645
14112W        W29243   2.511   6.547   2.849  0.0885 -0.1204 -0.2543
14113W        W29244   1.772   1.149  16.006  0.0328 -0.1904 -0.0265
14114W        W29245  16.900   1.691  12.721  0.1829 -0.2258  0.2462
14115W        W29246   6.950  10.493   0.237 -0.0534  0.0248  0.0642
14116W        W29247   7.985  12.473  14.755  0.0072  0.4075  0.1277
14117W        W29248   9.051  13.771   1.262 -0.2243 -0.4553 -0.0354
14118W        W29249   8.964   5.334  10.986 -0.0028 -0.1967  0.0878
14119W        W29250   5.266   4.287   6.179 -0.1479  0.0427  0.0744
14120W        W29251   1.442  16.675  14.058 -0.3222 -0.2946  0.2186
14121W        W29252  17.059  11.052  11.276  0.2101 -0.0381  0.0650
14122W        W29253   0.689   4.421  11.445 -0.3726  0.2507  0.0534
14123W        W29254  11.240   7.732  13.819 -0.0422  0.2018 -0.1067
14124W        W29255   6.942   9.478  11.780  0.1844 -0.3191  0.1804
14125W        W29256   9.689   9.351   1.296  0.0183  0.1043  0.0984
14126W        W29257  14.216  15.359   2.657  0.0798  0.0811 -0.1486
14127W        W29258   5.770  17.062   4.278 -0.0023  0.2070  0.0396
14128W        W29259  10.443   8.818  12.016  0.0039 -0.3080 -0.1739
14129W        W29260  13.185   7.039   1.546  0.1661 -0.1562  0.2293
14130W        W29261   7.533   3.389   6.107 -0.0922 -0.0764 -0.6347
14131W        W29262  14.562   7.651  11.862 -0.0936  0.2191 -0.1216
14132W        W29263   3.123   9.713   3.533  0.0971  0.1233  0.3009
14133W        W29264   7.910   6.641   2.147 -0.2773  0.0249  0.1983
14134W        W29265  16.669  13.323  15.166 -0.2003 -0.2838 -0.1417
14135W        W29266  13.914  17.978  11.699 -0.5339  0.0831 -0.0032
14136W        W29267  14.545   3.971   2.828 -0.0543 -0.0432  0.0064
14137W        W29268   7.473   4.133   1.361  0.1366 -0.0036 -0.3034
14138W        W29269  15.083   9.270  15.325 -0.0876 -0.1628 -0.2315
14139W        W29270   3.892  12.588   1.643  0.3026  0.2275 -0.1294
14140W        W29271  10.235  10.572   0.900 -0.4153  0.0955 -0.0043
14141W        W29272   0.083  13.588   3.535 -0.0648  0.3028  0.3180
14142W        W29273   4.749  10.393  12.018  0.0366  0.0311 -0.1153
14143W        W29274   3.833  15.233   9.502 -0.0274 -0.0508 -0.0006
14144W        W29275   7.137  12.977  12.460 -0.0881 -0.3151 -0.0927
14145W        W29276   8.363  16.278   4.612  0.3142  0.3408  0.2016
14146W        W29277   3.097   9.014  12.274  0.0603 -0.1390  0.0902
14147W        W29278  17.928   4.158  11.184 -0.2294 -0.0440  0.0740
14148W        W29279  12.173   9.665  13.374  0.4029  0.0688 -0.0779
14149W        W29280   1.509   8.295  15.810 -0.0538 -0.0440 -0.2001
14150W        W29281   8.407  13.163  12.652  0.2757  0.0085  0.2848
14151W        W29282  17.407  13.549   2.313  0.0508  0.2762  0.3949
14152W        W29283  15.018  11.650   4.345  0.2252 -0.0408  0.0094
14153W        W29284  10.510  17.289   1.207  0.0955  0.1297  0.0901
14154W        W29285   2.933   6.104  13.951 -0.1480 -0.3351  0.2808
14155W        W29286  17.902   5.444  11.293  0.1439  0.0719 -0.2271
14156W        W29287  16.002   5.509   0.666 -0.3086 -0.2030  0.3676
14157W        W29288   8.369  14.735  15.842  0.0783  0.0783 -0.0318
14158W        W29289  18.004  14.392   2.346  0.0930  0.0845 -0.2479
14159W        W29290  13.466  12.454  13.128  0.0134  0.2128  0.1683
14160W        W29291  10.048   8.515  10.535 -0.0792  0.3172  0.0663
14161W        W29292  14.897   1.689   5.892  0.0276 -0.0210 -0.0110
14162W        W29293  11.510   0.390   5.316 -0.0309 -0.2276  0.4609
14163W        W29294   4.797   0.269  14.542 -0.1680 -0.0119 -0.2124
14164W        W29295  10.420   6.639  12.348  0.1870  0.5667  0.1255
14165W        W29296   0.211   6.334   5.101 -0.1433 -0.0497  0.1044
14166W        W29297   8.988   4.557  13.128 -0.3501 -0.1827  0.2344
14167W        W29298  14.842   2.750  15.103  0.0451  0.0506  0.3095
14168W        W29299   6.877   7.822  15.420  0.1195 -0.3365 -0.1975
14169W        W29300   1.507  14.196   4.870 -0.0220  0.0271  0.1289
14170W        W29301  17.870   8.717  10.457 -0.2206 -0.2510 -0.0988
14171W        W29302   4.436  12.178  13.804  0.0568  0.0919  0.0476
14172W        W29303  10.170  13.091   0.686  0.3011 -0.2146  0.0065
14173W        W29304  12.650   2.230  15.861  0.0022 -0.1536 -0.3772
14174W        W29305   3.238   9.586  12.328  0.1051  0.1537 -0.2123
14175W        W29306   7.545  17.860  14.722 -0.2332  0.0781  0.2010
14176W        W29307  10.771   3.450  14.693  0.1031 -0.0226 -0.2921
14177W        W29308  17.619  17.209   4.775  0.0194 -0.1964 -0.0070
14178W        W29309  17.185  15.262  12.023  0.1073  0.0228  0.1428
14179W        W29310   3.911   8.567  12.413  0.2012 -0.2072 -0.0228
14180W        W29311   7.426  11.081  15.116  0.1442  0.1129 -0.2294
14181W        W29312  12.757   3.534  15.703 -0.1531 -0.0006  0.3548
14182W        W29313   2.260   0.728   2.135 -0.0252 -0.1079  0.1021
14183W        W29314  14.236   8.416   1.527  0.0883  0.0245 -0.1731
14184W        W29315  17.994   2.850   3.942  0.1992 -0.0084 -0.2607
14185W        W29316  13.784   3.783  12.312 -0.0444 -0.1977  0.1251
14186W        W29317   7.641   6.012   3.458 -0.1976  0.2828  0.3018
14187W        W29318  10.323  17.193  16.160  0.0911 -0.0540  0.1014
14188W        W29319   8.135  13.989  13.584 -0.1940 -0.2173 -0.0865
14189W        W29320  11.486  14.434   1.534 -0.1191  0.0545 -0.1455
14190W        W29321   4.544  12.761  11.765 -0.1380  0.1572 -0.2598
14191W        W29322   3.024  17.537   0.779  0.0047 -0.4068 -0.0087
14192W        W29323  15.756   0.429  12.849 -0.1025 -0.0004  0.1804
14193W        W29324   8.802   4.703  12.282 -0.2220  0.3247  0.0964
14194W        W29325  17.772  11.655   5.350 -0.0470  0.0181 -0.0281
14195W        W29326  14.160   5.879   1.800  0.3393 -0.1685  0.0834
14196W        W29327  11.345   0.943   1.981  0.1251  0.0391  0.3645
14197W        W29328   1.554   0.489   5.105 -0.0541 -0.0607  0.2896
14198W        W29329   6.252  16.830  12.612  0.1429 -0.2076 -0.0068
14199W        W29330   8.181   1.126   1.739 -0.2350 -0.0666  0.1955
14200W        W29331   2.067  17.453   0.678 -0.1882 -0.1222 -0.1166
14201W        W29332  12.346  17.789  13.398 -0.3056 -0.1005  0.1676
14202W        W29333  13.238   3.171  11.624  0.1085  0.0028  0.0037
14203W        W29334  15.709   0.694  10.635  0.0856 -0.2359 -0.1303
14204W        W29335   3.760  14.244   0.692  0.2503  0.2061  0.0865
14205W        W29336   8.820   8.716   0.259 -0.1193 -0.0846  0.0683
14206W        W29337  14.279  11.723   3.939 -0.1434  0.0247  0.2144
14207W        W29338  15.695   3.532   1.718  0.0970 -0.2949 -0.1735
14208W        W29339  16.522   6.601  14.715 -0.2371 -0.1775 -0.0209
14209W        W29340  14.467  16.989   5.723 -0.3306  0.0555 -0.1219
14210W        W29341   0.939   2.637  11.949  0.1599  0.0661  0.0331
14211W        W29342   3.875  11.391   5.952 -0.1393 -0.4429 -0.0989
14212W        W29343   3.409  16.284   1.757 -0.0733  0.0268  0.0157
14213W        W29344   3.344  15.941  13.634  0.4219 -0.1821  0.0226
14214W        W29345  13.979   6.750  11.488  0.1384 -0.0902  0.0256
14215W        W29346  16.737   3.186   0.257 -0.1031 -0.1657 -0.1928
14216W        W29347   5.155  17.090  12.046  0.4609 -0.0015  0.0955
14217W        W29348   8.050   1.734   0.726  0.4408  0.1311  0.0823
14218W        W29349   8.363  14.175  15.784  0.1858  0.1226  0.1804
14219W        W29350  13.962   4.342   5.133 -0.0016 -0.4103 -0.0988
14220W        W29351   6.835   7.120   3.747  0.0703 -0.0483  0.0301
14221W        W29352   7.794   0.817   0.518 -0.2293 -0.0216 -0.0805
14222W        W29353  12.601   8.528  12.441  0.0235 -0.2068 -0.1952
14223W        W29354   1.879  15.936   4.619 -0.1062 -0.2419  0.1952
14224W        W29355  11.919   0.133  14.639  0.2810  0.3099 -0.2079
14225W        W29356   5.415   0.062  14.992  0.1886 -0.0041  0.0397
14226W        W29357   3.696   1.977  16.084 -0.0701 -0.0131  0.0820
14227W        W29358  15.019  11.080  13.992 -0.0217  0.2215  0.1872
14228W        W29359  11.908  11.009   2.080  0.4669  0.1315  0.0861
14229W        W29360  16.311   2.175   4.171  0.0231 -0.1773 -0.0181
14230W        W29361   2.457   0.681   0.216 -0.0306 -0.0025  0.1476
14231W        W29362  10.600   1.241   4.557  0.0993  0.2626  0.0166
14232W        W29363   7.704  10.387   3.812  0.0722 -0.2535  0.0479
14233W        W29364   8.017   4.244   4.521 -0.0343  0.1753  0.0688
14234W        W29365  15.402  13.472  14.372 -0.0733  0.0733  0.2229
14235W        W29366   9.861  17.392  12.337 -0.1756  0.0660 -0.0699
14236W        W29367  13.292   5.198   3.258 -0.0048 -0.0216 -0.3011
14237W        W29368  10.489   2.496   3.932 -0.0864 -0.2069 -0.2388
14238W        W29369   5.116   5.667   1.704  0.1511  0.0326 -0.0735
14239W        W29370   7.024  17.945  10.633 -0.2328  0.1698  0.3614
14240W        W29371   3.985  10.155  15.577  0.0589  0.2252  0.3308
14241W        W29372   7.309  15.584   3.244 -0.3013  0.0153 -0.0356
14242W        W29373  17.421   8.684  12.716  0.2815  0.0605  0.3177
14243W        W29374   9.689   1.164  15.608  0.2585  0.1989 -0.1192
14244W        W29375  17.522   2.579   1.626  0.1225  0.0781  0.0555
14245W        W29376  11.479  13.728  16.208 -0.2285  0.0699  0.1009
14246W        W29377   9.340  15.839  13.692 -0.0653 -0.0111  0.0920
14247W        W29378  17.710   4.987  16.022 -0.1886  0.3319 -0.0354
14248W        W29379   3.112  16.972  11.165  0.2579  0.0839  0.2016
14249W        W29380   8.064   7.168  10.423 -0.2455 -0.0015  0.2344
14250W        W29381   0.277  16.179  14.377 -0.1892 -0.0553  0.0419
14251W        W29382   4.534   7.908  15.967 -0.3876  0.0306  0.0181
14252W        W29383   2.719  11.341  15.296  0.0131 -0.1956  0.1525
14253W        W29384  15.048   1.197  14.248  0.0410 -0.0091 -0.3563
14254W        W29385   2.346   8.380  13.611  0.3802 -0.2278  0.4145
14255W        W29386   2.840  10.555  10.894 -0.2884  0.0235 -0.1806
14256W        W29387   4.831   6.510   3.491  0.0309  0.1216 -0.0889
14257W        W29388  17.058  15.833  12.085 -0.1786  0.2493 -0.1054
14258W        W29389   4.038  15.746  12.890 -0.3357  0.0636 -0.1187
14259W        W29390   2.400  10.269   5.256  0.0997 -0.1756  0.2948
14260W        W29391   7.936  14.647   3.741  0.3264  0.1297  0.2927
14261W        W29392  15.967  13.957   1.001  0.2347  0.2594  0.0246
14262W        W29393   8.789   5.113   0.626 -0.0111  0.2415 -0.0104
14263W        W29394  10.866  15.215  15.048  0.0566  0.2917 -0.0125
14264W        W29395   3.730   5.873   3.740  0.2936 -0.0491  0.0484
14265W        W29396  15.585   5.269   1.039  0.1319  0.1677 -0.0572
14266W        W29397   0.489   8.002   0.303  0.0400  0.2754  0.2248
14267W        W29398   5.983   8.690  15.085  0.2042  0.0037 -0.0666
14268W        W29399  15.824   3.721  11.239  0.0106  0.0633 -0.1596
14269W        W29400   5.358  12.025  15.085 -0.2790  0.0914  0.2661
14270W        W29401  11.441   7.349   2.218  0.2951  0.3532 -0.0194
14271W        W29402   8.533  18.055   2.670  0.0508  0.2553 -0.1281
14272W        W29403  16.602   0.042  14.510  0.0874 -0.1175 -0.0794
14273W        W29404  17.560  14.673   4.723  0.1354 -0.0972  0.1941
14274W        W29405   2.287   9.783   4.026 -0.2065 -0.0715 -0.0930
14275W        W29406  12.812   6.282  13.723  0.1340  0.1318  0.2019
14276W        W29407  11.864   4.526  11.796  0.0437  0.0146  0.0540
14277W        W29408   2.958   4.850   0.093  0.0841  0.0811  0.0123
14278W        W29409  16.203  16.404   0.646 -0.1033 -0.4664  0.4177
14279W        W29410   3.216   9.210   3.996  0.0143 -0.1041  0.3384
14280W        W29411   7.653  13.723   4.127 -0.3247 -0.0180  0.1472
14281W        W29412   1.313  12.908   1.664 -0.2044  0.0026 -0.0455
14282W        W29413   2.981  16.035   3.998 -0.2917  0.1206 -0.1340
14283W        W29414   9.091  12.614   4.447  0.2116  0.1350  0.1258
14284W        W29415   5.704  13.111   4.002  0.0963  0.1582  0.3351
14285W        W29416  11.204   4.256   4.789  0.0675  0.1776  0.0775
14286W        W29417  15.250   4.944   4.944  0.2709  0.2070 -0.1567
14287W        W29418   6.294   0.482   4.272 -0.0038 -0.1445  0.4710
14288W        W29419  17.005  15.276   2.205  0.0946  0.0020  0.0410
14289W        W29420   7.073   7.746  14.916 -0.1436 -0.0733 -0.0144
14290W        W29421   5.170  16.971  10.554 -0.0255 -0.1905  0.2277
14291W        W29422  11.545   8.825   5.281  0.1264 -0.0637  0.0631
14292W        W29423  17.490   9.723   2.241  0.1682  0.1037 -0.1226
14293W        W29424  12.118   3.688   0.227 -0.1622 -0.2392 -0.0567
14294W        W29425   6.981   8.257   0.892 -0.1911 -0.1507  0.2672
14295W        W29426  16.538  16.955   4.181  0.0001 -0.0608 -0.1162
14296W        W29427  16.056  13.945   0.132  0.2253  0.1220  0.1248
14297W        W29428  15.263   8.348   4.564 -0.2454  0.0691 -0.0352
14298W        W29429  16.922   7.538  14.763  0.3321 -0.1571 -0.1698
14299W        W29430   1.002   8.034   0.435  0.0817  0.4703  0.2025
14300W        W29431   8.959   8.694  15.060 -0.1964  0.4468  0.0057
14301W        W29432   4.984   4.728  16.171 -0.0777 -0.0671 -0.0090
14302W        W29433   2.642   4.814   1.973 -0.1196 -0.2051 -0.2508
14303W        W29434  11.104   1.926   3.196  0.1179  0.1467  0.1464
14304W        W29435  11.433   5.097  14.429  0.1286 -0.1784  0.0549
14305W        W29436  12.647   7.856   5.865 -0.1050 -0.0317  0.0430
14306W        W29437  16.940  10.907   4.850  0.1015 -0.2260 -0.3094
14307W        W29438  13.079   9.780   3.033 -0.3675 -0.5786 -0.0144
14308W        W29439  13.293  13.855  16.193  0.0598  0.1778  0.0309
14309W        W29440   3.460   9.865   2.506  0.2219  0.0691  0.0779
14310W        W29441   8.581   8.854   5.698 -0.1511 -0.0322  0.0696
14311W        W29442   7.943  11.149  14.139  0.1199 -0.2537  0.0433
14312W        W29443   3.263  14.316  11.224 -0.2433 -0.2257 -0.1300
14313W        W29444  11.056   8.127  11.948  0.1796  0.0727  0.1251
14314W        W29445   3.461  14.722  12.272  0.0634 -0.0551  0.1280
14315W        W29446  13.487   6.889  14.268 -0.0395 -0.0488 -0.1000
14316W        W29447  17.563   9.414   4.457  0.2000 -0.3127 -0.0107
14317W        W29448  17.218   6.484   0.504  0.1139  0.0752 -0.2703
14318W        W29449   0.474  14.067   1.453  0.2025 -0.0618  0.1892
14319W        W29450   7.575  14.563   3.413  0.3277 -0.2447  0.1195
14320W        W29451  15.393  17.656   3.920 -0.3654  0.3216 -0.1730
14321W        W29452   8.011  15.627  14.220 -0.1859  0.1475 -0.0721
14322W        W29453  13.874  15.559  16.126  0.2947 -0.1321 -0.2477
14323W        W29454  17.669  13.376  15.824  0.2599 -0.0209 -0.2007
14324W        W29455   9.733  17.031   5.888  0.2749  0.1079 -0.2501
14325W        W29456   9.417  14.555   2.776 -0.0299 -0.6194 -0.3529
14326W        W29457  11.790  13.883  13.239  0.0057  0.1561  0.2961
14327W        W29458  16.758  11.420   6.014  0.1806 -0.0988 -0.1760
14328W        W29459   6.058  12.521  15.291 -0.0090 -0.1179  0.3029
14329W        W29460   7.450   5.596   5.764  0.1079 -0.1283 -0.0285
14330W        W29461   5.894  14.603   2.884 -0.1088  0.0852  0.0921
14331W        W29462   7.029   3.945  14.916  0.1189 -0.0390 -0.1274
14332W        W29463   5.620   1.112   4.370 -0.3216  0.3163 -0.1030
14333W        W29464   2.152   8.820   0.637 -0.0582  0.0016 -0.5169
14334W        W29465   1.050   4.836   5.541  0.3291 -0.0723 -0.1127
14335W        W29466   8.277  13.074   2.392  0.0372 -0.1253  0.1095
14336W        W29467  11.211  15.303  12.295  0.3124  0.2064 -0.3411
14337W        W29468   1.501   3.845  15.919  0.0094 -0.3808  0.2392
14338W        W29469  15.356   4.938  14.903 -0.2488 -0.3884 -0.0784
14339W        W29470  15.097  16.434  16.218  0.1616 -0.3236  0.0427
14340W        W29471   5.937  12.535   2.391  0.2732 -0.1006  0.0078
14341W        W29472  13.442   0.653   0.107  0.0137 -0.0364 -0.0335
14342W        W29473   8.341  16.090   1.516  0.2111 -0.3772  0.0614
14343W        W29474  16.603  13.567   4.880  0.2894  0.0687 -0.0020
14344W        W29475  16.465  11.879  12.420 -0.0934 -0.0409 -0.1427
14345W        W29476  12.299   8.298   2.534  0.0073  0.0621 -0.0635
14346W        W29477  10.921  17.824   1.376  0.1132  0.0460  0.0472
14347W        W29478   4.587   9.381  12.389 -0.0862  0.0308 -0.2596
14348W        W29479  13.744   7.416   3.985  0.3777  0.2583  0.1107
14349W        W29480  17.452  12.382  14.049 -0.0484 -0.1052 -0.0343
14350W        W29481  15.416  16.668  12.598 -0.0727  0.1028  0.0869
14351W        W29482   5.516  15.815   3.635  0.1386 -0.2205  0.1235
14352W        W29483  13.034  13.874  12.456  0.1444  0.1462  0.3384
14353W        W29484  12.657   8.181   0.578 -0.0135 -0.1594  0.0242
14354W        W29485  10.619   5.151   3.062 -0.1175 -0.0755  0.2582
14355W        W29486   1.895   1.752  11.212  0.0557  0.1371 -0.1247
14356W        W29487   5.893  15.609  16.024 -0.0660 -0.1924 -0.1526
14357W        W29488   3.464  16.987   4.767 -0.1792 -0.0236  0.4289
14358W        W29489   3.665   9.412   2.299 -0.1620 -0.1281 -0.0096
14359W        W29490   1.147  12.782  12.587  0.2138 -0.1531 -0.2379
14360W        W29491   8.263  11.901  13.677  0.3018 -0.0661 -0.2306
14361W        W29492   5.821   8.090   4.166 -0.0356 -0.1705 -0.1420
14362W        W29493  16.740   8.146   2.646 -0.0647 -0.0109  0.0673
14363W        W29494   4.223  10.364  13.505 -0.3753 -0.0784 -0.1546
14364W        W29495   3.682  14.243   5.094  0.2093  0.0152  0.0359
14365W        W29496   4.331   2.462   0.357  0.0381 -0.0944  0.0867
14366W        W29497   4.925  10.053  15.437 -0.0046 -0.0598  0.1405
14367W        W29498   4.816   1.449   5.206 -0.0424 -0.2783  0.2613
14368W        W29499  16.673  12.927  10.641 -0.0933  0.2126 -0.1056
14369W        W29500  13.501  12.556  11.932  0.1198  0.0457 -0.0527
14370W        W29501   9.619  11.042  12.971 -0.0887 -0.3231  0.0855
14371W        W29502   7.066   6.912   4.869 -0.0361  0.1115  0.0798
14372W        W29503   5.312   5.423  13.254  0.0891 -0.0385  0.2587
14373W        W29504   6.847   2.786   2.522  0.0186  0.0939 -0.2458
14374W        W29505  13.271   2.550   3.208  0.1255 -0.1875 -0.0181
14375W        W29506   5.943  12.436   0.750  0.2240  0.2843 -0.2577
14376W        W29507  14.537   2.531  11.285  0.3153  0.0351 -0.0916
14377W        W29508   5.727  13.562   2.555  0.0507 -0.1477 -0.0750
14378W        W29509   7.925   5.635  15.141  0.0038  0.1243  0.0386
14379W        W29510   7.323  16.710  13.683  0.0399  0.0718 -0.2372
14380W        W29511   8.471   6.828  13.677 -0.3087  0.0530  0.0281
14381W        W29512  13.412   0.588   5.115 -0.2412  0.0303  0.3257
14382W        W29513   4.375  13.726   9.963 -0.0621 -0.1354 -0.1676
14383W        W29514  12.365  11.954   2.795  0.0775 -0.0266 -0.0202
14384W        W29515  10.103  14.779  13.630  0.1355 -0.1221 -0.1318
14385W        W29516   9.397   3.009   1.332  0.0356 -0.0603 -0.2467
14386W        W29517  16.601   8.146   3.753  0.2575 -0.1933 -0.0534
14387W        W29518  15.273   1.864  10.033 -0.0191  0.0276 -0.2532
14388W        W29519  14.893   7.256  15.732  0.2352  0.0198  0.1427
14389W        W29520  10.364   8.742  13.193  0.0237 -0.2133  0.0134
14390W        W29521   6.230   6.489  13.017  0.0894  0.1524 -0.1733
14391W        W29522  13.393   9.008  15.575  0.0067  0.0649 -0.3276
14392W        W29523  13.979   5.772   0.439 -0.0144 -0.3289 -0.3718
14393W        W29524  11.916   1.043   1.235  0.2890  0.0156  0.0869
14394W        W29525  15.691   1.203  15.991 -0.1247  0.1624  0.0408
14395W        W29526  14.374   4.842   3.883 -0.1552 -0.0019 -0.0457
14396W        W29527   5.640   5.978   0.427 -0.3250 -0.2732 -0.0024
14397W        W29528   5.088  15.358  12.385 -0.0867  0.0744  0.0067
14398W        W29529   3.332  16.448   4.733 -0.0784 -0.1025  0.4489
14399W        W29530   7.919   7.801   5.294 -0.1069 -0.0725  0.1198
14400W        W29531   8.391   7.973  12.576 -0.0140  0.2963 -0.1479
14401W        W29532   4.569  16.000  14.542  0.0494 -0.0822 -0.2779
14402W        W29533  11.484   8.496   0.555 -0.1201 -0.1767 -0.1868
14403W        W29534   9.584  16.324   2.680 -0.1236 -0.1093 -0.0576
14404W        W29535  14.134  11.669   5.700  0.3468 -0.2432 -0.3011
14405W        W29536   1.419  16.535  11.559  0.2628 -0.1215  0.0228
14406W        W29537  17.994   5.404   2.938 -0.1533 -0.1414  0.2729
14407W        W29538  10.708   9.089   2.000  0.0405 -0.1617  0.2545
14408W        W29539  17.627  12.504   4.109  0.1919 -0.2228  0.0010
14409W        W29540   9.358  14.604   1.010  0.1195 -0.0484  0.1019
14410W        W29541   3.207  10.819   2.181  0.1409  0.2102  0.1359
14411W        W29542   2.435   3.115  11.890 -0.2120 -0.0668 -0.0105
14412W        W29543  13.396  14.359  11.702  0.2855 -0.0780  0.0912
14413W        W29544   5.716   9.320   4.485 -0.1357 -0.1081  0.0174
14414W        W29545  11.730   2.320  15.573 -0.1309 -0.3002 -0.3421
14415W        W29546   7.453   0.723   6.104  0.0232  0.0762 -0.2339
14416W        W29547   1.112   8.961   4.536  0.1611  0.0111 -0.0169
14417W        W29548  16.405  15.393   0.740  0.0783  0.2133 -0.1131
14418W        W29549   8.244  16.886  10.347  0.2661  0.0955  0.0000
14419W        W29550  15.423   4.768   6.044  0.0627 -0.1327  0.2048
14420W        W29551   1.695   0.974   4.916 -0.0194  0.2178  0.3143
14421W        W29552  17.512   4.615   1.911  0.0721  0.0126 -0.0798
14422W        W29553   7.050   5.841  15.691  0.2394  0.0335  0.2766
14423W        W29554   1.529   8.141   0.124 -0.1196  0.1325  0.1522
14424W        W29555   6.705  13.186  16.208  0.2693  0.1029 -0.0495
14425W        W29556   9.435  15.269   0.478 -0.2166 -0.0493  0.2691
14426W        W29557  14.555   8.135  13.238  0.0338 -0.2705 -0.1280
14427W        W29558   3.589   3.865  12.630 -0.0882 -0.2280  0.3319
14428W        W29559   7.635  16.556   2.923  0.0134  0.3508 -0.1179
14429W        W29560  16.021   1.582   4.767  0.1834 -0.0578  0.1791
14430W        W29561   9.237   7.104   2.572  0.2406  0.2956 -0.0533
14431W        W29562  11.284   9.527  14.766  0.1228 -0.0670  0.0058
14432W        W29563   6.371   0.121   0.446 -0.1237 -0.0428 -0.0633
14433W        W29564  16.928  14.724   5.152 -0.1441  0.0137 -0.0072
14434W        W29565   2.562   0.660   3.775  0.3398  0.0515  0.0083
14435W        W29566   0.705  11.941   3.059  0.0277 -0.4230  0.1761
14436W        W29567   9.327   2.592  12.860 -0.2082  0.0436  0.2968
14437W        W29568  14.156  12.812  14.698 -0.1816  0.1422  0.0857
14438W        W29569   0.215  11.624   3.759 -0.2568  0.1966  0.1157
14439W        W29570  13.703  13.610   4.983  0.0286 -0.0099  0.2088
14440W        W29571   1.582   4.893   4.564 -0.1355 -0.2732  0.2387
14441W        W29572   6.828  15.472  15.795  0.2547  0.0947  0.2685
14442W        W29573   5.071  15.197   5.086 -0.4818  0.1751  0.1787
14443W        W29574  16.916  10.955  11.797 -0.1011  0.3447  0.1105
14444W        W29575   0.719  16.090  14.065  0.1367 -0.1105 -0.1553
14445W        W29576   0.363  15.256  14.107 -0.2542 -0.0593  0.0645
14446W        W29577   3.526   7.369   0.493 -0.0404 -0.0450 -0.1388
14447W        W29578   6.058   6.288  12.596 -0.1119  0.1320  0.2565
14448W        W29579  12.839   1.085   2.138  0.0876  0.0786  0.2108
14449W        W29580   0.872   2.890  13.297  0.0009  0.0035  0.1310
14450W        W29581   6.527  13.099   6.175 -0.3133 -0.0159  0.3057
14451W        W29582  13.321   1.931   4.901 -0.1470  0.0813 -0.0650
14452W        W29583   6.035   7.100   2.975 -0.0957 -0.0821  0.0142
14453W        W29584  15.437  13.323  14.889  0.0147  0.3013  0.1707
14454W        W29585   5.326  12.722  12.658 -0.0733  0.3006 -0.0658
14455W        W29586  12.495  15.356   4.064 -0.0885 -0.2790  0.0221
14456W        W29587  17.069   2.649  15.720  0.0439 -0.0823  0.0317
14457W        W29588  16.854   7.489  11.866 -0.1005  0.0131  0.1250
14458W        W29589  16.371   7.036  15.796 -0.4996 -0.1932 -0.1148
14459W        W29590  11.402   4.505  15.036  0.0640 -0.0008 -0.0970
14460W        W29591  10.511  10.035   1.416 -0.2763  0.4082  0.1546
14461W        W29592   9.998   8.483  13.455 -0.0274  0.1093 -0.0006
14462W        W29593   6.519  13.400  10.691 -0.3199  0.0786 -0.0647
14463W        W29594   0.712   8.521   5.208  0.1189  0.0727  0.0954
14464W        W29595   9.929  16.814   4.138  0.1520  0.1248 -0.2236
14465W        W29596  11.461  10.756   1.276 -0.0425  0.2288 -0.1174
14466W        W29597   5.503   2.932   1.735  0.0943  0.0379 -0.1061
14467W        W29598   1.637   1.445  12.086  0.0140 -0.2897  0.1809
14468W        W29599  16.473   4.008   1.822  0.2864  0.2138 -0.1209
14469W        W29600  11.166  17.135   5.522  0.1899  0.0508  0.0136
14470W        W29601   8.094  10.167  11.565 -0.0222  0.1190  0.0574
14471W        W29602   1.356   3.425  14.630 -0.0480  0.0708  0.2061
14472W        W29603   0.945   5.007  12.358 -0.0374 -0.1315  0.0966
14473W        W29604   6.666  13.924  11.268 -0.2057  0.3091 -0.1553
14474W        W29605  10.336   8.908   3.262 -0.0979  0.0583  0.0898
14475W        W29606  16.076  14.436   4.763 -0.0276  0.1412  0.2197
14476W        W29607  13.956   1.758  15.184 -0.3144 -0.1236  0.0461
14477W        W29608  15.473   4.662  12.249 -0.1405 -0.2671  0.0218
14478W        W29609  16.913   8.639   0.268 -0.3243  0.2127  0.1871
14479W        W29610  11.086  11.274   3.118 -0.2327 -0.1226 -0.1080
14480W        W29611   0.327   5.937   5.558 -0.1123  0.0591  0.0777
14481W        W29612  17.069  17.701   3.903  0.2161  0.0841 -0.2463
14482W        W29613   3.362  12.258  12.950 -0.0159 -0.1512 -0.0309
14483W        W29614  15.744   0.334   4.308 -0.1313 -0.2559  0.1597
14484W        W29615  12.582   5.126  11.877  0.0347 -0.0671  0.1357
14485W        W29616   8.591  13.875  13.816  0.0920  0.2053  0.1759
14486W        W29617  11.781  10.253  12.200 -0.0940 -0.0863 -0.1969
14487W        W29618   5.378   4.893   4.705 -0.0211 -0.1133 -0.1478
14488W        W29619   6.777  12.972   1.319  0.0517  0.0618  0.0692
14489W        W29620   4.844  11.856  13.810  0.0099  0.1358 -0.1256
14490W        W29621   6.234   4.336  14.589 -0.0758 -0.2278 -0.2208
14491W        W29622   4.237   9.928  13.211 -0.2292  0.0498  0.3639
14492W        W29623   5.290   2.390   4.154 -0.1006 -0.3044  0.2056
14493W        W29624   9.585   4.689  15.815  0.0881 -0.2061  0.2126
14494W        W29625   2.207  10.390   2.838  0.1061 -0.2445  0.1846
14495W        W29626   2.740  15.297  14.009  0.0125  0.1509 -0.2034
14496W        W29627  13.554   3.425  14.871  0.1142 -0.0250  0.2300
14497W        W29628  15.418   4.635   5.527 -0.0469  0.1927  0.1160
14498W        W29629   2.558   6.129   2.085 -0.1298  0.0068  0.0610
14499W        W29630   0.606   6.268   4.797  0.1045  0.0313  0.0298
14500W        W29631  10.077  10.720   5.127 -0.1063  0.0939  0.3844
14501W        W29632  10.654  17.859   0.080 -0.0915  0.1670  0.0485
14502W        W29633  10.952   7.332   1.435 -0.0621 -0.1145  0.0012
14503W        W29634   0.952  13.443  13.874  0.0219  0.0803  0.0159
14504W        W29635  17.236  10.285  12.606  0.2651 -0.1709 -0.0809
14505W        W29636  16.836   7.192  14.345  0.0192 -0.0694 -0.0404
14506W        W29637   3.183  17.929  11.437 -0.0968  0.2278 -0.3121
14507W        W29638   8.208   9.477  14.015  0.3764 -0.1689  0.0063
14508W        W29639   4.249   2.314   5.082  0.1512 -0.0593 -0.0898
14509W        W29640   2.241   4.864  13.988  0.0142 -0.1514 -0.2069
14510W        W29641   3.038  14.135  10.029 -0.1796  0.2201 -0.0269
14511W        W29642  14.068  11.066   1.797 -0.2002  0.0428  0.2068
14512W        W29643   3.974   3.888   4.351  0.0037  0.4439 -0.2012
14513W        W29644  17.165  12.662   1.626  0.3273 -0.1688  0.1297
14514W        W29645   6.222  13.320   2.949 -0.0221 -0.0874  0.4785
14515W        W29646   7.764  13.314   3.118 -0.0687  0.0412 -0.0075
14516W        W29647   2.941   7.811  16.178  0.1162  0.1765  0.2706
14517W        W29648  16.445   4.478   1.599 -0.2523 -0.1819 -0.1247
14518W        W29649   3.792   3.129   3.073  0.1045 -0.5176 -0.2585
14519W        W29650   7.522  15.932   5.496  0.1628  0.3246  0.0194
14520W        W29651   0.338   4.226  12.270 -0.0133  0.1653 -0.1194
14521W        W29652  16.154   1.854   3.236  0.0923 -0.0256  0.2812
14522W        W29653   5.421  15.034   2.058 -0.1808 -0.0080 -0.1900
14523W        W29654   1.460  17.388  12.851  0.1398  0.1159  0.2695
14524W        W29655   1.347   6.951  15.969  0.0564  0.1502  0.0302
14525W        W29656  13.185  14.908  14.432 -0.0730  0.0538 -0.3873
14526W        W29657   6.408   0.879   2.835  0.0688 -0.3573 -0.1674
14527W        W29658   3.553  13.135   2.302 -0.0337 -0.1116 -0.1765
14528W        W29659   3.068   6.061   2.041 -0.0468 -0.0782 -0.1025
14529W        W29660   6.731  16.155   0.547 -0.0420  0.2459 -0.2944
14530W        W29661   5.811  13.625  11.091  0.1589 -0.1659  0.0084
14531W        W29662  15.834  10.001  16.067 -0.2798  0.4591 -0.0289
14532W        W29663   4.259   3.910   3.161  0.0521 -0.1468 -0.3449
14533W        W29664   5.352  16.314   3.682  0.3092 -0.0810  0.1874
14534W        W29665  14.557   4.049  11.402 -0.2045 -0.4049  0.3056
14535W        W29666   4.443  16.533   3.395  0.2564  0.0503 -0.0875
14536W        W29667  15.781   6.608   3.652  0.2745  0.0764  0.0563
14537W        W29668  13.877   7.143  16.156  0.0074  0.2101 -0.4260
14538W        W29669   8.679   8.843  11.605  0.1069 -0.2108  0.1337
14539W        W29670  16.632  16.286  11.186  0.1177 -0.2002  0.0258
14540W        W29671   5.286  14.685   3.741 -0.2389  0.1088  0.2016
14541W        W29672  16.430   8.649  14.274  0.0648 -0.0157 -0.1090
14542W        W29673  12.889  13.961   3.570  0.1518  0.2912 -0.0302
14543W        W29674   1.134   2.054   1.988  0.3561 -0.0801  0.1696
14544W        W29675  11.988  13.782   1.140 -0.1487 -0.1201 -0.0991
14545W        W29676  15.753   5.083   1.815  0.0676 -0.1025  0.1269
14546W        W29677   6.218  10.075  12.764  0.0087  0.0859 -0.0055
14547W        W29678  13.772  15.367  13.228  0.1491  0.0251  0.2399
14548W        W29679   8.919  14.014  12.684 -0.0073  0.3739  0.0446
14549W        W29680  16.409   3.814   3.933 -0.0948  0.2390 -0.0602
14550W        W29681   2.128  13.710   5.178 -0.0670  0.0857  0.1041
14551W        W29682  11.484  13.268   5.350 -0.1456 -0.0940 -0.0439
14552W        W29683   9.248  15.082  14.613 -0.0424  0.6213 -0.2876
14553W        W29684   2.337   7.677   1.926 -0.2034 -0.1585 -0.0341
14554W        W29685  11.825  16.727  11.070  0.0555  0.0249  0.0712
14555W        W29686  12.932  12.293   3.169 -0.0547  0.0385  0.2024
14556W        W29687   6.275  16.851  13.590 -0.0795 -0.2829 -0.2403
14557W        W29688   1.795  11.319   5.435  0.0771 -0.0335  0.0750
14558W        W29689   8.509  15.306   3.622  0.1068  0.2552  0.0759
14559W        W29690   7.844  11.113   2.093 -0.1733 -0.1322  0.1610
14560W        W29691  16.549   9.135  15.221  0.0907  0.1053 -0.1966
14561W        W29692  15.540  12.251   4.822 -0.0964  0.1224 -0.1859
14562W        W29693   4.263   6.831  11.333  0.2827 -0.2211  0.2653
14563W        W29694   8.531   6.542   5.707 -0.0240 -0.0345 -0.3827
14564W        W29695  11.569  11.580   2.975 -0.1001  0.0880 -0.3007
14565W        W29696   7.435   3.601  12.971  0.0279  0.0392  0.1674
14566W        W29697  13.275  16.554  16.063 -0.0270 -0.0003  0.1687
14567W        W29698   6.223  10.854  15.592 -0.1949  0.2777  0.0090
14568W        W29699  16.775  16.769  14.882  0.2487  0.1956  0.2938
14569W        W29700   1.807  16.409   4.422 -0.3085  0.1200  0.1446
14570W        W29701  10.676  13.260   4.104  0.0319  0.0972  0.0431
14571W        W29702   1.270   9.308   0.651 -0.1305 -0.1179  0.1483
14572W        W29703   6.190   5.537   4.901  0.0051 -0.1936 -0.2371
14573W        W29704   2.796  17.975  10.972 -0.5818 -0.1542 -0.2215
14574W        W29705   2.673   6.393   3.393 -0.3872 -0.1521 -0.1444
14575W        W29706  15.537   0.323   1.226 -0.2004  0.2163 -0.0292
14576W        W29707  10.796  13.245  14.474 -0.1222 -0.1310 -0.0967
14577W        W29708   8.571   4.805   4.950 -0.0015  0.1018 -0.4168
14578W        W29709   3.930   0.855  15.600  0.3879 -0.1383  0.2968
14579W        W29710   5.752  11.856   3.276  0.1230 -0.1519  0.2228
14580W        W29711  10.776  13.840  12.309  0.1089 -0.1603 -0.2137
14581W        W29712  13.255   2.680   1.269  0.1481  0.0361  0.2162
14582W        W29713   0.964   6.102   5.605  0.0251  0.1707 -0.3832
14583W        W29714   3.427   5.251  14.507  0.2007 -0.0409 -0.2080
14584W        W29715  16.364   8.250  11.458  0.0519 -0.0955  0.0887
14585W        W29716  16.330   6.872   0.239  0.0033 -0.4120  0.1537
14586W        W29717  10.319  11.775   1.775 -0.2803  0.3796 -0.1602
14587W        W29718   4.183   5.848  15.865 -0.1804 -0.2424  0.0364
14588W        W29719  13.804  12.212   3.598  0.0221 -0.0336  0.3976
14589W        W29720  13.068   9.977  14.713  0.2618  0.2004 -0.0947
14590W        W29721  11.863   6.089  12.595 -0.0635  0.2358  0.2297
14591W        W29722   0.162   0.213  11.764 -0.3551 -0.1956  0.0951
14592W        W29723   6.841   7.127   5.291 -0.2748  0.1490 -0.2885
14593W        W29724   1.177   8.304   2.908  0.1161 -0.0037 -0.0311
14594W        W29725   3.894   1.092  15.008 -0.2905  0.1253  0.1471
14595W        W29726   1.773  15.854   3.788  0.2412 -0.3161  0.0225
14596W        W29727  11.872   2.492   2.848 -0.5389 -0.0345 -0.1757
14597W        W29728  13.077  13.985   4.376  0.1234  0.2029 -0.3870
14598W        W29729   6.709   2.715  12.322 -0.2695 -0.0932 -0.0512
14599W        W29730  12.745   5.088   4.556  0.1754 -0.1098 -0.0858
14600W        W29731   1.580   6.430   2.360 -0.2655  0.2366  0.1742
14601W        W29732  10.508  13.060   3.530  0.1503 -0.0002 -0.1661
14602W        W29733   3.259  10.085   3.905  0.0918  0.4989  0.3931
14603W        W29734   7.461   0.000   2.822 -0.0466 -0.2054 -0.1533
14604W        W29735  12.759   7.608  14.217 -0.4218 -0.2160  0.0628
14605W        W29736   8.872  11.994   3.089  0.1136  0.4228 -0.1598
14606W        W29737   1.944   0.362   3.130  0.3941  0.1215 -0.0679
14607W        W29738  15.663   5.513  13.373  0.0951 -0.0931 -0.2733
14608W        W29739   7.573  10.365  11.522  0.2099 -0.1236  0.0279
14609W        W29740  10.279   4.979   0.415  0.0462 -0.2192  0.1528
14610W        W29741   6.912   2.123   2.350 -0.2129  0.1118  0.1933
14611W        W29742   4.627  12.497  14.995 -0.1075  0.0928 -0.0275
14612W        W29743   3.730  15.089  13.436  0.3952  0.1863 -0.1285
14613W        W29744  16.833  11.149  16.211 -0.2304  0.2643  0.4243
14614W        W29745   6.685   1.188   5.297 -0.0116  0.1170 -0.0926
14615W        W29746  17.059  11.383  15.318 -0.3776 -0.2828 -0.0613
14616W        W29747   6.898  15.778  12.839  0.3032  0.2495  0.2017
14617W        W29748   4.601   5.502  16.246  0.1910  0.0424 -0.1340
14618W        W29749   1.444   3.715   0.290  0.0029 -0.1110 -0.0020
14619W        W29750   6.954   3.959  12.735  0.0140  0.4109 -0.2589
14620W        W29751  14.464  11.999  11.547 -0.0378  0.2192 -0.0004
14621W        W29752   2.790  13.568  15.555  0.2810 -0.2026 -0.0554
14622W        W29753  10.278  13.987   4.806  0.0475  0.2195 -0.0375
14623W        W29754   9.948  15.258  13.475 -0.0413  0.0134  0.1064
14624W        W29755   8.453   5.355   3.684  0.0012 -0.2340 -0.3195
14625W        W29756  12.027   9.411  12.701  0.1678 -0.0613  0.3182
14626W        W29757  16.858  10.875   2.170 -0.1781 -0.0082  0.0999
14627W        W29758   2.430  10.241   0.385 -0.0110  0.2416 -0.0395
14628W        W29759   3.511   1.177  11.946 -0.0019  0.1356  0.1118
14629W        W29760   2.891   8.403  14.795 -0.0033  0.3408  0.1554
14630W        W29761  15.037   8.973   2.853 -0.0820  0.2931  0.3417
14631W        W29762   6.922   5.067   5.314 -0.4165 -0.1005 -0.0579
14632W        W29763   6.488   5.358  16.176  0.3666 -0.2024  0.2463
14633W        W29764   3.442   4.455   3.066 -0.1184  0.0887  0.1858
14634W        W29765   5.180   3.083   0.302 -0.0039 -0.1916  0.0577
14635W        W29766  15.703   2.172  14.973  0.1167 -0.0940  0.0984
14636W        W29767   5.124   4.371   0.780 -0.0723  0.1083  0.0673
14637W        W29768   0.881   0.697  16.107 -0.2563 -0.3833 -0.2055
14638W        W29769  14.114  17.196  14.796 -0.0529  0.1529  0.2934
14639W        W29770  12.363  15.617   5.203 -0.1472 -0.5297  0.0041
14640W        W29771   6.190   8.540   3.887  0.2342 -0.0292  0.1740
14641W        W29772  10.318  15.405  12.350 -0.2494 -0.0755 -0.0679
14642W        W29773   9.520   0.530   4.511  0.0890 -0.2058  0.0024
14643W        W29774   2.104  13.133  15.208 -0.2082 -0.1295  0.0069
14644W        W29775  16.779  16.121   1.937  0.3026 -0.0339 -0.2964
14645W        W29776  10.934   8.944   5.373 -0.1267 -0.2703 -0.2756
14646W        W29777  13.548   2.278   3.690  0.0821  0.2158  0.0433
14647W        W29778  12.232  13.934   5.795 -0.1168  0.3730 -0.4609
14648W        W29779  15.871  17.026  12.017 -0.1480 -0.2108  0.0270
14649W        W29780   9.433  17.896  11.745  0.0940  0.0275  0.1629
14650W        W29781   6.826   2.511  13.334  0.2398 -0.0567  0.1513
14651W        W29782   3.664  11.034  13.928 -0.1454 -0.1404 -0.1894
14652W        W29783  14.118  11.756   3.425 -0.3294 -0.2745 -0.2730
14653W        W29784   4.145  13.300   0.492  0.2419 -0.2680  0.0959
14654W        W29785   5.110   3.140   4.361  0.0015  0.0007  0.2622
14655W        W29786   6.189   6.255   2.594 -0.2767 -0.0438 -0.1854
14656W        W29787  11.133   2.712   1.580 -0.1410 -0.0341 -0.1121
14657W        W29788  11.540   6.188   2.724  0.3768  0.0224  0.0921
14658W        W29789  10.953  16.706   5.676  0.2052  0.0125 -0.0662
14659W        W29790   0.443  12.152  12.298  0.0049  0.0776  0.0349
14660W        W29791  14.041  16.705  14.903 -0.2070  0.1439 -0.0278
14661W        W29792   7.779  15.048  11.585  0.1888  0.0118 -0.0350
14662W        W29793  17.390  15.241  13.790  0.3995  0.0268 -0.0955
14663W        W29794   6.508   0.988   0.662  0.1376  0.2355 -0.0302
14664W        W29795   9.227  15.598  10.985 -0.1955  0.2819 -0.2096
14665W        W29796  13.031   1.460  15.305  0.0372  0.1234 -0.1413
14666W        W29797   5.232  10.757  14.997  0.2405  0.0403  0.4824
14667W        W29798   0.388   2.608  15.455  0.0235 -0.1182 -0.2338
14668W        W29799  12.545   8.970   0.896  0.3435  0.0897  0.0564
14669W        W29800   6.941  14.423  15.699  0.0748 -0.1287 -0.0330
14670W        W29801   9.102   0.254   3.552  0.0200 -0.3115 -0.1652
14671W        W29802  10.961  14.594  12.952  0.0691 -0.1199  0.0833
14672W        W29803  11.417   3.397   2.342  0.0214  0.2295  0.1362
14673W        W29804   8.589   1.501   5.723  0.0599 -0.2034  0.0320
14674W        W29805   0.628  15.457   9.911 -0.0428 -0.0282 -0.0351
14675W        W29806   6.005   3.920  12.680  0.1370  0.2491 -0.0180
14676W        W29807   2.726  11.601   0.938  0.0896 -0.1198  0.0313
14677W        W29808   5.205  14.225  12.586 -0.0045 -0.0469  0.3236
14678W        W29809   9.134   8.734  12.390 -0.1118  0.1711 -0.1528
14679W        W29810   8.819   7.073   5.292 -0.1120 -0.1202  0.1804
14680W        W29811  13.505  16.844   3.653 -0.0344  0.3013 -0.0940
14681W        W29812   6.452   8.157   1.985  0.0935 -0.0338 -0.2337
14682W        W29813  16.561  11.877   5.722 -0.0020  0.4053 -0.1108
14683W        W29814  14.396   8.580  13.445  0.1094 -0.1788  0.0720
14684W        W29815   3.964  10.881   9.910  0.1432 -0.0088  0.0274
14685W        W29816  16.376  17.121  12.340  0.1723 -0.3570  0.0350
14686W        W29817   1.173   4.983  14.619  0.0414  0.4641 -0.1690
14687W        W29818  11.361   1.499  12.659 -0.0022 -0.1358  0.0655
14688W        W29819  12.262   9.106   2.064  0.0734  0.3421 -0.2008
14689W        W29820   4.687  10.331  12.584  0.0094 -0.0576  0.0102
14690W        W29821  10.527  11.171  13.650  0.0368 -0.1011 -0.0261
14691W        W29822   2.003   4.355   3.344  0.0684 -0.3721 -0.0338
14692W        W29823  16.812   4.506  11.549 -0.1132 -0.1892 -0.0319
14693W        W29824   5.628  10.951  13.404  0.1590 -0.0063  0.1919
14694W        W29825   4.269  15.651   4.891  0.0292 -0.1300 -0.3468
14695W        W29826   3.027   6.960   5.069  0.3236  0.1587  0.0595
14696W        W29827   3.108   1.708   3.725  0.2263  0.2401 -0.0371
14697W        W29828  11.170  16.592  11.481 -0.2127 -0.0953  0.0913
14698W        W29829   7.675   3.265  11.376 -0.2014  0.1808 -0.1889
14699W        W29830   6.769  15.921  14.942  0.0085 -0.3194 -0.0341
14700W        W29831   0.534   2.940   1.301  0.3172  0.0052 -0.1211
14701W        W29832  10.067   9.430   5.275  0.0365 -0.4040 -0.2646
14702W        W29833  10.506  17.718  15.873 -0.1923  0.1377 -0.2202
14703W        W29834  11.644   9.547   3.982  0.1223 -0.0172 -0.0669
14704W        W29835  14.736  16.293   5.132 -0.1273  0.2059  0.0410
14705W        W29836  14.263   1.938   0.385  0.0302 -0.2673 -0.1686
14706W        W29837   7.255   2.836  15.619  0.1749  0.1380  0.0575
14707W        W29838  16.849   6.769   0.299 -0.0810 -0.0481 -0.0563
14708W        W29839   3.660   7.454  15.822  0.2248  0.2509  0.2512
14709W        W29840   4.483   5.617  13.282 -0.1029 -0.0205 -0.0905
14710W        W29841   5.191   0.364  15.306  0.0063 -0.0463 -0.0782
14711W        W29842   6.012  11.548   3.574 -0.1172  0.1122 -0.1810
14712W        W29843  11.810  14.853   4.641 -0.1462  0.0910  0.2830
14713W        W29844   1.522  11.396  13.743  0.0456 -0.1931  0.1613
14714W        W29845  15.226  13.304   3.013  0.4386  0.1286  0.1456
14715W        W29846   2.768  14.602   1.840 -0.0164 -0.0614 -0.0424
14716W        W29847   3.652   7.211  12.006 -0.1067 -0.1224 -0.2321
14717W        W29848  15.050   9.193   2.017 -0.1728  0.1689  0.0956
14718W        W29849   2.907  12.555   0.970  0.0803 -0.0786  0.0386
14719W        W29850   9.923   5.326   3.683 -0.3716  0.2403 -0.0598
14720W        W29851  10.677  13.605   3.692 -0.4163 -0.0528  0.0607
14721W        W29852   6.309   0.767  15.422  0.0400  0.1117 -0.0298
14722W        W29853  16.234   9.185  12.054 -0.1025  0.0019 -0.3235
14723W        W29854  17.691   8.160  16.135 -0.1214 -0.1491  0.2047
14724W        W29855   0.915   9.437   4.493 -0.1022  0.1608  0.0846
14725W        W29856   4.063   0.144  11.253  0.3322 -0.2870  0.0774
14726W        W29857   3.698  14.925  15.762  0.1970 -0.0594 -0.3886
14727W        W29858   9.081  13.103  12.744  0.0463  0.0245  0.2082
14728W        W29859   7.052  14.584   2.179 -0.0415  0.2080 -0.4485
14729W        W29860  17.792  11.957   1.403  0.1645 -0.3027  0.1900
14730W        W29861  14.784   7.098   2.234 -0.3530 -0.0171  0.0996
14731W        W29862   4.334  16.176   5.818 -0.0510  0.0043 -0.0385
14732W        W29863   7.534   8.019  14.969 -0.1752  0.3793 -0.1745
14733W        W29864   7.696   8.506   3.546 -0.0746 -0.2245 -0.1330
14734W        W29865   4.948   9.435   3.660 -0.1096  0.1125 -0.2132
14735W        W29866  14.815  10.886  14.939  0.2776 -0.1761  0.0555
14736W        W29867  11.165  15.105  11.728  0.0574  0.3709 -0.1221
14737W        W29868  14.979  16.363   9.886 -0.0600 -0.0825  0.0792
14738W        W29869   9.921  12.953  12.930  0.1777  0.0453 -0.0219
14739W        W29870   5.839  11.328   3.060 -0.4089 -0.0602  0.0506
14740W        W29871  12.077  14.317   3.322 -0.0645  0.0265  0.1443
14741W        W29872   8.401  13.497   0.790  0.2044 -0.1930  0.2413
14742W        W29873   7.258   0.957   4.376 -0.1382  0.0580 -0.0696
14743W        W29874  16.615   7.372   2.365 -0.1702  0.1687  0.2024
14744W        W29875  13.367   9.713  12.836  0.0712  0.1733 -0.4952
14745W        W29876   7.936   8.614   2.653 -0.0106 -0.0016  0.1790
14746W        W29877  14.521  16.267   2.541 -0.0567 -0.3312 -0.2370
14747W        W29878   0.518   3.533   3.551  0.2420  0.1637 -0.0730
14748W        W29879   1.354   6.823  12.376 -0.1834  0.2074  0.2014
14749W        W29880  17.440   4.502   1.406  0.2343 -0.0893 -0.0976
14750W        W29881   4.030  16.523  10.877  0.0238  0.0280  0.3986
14751W        W29882   2.004   9.452   4.429  0.0206 -0.0225  0.0921
14752W        W29883   1.955  15.215  11.485  0.0635  0.0396  0.2886
14753W        W29884  11.399  14.454   2.920 -0.0325  0.0638 -0.1938
14754W        W29885  14.825   0.140   1.458  0.1879 -0.4985 -0.1506
14755W        W29886  16.975  16.933  10.705 -0.1346 -0.2197 -0.0871
14756W        W29887   6.743   9.543  11.319  0.1358 -0.0031  0.0195
14757W        W29888   1.039   9.482  13.369 -0.0307  0.0329 -0.1717
14758W        W29889  16.718   0.948  14.190 -0.1310 -0.1601 -0.0593
14759W        W29890   0.389  11.276  14.471  0.2701  0.0243  0.0011
14760W        W29891   1.555  17.118  11.055  0.0918 -0.1374 -0.0235
14761W        W29892   0.148  17.354   4.044  0.1228  0.0466 -0.0002
14762W        W29893   5.421  12.251   5.979 -0.0461  0.2372 -0.1938
14763W        W29894  13.428  11.359  15.631  0.3040 -0.0113 -0.2798
14764W        W29895  17.982  15.253   3.560 -0.2664  0.1024 -0.3189
14765W        W29896  14.502   4.899   0.203 -0.0965  0.0341  0.0612
14766W        W29897   2.828   9.287  13.833  0.2810 -0.2065  0.0576
14767W        W29898   2.190   6.054  11.669  0.1754 -0.1215 -0.3740
14768W        W29899   4.899   0.456   0.872  0.1371 -0.1071 -0.0475
14769W        W29900   1.078  17.292  15.096 -0.2670 -0.0266 -0.2713
14770W        W29901   1.820   5.914  10.900 -0.0209  0.0252  0.2268
14771W        W29902  14.769  14.299  13.681  0.0025  0.1655  0.0202
14772W        W29903   9.983   8.635   0.569 -0.2150  0.1420 -0.4667
14773W        W29904  16.706   2.695   1.093  0.0979 -0.1858  0.0153
14774W        W29905   8.519   7.058   2.948 -0.0057 -0.0445  0.1586
14775W        W29906   7.548   9.034   6.170  0.1775  0.1377 -0.0957
14776W        W29907   2.588   0.154  12.931 -0.1311 -0.2874 -0.0354
14777W        W29908  14.376  14.275   5.498 -0.0745  0.0704 -0.1310
14778W        W29909   0.799   6.219   3.018 -0.0302 -0.0721  0.3369
14779W        W29910  15.518  13.658   2.442  0.1505 -0.1594 -0.4226
14780W        W29911  18.013  18.062   3.513 -0.1080 -0.2307 -0.1475
14781W        W29912  14.015  17.815   2.121 -0.2896  0.2035 -0.3394
14782W        W29913   9.072  10.712   0.539  0.1322  0.0790 -0.2670
14783W        W29914  10.424  15.809   4.722 -0.1881  0.1683 -0.1264
14784W        W29915   2.579  11.206   4.710  0.1459  0.1703  0.1837
14785W        W29916   2.101   0.995  15.562  0.0798  0.1324  0.2626
14786W        W29917   1.887  10.818   1.919 -0.0397 -0.3307  0.0704
14787W        W29918   1.691  16.284  12.585  0.1582 -0.2395 -0.0720
14788W        W29919  16.544   2.102   1.085 -0.0525  0.2137  0.0399
14789W        W29920   4.002  15.407   3.373  0.1753  0.2345  0.1118
14790W        W29921   0.493   9.615   2.794  0.2265  0.0106 -0.2797
14791W        W29922   1.344   4.878   0.625  0.0337  0.1385  0.0989
14792W        W29923   5.681  17.237  12.045 -0.0277 -0.0478  0.1231
14793W        W29924  15.650   6.450   1.056  0.0076  0.0233 -0.0069
14794W        W29925   4.608  10.022  16.035  0.0716 -0.0573 -0.2638
14795W        W29926  14.105  15.620   3.163  0.2970 -0.1578  0.2374
14796W        W29927  14.350   9.001  13.839 -0.1683 -0.1130  0.1790
14797W        W29928  12.142  13.210  15.713  0.2259  0.2137 -0.0458
14798W        W29929   0.980   0.952  12.477  0.3781 -0.1512 -0.1093
14799W        W29930  14.324   7.283   3.042 -0.2247  0.3347  0.0927
14800W        W29931  14.931  16.043   3.310 -0.0788 -0.0137 -0.0269
14801W        W29932   5.615  17.136   1.763  0.3103 -0.1338 -0.0368
14802W        W29933   6.283  12.147  11.070  0.0826 -0.1853  0.1045
14803W        W29934   2.296  13.442   1.295  0.0702  0.1555  0.0394
14804W        W29935  14.534   7.793   3.085  0.2344  0.1613 -0.1441
14805W        W29936   8.080  15.611  11.135  0.2742  0.0474 -0.0913
14806W        W29937   2.858  17.784  15.456 -0.0299 -0.0604  0.4046
14807W        W29938   0.644  17.205  12.845 -0.0467 -0.1094 -0.2558
14808W        W29939   2.344  14.271  12.861  0.2092 -0.0799  0.1049
14809W        W29940   6.869  17.715   4.386  0.0895  0.2683 -0.1818
14810W        W29941   1.445   2.211   0.172 -0.1412  0.2231  0.2124
14811W        W29942  11.531   9.842   2.201 -0.2189 -0.0089 -0.1053
14812W        W29943  17.282   2.480   0.919 -0.3525 -0.1809  0.0163
14813W        W29944   0.963  15.553  11.899  0.1591  0.0030 -0.1286
14814W        W29945   6.293  12.896   4.313 -0.3320  0.0602 -0.1109
14815W        W29946   3.554  12.112  11.036  0.0387 -0.1369  0.1076
14816W        W29947   7.037  11.942   3.746 -0.0402 -0.3361  0.1101
14817W        W29948  17.949   0.108   2.356 -0.1911 -0.0350  0.0446
14818W        W29949   4.134  10.758  13.057 -0.0914 -0.3111 -0.1120
14819W        W29950   4.391   2.819  15.331  0.1980  0.1756  0.0305
14820W        W29951   8.785   4.873  11.061 -0.0591  0.1129  0.0583
14821W        W29952   4.566   1.558  12.343  0.3132  0.0915 -0.2923
14822W        W29953   0.939   7.417  11.891  0.0519 -0.1952  0.1007
14823W        W29954   2.863   9.604  11.106 -0.1815 -0.0234  0.0632
14824W        W29955   6.830  16.813  13.755  0.2823 -0.4723  0.0911
14825W        W29956   2.631   4.672  11.148 -0.1102 -0.1650  0.1223
14826W        W29957  15.587  13.847   4.119 -0.3102 -0.4471  0.0386
14827W        W29958   0.823  17.991   1.564  0.2919 -0.2182  0.1211
14828W        W29959   6.332  12.506  14.336 -0.0980 -0.1275 -0.0863
14829W        W29960   8.158  13.560   6.258  0.1125 -0.0081 -0.1027
14830W        W29961  14.037  13.109   3.914 -0.0974  0.2174  0.0883
14831W        W29962   5.083   3.886   1.490 -0.1004  0.1693  0.1796
14832W        W29963  11.137  12.224  14.956  0.5776 -0.1370  0.0585
14833W        W29964   3.176   0.204  12.339 -0.2968 -0.0622  0.0114
14834W        W29965   0.505  11.917   2.077 -0.0496 -0.2383 -0.0554
14835W        W29966  12.174   8.195  13.889  0.2793 -0.1765 -0.1032
14836W        W29967  16.941  13.602   5.391 -0.0790  0.1512  0.3481
14837W        W29968  15.460  13.096  13.501 -0.1134 -0.3732  0.1348
14838W        W29969   8.507  15.804   2.942  0.2382  0.0046 -0.0561
14839W        W29970   5.788  13.785   4.583 -0.0400 -0.1904 -0.0312
14840W        W29971   7.206   7.943   1.215  0.2379  0.3787  0.1178
14841W        W29972   2.122  12.853   0.710  0.2461 -0.0239 -0.3377
14842W        W29973   1.431  14.536  10.475 -0.1479  0.3010 -0.4380
14843W        W29974  17.516   1.196  12.604 -0.0306  0.2129  0.1541
14844W        W29975  11.687  13.854  15.296  0.1185 -0.2552 -0.0756
14845W        W29976   4.330   9.283   2.916  0.2524 -0.3340 -0.0827
14846W        W29977  15.181  12.967  14.533  0.0841  0.0571 -0.1083
14847W        W29978  15.802   3.086   2.886  0.1043 -0.1379  0.0895
14848W        W29979  18.062  16.081   9.952 -0.1999 -0.2372 -0.1759
14849W        W29980  14.368  12.891  12.013  0.1422 -0.0211  0.0602
14850W        W29981   8.599   9.784  10.777 -0.2211 -0.1450  0.1449
14851W        W29982   0.217   1.207   4.274 -0.4369  0.0429 -0.0466
14852W        W29983  11.477  10.550  12.761 -0.2843  0.0733  0.0085
14853W        W29984  12.885   1.505  12.419  0.1087 -0.0840  0.0775
14854W        W29985  11.184  17.477  11.944 -0.0693  0.3094  0.4366
14855W        W29986   8.138  10.007  14.772 -0.0150  0.2165 -0.0155
14856W        W29987   5.647  15.477  15.602 -0.1486 -0.0649 -0.3031
14857W        W29988   5.723  11.639  15.929 -0.0398  0.0301  0.0915
14858W        W29989   4.515  17.788   2.333  0.1240 -0.0205 -0.2436
14859W        W29990  10.272  12.928   5.665 -0.0726 -0.1822  0.0535
14860W        W29991  11.856  17.648  13.213 -0.1361 -0.1370 -0.3834
14861W        W29992   3.279  13.031  10.956  0.1975 -0.2328  0.0720
14862W        W29993   6.522   8.713   2.984 -0.1593 -0.3467 -0.0732
14863W        W29994  12.860  17.349  12.902 -0.4858  0.2125  0.2824
14864W        W29995  16.442   1.783   2.880 -0.0103  0.0733  0.0776
14865W        W29996   8.231   1.146   5.587  0.0067  0.0682  0.0628
14866W        W29997  13.348   9.380  14.836 -0.0267 -0.1050 -0.2072
14867W        W29998   0.972  11.499  10.690  0.0690 -0.0108  0.2296
14868W        W29999   3.518  17.368  16.062  0.0798  0.4644  0.3091
14869W        W30000  10.188   7.916   3.461  0.0874 -0.1175  0.0542
14870W        W30001   1.915  17.888  11.376  0.1563 -0.0057 -0.0282
14871W        W30002  10.682   6.050  14.192 -0.0430 -0.0463 -0.2528
14872W        W30003   0.221  13.984   2.261  0.0944  0.5240 -0.1510
14873W        W30004  14.418   4.040  13.204  0.1675  0.0066  0.2566
14874W        W30005   6.445  11.859   5.567  0.1184  0.1901  0.2183
14875W        W30006   4.454   5.722  12.274 -0.3455 -0.2434  0.1361
14876W        W30007  10.327   2.112  11.466  0.2633 -0.1992  0.1919
14877W        W30008  17.222  13.875  13.149 -0.0662  0.1784  0.1049
14878W        W30009   7.665   7.792   1.298  0.0280 -0.0570 -0.0117
14879W        W30010   7.403   9.463  14.457 -0.1288 -0.0070 -0.3346
14880W        W30011  11.412   8.947   0.687  0.0620 -0.0278  0.2818
14881W        W30012   2.387   9.948  13.333 -0.2444  0.2731  0.0762
14882W        W30013  10.194   5.545   4.861  0.0179  0.2125  0.0883
14883W        W30014   3.433  14.715  13.324 -0.1501 -0.1086  0.1644
14884W        W30015  16.759  13.985   1.842 -0.0433 -0.3321  0.0633
14885W        W30016  14.122  15.053   0.493 -0.1051 -0.1088 -0.0654
14886W        W30017   1.475  10.060   3.817  0.2371  0.2729  0.0274
14887W        W30018  16.202   2.337   0.660  0.1564  0.0068  0.1368
14888W        W30019   9.860  16.780  11.734  0.0909 -0.0986 -0.1412
14889W        W30020   6.014   3.804   2.828  0.2061  0.1631  0.0267
14890W        W30021   1.353   4.494   1.945 -0.0803  0.1221 -0.0480
14891W        W30022  11.409   3.522  15.862 -0.0515 -0.2654 -0.1132
14892W        W30023   5.263   1.944   4.384  0.1056  0.1170  0.1006
14893W        W30024  14.846  13.504   0.086  0.1807  0.0963  0.0587
14894W        W30025   7.577   2.645   3.234 -0.3294  0.4275 -0.0645
14895W        W30026  16.554   4.384   0.987  0.0471 -0.0860 -0.0403
14896W        W30027  12.393  15.388  16.245 -0.0312 -0.0655 -0.2333
14897W        W30028  14.239  16.318  12.167 -0.1199  0.0177  0.1620
14898W        W30029   6.254   0.118  10.687  0.0091  0.1157  0.1470
14899W        W30030  13.682  15.339   4.770  0.0325  0.3429  0.0333
14900W        W30031   3.614   2.600  11.882  0.2593  0.0805  0.0488
14901W        W30032  15.734   1.947  15.968  0.1313  0.1034  0.1787
14902W        W30033  12.066   4.268   2.606 -0.0381  0.2322 -0.1025
14903W        W30034  10.747   0.050  15.884 -0.0793 -0.1414 -0.0140
14904W        W30035   4.676  10.671   0.329  0.3039  0.1688  0.1397
14905W        W30036   8.723   3.233   0.558 -0.0565  0.1397 -0.0925
14906W        W30037   8.971  12.296  13.367 -0.1222 -0.2348 -0.1693
14907W        W30038   4.456   2.653  11.629 -0.0032  0.0122 -0.1750
14908W        W30039  11.732   9.173  14.526 -0.0772  0.0705 -0.0803
14909W        W30040  10.640   8.611   4.789  0.2134 -0.0267 -0.0585
14910W        W30041   5.084   3.012  14.781 -0.1305  0.1540  0.1486
14911W        W30042  14.512   5.602   5.491 -0.0091  0.1843  0.3198
14912W        W30043   9.455   6.044  13.240 -0.2399 -0.0777  0.0627
14913W        W30044   3.058   1.734  10.425 -0.0482 -0.0103  0.0785
14914W        W30045  16.327  11.446   1.454 -0.0310 -0.1613 -0.3199
14915W        W30046  17.440   1.172   3.325 -0.0582 -0.0180 -0.1715
14916W        W30047  15.553  12.810   0.364 -0.2460  0.0121 -0.0527
14917W        W30048   8.566  10.920   4.899  0.1299  0.1614  0.1811
14918W        W30049   3.011  12.528  12.758 -0.1384  0.0777  0.0818
14919W        W30050   1.524   8.823   3.213 -0.0512 -0.1070  0.3987
14920W        W30051   6.561   6.552   3.452 -0.0935  0.0468 -0.1948
14921W        W30052  11.220   6.206   4.386 -0.2110  0.2762  0.3247
14922W        W30053   2.984   6.274  16.210  0.0267 -0.0519  0.1749
14923W        W30054   3.165   4.817   3.300 -0.1369 -0.2319  0.0658
14924W        W30055   8.718  13.892   0.730  0.1167  0.0337  0.2686
14925W        W30056  11.616   4.419  13.684  0.2932 -0.1294  0.0391
14926W        W30057   0.440  13.199  12.878  0.1688  0.0384 -0.1297
14927W        W30058   2.966   7.190  16.195  0.0266 -0.1574 -0.1476
14928W        W30059   3.612   7.101  14.126 -0.3413  0.0600 -0.0915
14929W        W30060  12.123   1.576   4.777 -0.2578  0.0469 -0.0441
14930W        W30061   5.973   7.610  13.630 -0.0697 -0.0288  0.3135
14931W        W30062   1.471   8.704   1.545  0.2656  0.1491 -0.0556
14932W        W30063   2.621  13.972  14.201  0.1009  0.1761  0.0419
14933W        W30064  17.856   0.354  13.081  0.2823 -0.2671  0.0100
14934W        W30065  12.960  17.324   4.387 -0.0474 -0.0104  0.0649
14935W        W30066   9.917   0.069  15.622  0.1998  0.1096 -0.1419
14936W        W30067  13.135  11.636  13.205  0.2422  0.0094  0.1595
14937W        W30068  12.697   4.205   3.471 -0.2756  0.2425 -0.0533
14938W        W30069   9.117  17.737   2.968 -0.0057  0.0336  0.3968
14939W        W30070  11.333  12.627   4.841 -0.2716  0.0585  0.0342
14940W        W30071  15.472  15.182   3.254  0.2426 -0.1467  0.0961
14941W        W30072  11.475  17.311   4.579  0.2442 -0.4599 -0.0446
14942W        W30073  10.622   8.753   2.792 -0.2176  0.1840 -0.1420
14943W        W30074   8.547  11.733   4.508  0.3128 -0.1757 -0.0635
14944W        W30075  17.579  10.401   0.250  0.0142  0.0307  0.3636
14945W        W30076  15.500  17.710  14.562  0.1365 -0.0688  0.0352
14946W        W30077  14.112   4.426  11.058  0.3220  0.2104 -0.0103
14947W        W30078   8.075   8.777  14.786 -0.2355  0.2289  0.2289
14948W        W30079   6.907   9.040   0.604  0.0466 -0.0204  0.2710
14949W        W30080   0.864   8.407   3.895  0.2311  0.0728 -0.0656
14950W        W30081  14.593  10.033  13.140  0.1219  0.1635 -0.2609
14951W        W30082  10.968  15.522   1.047 -0.0239 -0.0691  0.0008
14952W        W30083   7.782  12.309   5.174 -0.0974 -0.1970 -0.1577
14953W        W30084  10.957  12.307  16.029 -0.0548  0.3453  0.2012
14954W        W30085   7.160   6.421  11.931 -0.0669 -0.1160  0.1187
14955W        W30086  18.041  13.969   2.663  0.1204 -0.2443  0.0792
14956W        W30087  14.934   7.909  13.657  0.2323 -0.1342  0.3158
14957W        W30088  12.034  15.526   0.798  0.3977  0.0404 -0.1191
14958W        W30089  16.004  13.829   1.650 -0.0345  0.1161  0.0036
14959W        W30090   1.322  14.020  15.372  0.1483 -0.0095 -0.1888
14960W        W30091   8.003  16.432   4.267  0.0868 -0.0854 -0.2433
14961W        W30092  17.102  11.852   2.061  0.2468 -0.0535 -0.2039
14962W        W30093   0.912  16.297   5.515 -0.2818  0.1805 -0.0050
14963W        W30094  12.717   6.332  15.905  0.2928 -0.3733  0.1117
14964W        W30095   1.686  10.409   5.809  0.3273 -0.1866  0.1412
14965W        W30096   7.131  14.302  13.962  0.3344 -0.1741 -0.0054
14966W        W30097  10.203   9.980  15.242  0.1192  0.0528  0.0615
14967W        W30098   5.652   5.785  13.077 -0.1019  0.1995  0.0168
14968W        W30099   7.255   2.632  14.453  0.0100 -0.2689 -0.4325
14969W        W30100  13.862  12.270  13.379  0.2372  0.0430 -0.1211
14970W        W30101  11.547   8.883  13.151 -0.4003 -0.1210 -0.0065
14971W        W30102  15.149   5.623   1.960  0.0242  0.1949  0.2226
14972W        W30103   8.288  11.380   1.941  0.1183 -0.0742  0.0321
14973W        W30104   7.525  14.387  12.199  0.1494  0.0454 -0.0235
14974W        W30105   9.859  13.354  14.027  0.0402 -0.0309  0.1499
14975W        W30106   3.391  16.785   1.912 -0.0227 -0.0683  0.0809
14976W        W30107   7.853  13.159  14.600  0.0298 -0.0101  0.0497
14977W        W30108  15.060   7.127   0.982  0.0253  0.0774 -0.0681
14978W        W30109  14.771  16.918   1.786 -0.1907  0.1974  0.1272
14979W        W30110   5.004  13.418  10.495 -0.0621 -0.0059 -0.0616
14980W        W30111   3.951   8.712   0.243  0.0582 -0.1930  0.5421
14981W        W30112  14.460  13.920   5.113  0.3701  0.0155  0.1336
14982W        W30113   7.883   4.439  13.358  0.0613  0.0635 -0.1845
14983W        W30114   8.226   9.853   3.182 -0.1623 -0.2783 -0.2378
14984W        W30115  13.188  16.664  15.113 -0.1565  0.0772  0.0696
14985W        W30116  11.847   2.177   5.148 -0.4783  0.0751  0.2208
14986W        W30117  12.981   9.193  15.758 -0.0481  0.3189  0.0958
14987W        W30118  11.973  15.585  12.967 -0.2511  0.0151 -0.1275
14988W        W30119  18.071   3.501  12.907 -0.1054 -0.2937 -0.0147
14989W        W30120  14.136   9.810  12.292 -0.0158  0.0922 -0.0489
14990W        W30121   5.062   6.620  14.475  0.0165  0.0378 -0.0809
14991W        W30122   4.244   9.573   5.373 -0.0671 -0.1392 -0.1389
14992W        W30123  10.915  17.832   1.852 -0.2600 -0.1614  0.1275
14993W        W30124   8.882  17.370   6.279 -0.2051  0.0660 -0.2016
14994W        W30125  11.556   2.121  11.985  0.2312 -0.1018 -0.4301
14995W        W30126   3.814  14.582   1.102  0.4209 -0.0917  0.0753
14996W        W30127  16.799  15.822   0.701 -0.0751  0.3419  0.0600
14997W        W30128  11.703   1.680  11.404 -0.1334 -0.0041  0.0448
14998W        W30129  15.794   1.061  12.071  0.0625  0.3655  0.1986
14999W        W30130  17.465  16.932  13.084 -0.2794 -0.0410  0.1206
15000W        W30131  17.490   3.888  12.558  0.0474  0.2297 -0.2873
15001W        W30132  14.970  16.425  15.567 -0.0765 -0.0135  0.0645
15002W        W30133  12.816   7.665  13.327 -0.0247 -0.2085 -0.1529
15003W        W30134   8.575   3.770  10.452  0.0636 -0.2374  0.1246
15004W        W30135   0.874   5.726   3.255 -0.1974  0.3718  0.1717
15005W        W30136   2.094   5.851  14.204  0.0467 -0.1648  0.2613
15006W        W30137   7.089   8.502   3.832 -0.1641  0.0547 -0.1213
15007W        W30138   6.202   6.289   3.126  0.1184  0.2178 -0.0089
15008W        W30139   6.421   3.239   1.143 -0.2169 -0.4537 -0.0494
15009W        W30140  15.262  13.289   4.726 -0.0341  0.2482 -0.4283
15010W        W30141   8.424   5.265   5.695  0.2827  0.1092  0.0236
15011W        W30142  14.796  10.850  16.041 -0.1702 -0.3668 -0.1129
15012W        W30143  11.090  10.968   0.311 -0.0143  0.1663 -0.1180
15013W        W30144   6.901  10.907  16.215 -0.0242 -0.2363  0.0554
15014W        W30145  13.729  14.770  14.272  0.3775 -0.1461 -0.0153
15015W        W30146   1.738   5.808  14.748 -0.2907  0.2024 -0.1120
15016W        W30147   5.583   6.225   4.248 -0.0301  0.0492  0.1266
15017W        W30148   2.517   8.148  11.932  0.2760 -0.1209  0.1092
15018W        W30149  12.655   8.496  10.905  0.2888 -0.0337  0.1046
15019W        W30150  11.307  12.181   1.942 -0.0206  0.1346 -0.0451
15020W        W30151   3.673   1.018   5.307 -0.0533  0.0879  0.2040
15021W        W30152  11.453   1.424  14.674 -0.1120  0.0382 -0.2923
15022W        W30153   7.510  18.091  13.728 -0.1191 -0.1748 -0.1986
15023W        W30154   8.026   3.959  13.932  0.1229 -0.2500 -0.0652
15024W        W30155   2.127  18.020  14.383 -0.0103  0.2599  0.0299
15025W        W30156  15.343  10.926  12.387  0.2540 -0.0889  0.2474
15026W        W30157  12.456   6.287   2.845  0.1821 -0.3468  0.1121
15027W        W30158  17.545   3.309   5.208  0.1559 -0.1037  0.1180
15028W        W30159   9.674   0.719   5.509  0.0550  0.0999 -0.0274
15029W        W30160  10.760  15.795  12.945  0.0905  0.1413  0.2240
15030W        W30161   2.158   9.003   4.153  0.2034 -0.0608  0.0510
15031W        W30162  13.970  10.663  11.118  0.1234 -0.0944  0.1667
15032W        W30163  16.269  11.078  14.401 -0.2386 -0.0497 -0.1377
15033W        W30164  13.076   3.893   0.469  0.0547 -0.0036  0.0144
15034W        W30165   6.709  16.707   5.765 -0.1818  0.1199 -0.1980
15035W        W30166  17.847   7.887  13.701 -0.1600 -0.1031 -0.1831
15036W        W30167   2.323   8.157   2.202 -0.1044 -0.1072 -0.0324
15037W        W30168  10.576  10.710   3.866  0.1527 -0.1829  0.0596
15038W        W30169   0.445   9.232   4.532 -0.1017 -0.1664  0.1568
15039W        W30170   8.573   4.651   1.922 -0.0203  0.1134  0.2865
15040W        W30171   5.589   4.902   2.426 -0.1170  0.1547  0.0802
15041W        W30172  17.111   9.010   6.594 -0.2657  0.0608  0.0696
15042W        W30173  11.013   1.634  15.762 -0.0629  0.0029 -0.1011
15043W        W30174   9.850   2.730  12.971 -0.1810  0.0850  0.1911
15044W        W30175  10.786   1.194  10.532  0.0522  0.2211  0.1266
15045W        W30176  15.929  17.007  14.243  0.0984 -0.1503  0.2306
15046W        W30177  11.935   9.076   2.593  0.1302  0.0953  0.0132
15047W        W30178  17.271  15.926   1.970  0.0173  0.2573  0.0493
15048W        W30179   5.984   1.209   3.642  0.2506  0.4160 -0.1166
15049W        W30180   5.782  15.704   4.939 -0.1056  0.1453 -0.0557
15050W        W30181   5.201  10.646  11.223 -0.2006  0.1678  0.2311
15051W        W30182   4.232   4.037  15.480 -0.1983 -0.1934  0.3256
15052W        W30183  16.548  17.163   0.937  0.3117 -0.2107  0.0474
15053W        W30184   3.868  10.641   0.728 -0.0666 -0.1758 -0.1352
15054W        W30185   7.822   6.878   1.728 -0.1508 -0.0447  0.2355
15055W        W30186   0.681  10.408   3.423 -0.2192 -0.0116 -0.3525
15056W        W30187   5.124   3.424   1.706  0.1119 -0.1984 -0.1662
15057W        W30188  15.511  15.241  12.076 -0.0473 -0.0866  0.0613
15058W        W30189  17.415  12.350   0.974  0.3141  0.0737  0.0972
15059W        W30190   8.796   6.293  12.819  0.1144  0.0767 -0.0689
15060W        W30191   1.218   1.512   1.424  0.1243 -0.1185  0.0463
15061W        W30192  12.498   3.718   3.150  0.1206  0.1065 -0.1180
15062W        W30193  15.161  13.295   0.646 -0.0178 -0.0180  0.1129
15063W        W30194   8.100   1.278  12.713  0.1938 -0.0404  0.0276
15064W        W30195   5.083   2.656  14.055  0.1024 -0.0430  0.0628
15065W        W30196  10.555  13.028   4.600 -0.2148  0.3454  0.0596
15066W        W30197   6.293  16.719  13.091 -0.1293 -0.0491 -0.0121
15067W        W30198   9.382   8.201  11.532  0.0352  0.0633 -0.0307
15068W        W30199  14.135   8.973   3.225 -0.0152 -0.0475  0.1362
15069W        W30200   9.011   5.275  16.151 -0.0292  0.3375 -0.2086
15070W        W30201   3.093   9.407   1.450 -0.1198  0.1447  0.0457
15071W        W30202   8.615   4.543  14.505 -0.0431 -0.0166 -0.1738
15072W        W30203   6.499   0.565  11.786 -0.0220  0.0078 -0.0354
15073W        W30204  16.450   3.308  10.166 -0.2079 -0.0243  0.3836
15074W        W30205  12.835  10.660   2.084 -0.1816  0.1132  0.0941
15075W        W30206  14.654   8.461   1.183 -0.2714  0.0524 -0.1148
15076W        W30207   2.108   4.214   5.320  0.1463 -0.2427 -0.0473
15077W        W30208  13.892  12.734   5.126 -0.0468 -0.3560 -0.0881
15078W        W30209  17.747   8.355  12.620  0.3071 -0.1154  0.0192
15079W        W30210   1.136  10.513   3.790  0.0998  0.0054 -0.0866
15080W        W30211  15.361   2.763   1.554  0.0716  0.2616 -0.2803
15081W        W30212   5.887  16.963   2.131 -0.0947 -0.1096 -0.2773
15082W        W30213  12.692  14.216  12.245 -0.1030 -0.2392  0.2072
15083W        W30214   2.351  11.064   5.598 -0.1478 -0.0176  0.1623
15084W        W30215   3.216   8.232   0.104  0.1491 -0.0063  0.1614
15085W        W30216  13.637   5.943  12.341 -0.2677  0.0421 -0.4329
15086W        W30217  17.675   6.629   3.704 -0.2216  0.1046 -0.2965
15087W        W30218   4.427  16.097   3.674 -0.0672  0.1790 -0.3201
15088W        W30219  11.499  16.826  15.260  0.0285  0.0059  0.1603
15089W        W30220   1.804  13.065   1.550  0.0768 -0.1648 -0.1700
15090W        W30221   9.469   9.897  11.810  0.0390 -0.0075  0.1232
15091W        W30222   3.393   5.205   3.600  0.3309 -0.0278 -0.1658
15092W        W30223   9.065  15.169   4.382  0.2270 -0.1726 -0.0689
15093W        W30224  13.665  14.930  13.345 -0.4914 -0.0781 -0.2852
15094W        W30225   8.035   2.397  13.931 -0.0784  0.1382  0.1468
15095W        W30226   1.629   0.935  11.268 -0.1030 -0.0878 -0.2129
15096W        W30227  11.970   7.782   3.638 -0.0360  0.0163  0.0205
15097W        W30228  13.468  10.528   3.473 -0.0509 -0.0455  0.0169
15098W        W30229   5.804   4.303  14.973 -0.0265 -0.0766 -0.0304
15099W        W30230   6.584   1.645  12.506 -0.1142 -0.0345  0.1053
15100W        W30231   4.769  10.317  15.039  0.0854  0.0322 -0.2763
15101W        W30232   1.601   9.548  14.156  0.2180 -0.0195 -0.2479
15102W        W30233  12.400   9.714   0.477 -0.2779 -0.0474 -0.0270
15103W        W30234  14.677  14.291   2.486  0.0470 -0.0584 -0.1185
15104W        W30235   4.088   6.278   3.407 -0.1294  0.2283  0.0215
15105W        W30236   3.170   4.197   2.539  0.0696  0.3065  0.1708
15106W        W30237  12.075   8.570   2.872  0.0521  0.0288  0.2217
15107W        W30238   7.291   2.256   3.244  0.3099  0.0357  0.2116
15108W        W30239   4.150  17.757  11.463  0.0527 -0.2903  0.0528
15109W        W30240  17.033   5.512   0.501 -0.0936  0.0160 -0.1202
15110W        W30241  16.961  13.789  11.277 -0.2539  0.2649  0.1930
15111W        W30242  16.220  11.630  13.149  0.2089 -0.0110  0.2169
15112W        W30243   0.791   1.881   2.299  0.1512 -0.1704  0.2531
15113W        W30244   2.271  11.368  14.986  0.3912 -0.1750 -0.1488
15114W        W30245   7.882  12.002  14.833  0.0714 -0.1867  0.0554
15115W        W30246   8.610  17.154  12.247 -0.0037 -0.0112 -0.0245
15116W        W30247  10.241   6.566   0.143  0.0117 -0.2263  0.0670
15117W        W30248   9.468   9.071   1.754 -0.1475  0.2022  0.0850
15118W        W30249  11.274   1.456   0.567  0.0853  0.0457  0.1613
15119W        W30250  13.615   0.510  13.312 -0.1375 -0.1095  0.2936
15120W        W30251  14.696  13.804   2.655  0.1214 -0.0833  0.0336
15121W        W30252   6.998   9.652   3.666 -0.0804 -0.0972  0.3861
15122W        W30253  17.353   3.622  16.162 -0.2133  0.1701 -0.1065
15123W        W30254   7.094  16.288   0.203  0.0428 -0.1929  0.2720
15124W        W30255   0.744   1.807   1.762 -0.4107 -0.0407 -0.2059
15125W        W30256   4.358   8.756  14.683  0.1438 -0.2829  0.0622
15126W        W30257   5.002   6.853   0.621  0.0247  0.1293 -0.4763
15127W        W30258  11.332  14.912  11.345  0.1003  0.2136  0.0388
15128W        W30259   6.351   3.612  15.999  0.0134 -0.2283  0.1901
15129W        W30260  15.906  11.718  10.939 -0.0633  0.2448  0.0295
15130W        W30261  13.358   1.725  13.576  0.0551 -0.2325  0.1667
15131W        W30262  15.272   1.332   2.457 -0.0277 -0.0073 -0.0987
15132W        W30263   1.389  15.111  11.333  0.0260  0.3241  0.0807
15133W        W30264  10.090  12.800  11.711  0.0794  0.2736 -0.2610
15134W        W30265  16.337   9.372  14.816  0.0057  0.0547  0.0220
15135W        W30266   3.101   8.280  12.819  0.1415  0.0896  0.0504
15136W        W30267   8.246  18.029   3.298  0.2660  0.3620 -0.1185
15137W        W30268  10.640  13.523   2.306 -0.1583  0.0646 -0.0858
15138W        W30269  16.027   7.276   0.112 -0.0014  0.2618 -0.1130
15139W        W30270  17.084  10.488   0.513  0.1050 -0.0688  0.1047
15140W        W30271   0.506   2.235  14.405 -0.0098 -0.0297  0.2682
15141W        W30272  17.169  16.973   4.943  0.1352 -0.1082  0.0766
15142W        W30273   9.517   6.772  11.168 -0.0782 -0.0641 -0.0508
15143W        W30274   8.039   4.294   5.014  0.2063  0.0788  0.1297
15144W        W30275   2.766   4.770  11.622 -0.0110 -0.2943 -0.2152
15145W        W30276  16.501  15.303  11.498  0.0566 -0.1056  0.0722
15146W        W30277   4.053   8.081   5.276 -0.1546 -0.1447  0.0956
15147W        W30278   7.183  17.853   4.834 -0.0710  0.1947  0.1605
15148W        W30279   7.477   9.492  11.584 -0.0117 -0.3740  0.0532
15149W        W30280  17.173  12.788  14.405 -0.1701  0.1107 -0.0090
15150W        W30281  17.437  15.957   2.407 -0.0753 -0.0752 -0.2892
15151W        W30282   4.521   2.408  11.144  0.2938  0.1011 -0.0213
15152W        W30283   8.341   3.615  10.861  0.2446  0.0180  0.0451
15153W        W30284  15.279   9.452   0.355  0.1934 -0.1918  0.0889
15154W        W30285   8.121   2.095  15.049  0.0432  0.2764 -0.2142
15155W        W30286  17.602  12.251  12.664  0.2654 -0.2045  0.3888
15156W        W30287   2.749  14.500  11.156  0.2929  0.1872  0.1846
15157W        W30288  13.597   5.521  10.459 -0.3801 -0.1737 -0.0255
15158W        W30289  15.563   8.907   1.098 -0.3660 -0.0444 -0.0171
15159W        W30290   7.048   2.233  12.350  0.1500  0.2482 -0.1988
15160W        W30291   5.859   6.586   0.952  0.0642 -0.1040  0.0360
15161W        W30292   9.239   5.424  14.805 -0.0003 -0.1874  0.2786
15162W        W30293  12.045   8.748   1.299  0.0410  0.0646 -0.1293
15163W        W30294  10.725  10.787   0.632  0.0518  0.0680  0.3274
15164W        W30295  14.825  12.239   3.656 -0.0498  0.0385 -0.2448
15165W        W30296  13.326   5.224   5.917 -0.1015  0.0104 -0.1245
15166W        W30297   0.526  16.273   4.404 -0.2180 -0.1696  0.2032
15167W        W30298  14.296  10.443  14.880  0.0239 -0.1735 -0.0058
15168W        W30299   1.395   9.998   0.008 -0.2766  0.2258  0.1667
15169W        W30300   1.003  11.567   1.256 -0.2902 -0.1674 -0.0199
15170W        W30301   4.718  15.949  13.621  0.1858 -0.2091  0.0346
15171W        W30302  17.167   3.828  15.331 -0.0716  0.1866  0.0097
15172W        W30303   7.074   6.755  12.892 -0.0371  0.3610 -0.0201
15173W        W30304   6.374   2.732   5.123  0.0495  0.1617  0.3644
15174W        W30305  13.602  16.400   2.115  0.0167  0.1024  0.2778
15175W        W30306   9.283   9.028   4.979 -0.2242  0.0355  0.1158
15176W        W30307   5.413   2.760  14.451 -0.0066  0.2253 -0.0612
15177W        W30308   0.492  12.741   4.572 -0.0294 -0.1797  0.3115
15178W        W30309   3.966   5.240   2.833  0.1341  0.0792 -0.1513
15179W        W30310   7.942   4.170  16.230 -0.2905  0.5024 -0.0749
15180W        W30311   4.394  10.495   5.792  0.0085 -0.3683 -0.0241
15181W        W30312  14.834  12.676  12.202  0.0460  0.1980 -0.0035
15182W        W30313   5.178   6.427  11.943  0.0062  0.0447 -0.0096
15183W        W30314  13.357   3.491   0.838 -0.0596  0.0998  0.1921
15184W        W30315  11.812   3.377  10.303  0.2157  0.1163 -0.0433
15185W        W30316   9.300  14.490  10.397  0.0394 -0.2908 -0.1473
15186W        W30317   7.578  12.801  14.799  0.2525 -0.0131 -0.0138
15187W        W30318   1.538   9.960  14.713 -0.0002  0.1158  0.1639
15188W        W30319   8.929  12.141   4.574 -0.1815 -0.0097 -0.2815
15189W        W30320  14.287   4.808  12.396 -0.0377  0.0182 -0.0060
15190W        W30321   7.076  11.697   1.208 -0.0412 -0.1146  0.0792
15191W        W30322  18.096  13.277   1.553 -0.0990  0.1909  0.0554
15192W        W30323  16.489   3.306   0.794 -0.0459  0.0802  0.2795
15193W        W30324   4.311   5.355   4.398  0.0696 -0.0023  0.3760
15194W        W30325   7.354   2.358  14.842  0.0040  0.1703  0.2834
15195W        W30326   6.711   0.784   2.079  0.0032  0.0601 -0.0129
15196W        W30327   8.611   3.036  11.461 -0.1352  0.1851  0.1400
15197W        W30328   8.499   4.025   4.712  0.4598 -0.0764  0.3530
15198W        W30329  12.669  17.835  11.811  0.0383  0.0697 -0.2379
15199W        W30330  15.772   7.293  15.384  0.2512 -0.1649 -0.4307
15200W        W30331  16.120   4.816   2.031 -0.3280  0.0534  0.1608
15201W        W30332   0.712  11.958   0.438  0.0643  0.1593 -0.1340
15202W        W30333   0.930  15.724   3.653  0.2495  0.2152 -0.2813
15203W        W30334  15.066   1.635   3.356 -0.0830 -0.0284  0.0600
15204W        W30335   1.459  13.582  15.631 -0.0505 -0.0558 -0.0955
15205W        W30336   0.706  10.656   1.223 -0.0756 -0.0651 -0.4519
15206W        W30337   3.223   8.186  11.294  0.0478 -0.1642  0.4788
15207W        W30338   2.941   6.167  15.739  0.0628  0.0687  0.0295
15208W        W30339  12.121   9.273  13.662  0.1010  0.0245 -0.1042
15209W        W30340   5.321  15.892  14.415 -0.3697 -0.0889 -0.0546
15210W        W30341  17.835  10.818   4.345  0.0927  0.2051 -0.2538
15211W        W30342   2.532   7.473   0.001 -0.1210  0.1551  0.2323
15212W        W30343  17.161  11.193   6.111 -0.1273 -0.0793 -0.1851
15213W        W30344  11.058   1.835   4.042 -0.0520  0.0953 -0.0888
15214W        W30345   9.632   6.335  12.207 -0.2569  0.0660  0.3438
15215W        W30346  11.146   6.415   5.276  0.3872 -0.3028 -0.3034
15216W        W30347  10.805  15.537   5.545  0.2477  0.2169  0.0507
15217W        W30348   5.525  16.366  16.216 -0.0769  0.0410 -0.0399
15218W        W30349  11.275   2.959  12.697 -0.1162 -0.0779 -0.0398
15219W        W30350   2.341  10.230  16.080 -0.2265 -0.1820 -0.1862
15220W        W30351   8.207   8.062   1.888  0.0228 -0.0562 -0.4529
15221W        W30352  15.513   7.357   3.976 -0.2031  0.0018  0.0434
15222W        W30353  12.837   9.483  16.131  0.0945  0.1852  0.1164
15223W        W30354  14.787   8.411  13.839 -0.3505  0.1403  0.2059
15224W        W30355  15.458   0.443  15.415  0.1520  0.0852 -0.0590
15225W        W30356  10.846  10.132   0.159 -0.3502  0.2399  0.0766
15226W        W30357  14.537  12.714  11.041 -0.2211 -0.0227 -0.0341
15227W        W30358  14.327  12.260   3.522 -0.2188  0.1758 -0.0055
15228W        W30359  10.773  12.410   5.794  0.0729 -0.1761 -0.0228
15229W        W30360  15.753  15.634   1.814  0.0556 -0.0274  0.2185
15230W        W30361   6.259  16.405   1.626  0.2746 -0.1731  0.0852
15231W        W30362   0.346   8.820  13.126  0.0269 -0.3179 -0.1459
15232W        W30363   9.316  17.175   5.300 -0.0915 -0.2593 -0.1338
15233W        W30364   2.929   3.069   1.500 -0.0989 -0.0996 -0.0416
15234W        W30365   2.489   0.753   2.848 -0.2574 -0.0993  0.0160
15235W        W30366   6.756  16.541   3.224 -0.2295  0.1643 -0.0423
15236W        W30367  14.749   1.971  14.562  0.0652 -0.0868 -0.3935
15237W        W30368   0.832   2.094  12.886  0.0300 -0.0281  0.5511
15238W        W30369   3.531  11.485   0.117 -0.3274  0.2799 -0.4202
15239W        W30370  11.409  18.011   3.444 -0.1036 -0.0788 -0.0279
15240W        W30371  17.879  12.743   2.341  0.2016 -0.1258 -0.0381
15241W        W30372  17.602   3.495  11.576 -0.1229 -0.1373 -0.0214
15242W        W30373   7.713  12.842  13.074 -0.1875  0.0153 -0.0228
15243W        W30374   6.989  13.329  10.774 -0.0038 -0.2056  0.1758
15244W        W30375  17.233  17.673   1.400  0.3009 -0.2567 -0.0081
15245W        W30376   5.526   9.174   0.882 -0.2092  0.2719 -0.0972
15246W        W30377  12.845   2.978   4.550 -0.0620 -0.0377  0.1230
15247W        W30378  17.901  17.622   2.654 -0.3517  0.0097 -0.3707
15248W        W30379  17.207   9.453  15.785 -0.2025 -0.2141 -0.4550
15249W        W30380  11.405  10.152  13.034 -0.0733  0.0156 -0.0897
15250W        W30381  14.112   5.327   2.681  0.1213  0.0562 -0.1143
15251W        W30382  11.161  12.229  13.329  0.2679 -0.0929 -0.2925
15252W        W30383  12.512   7.691   3.862 -0.0645 -0.1621 -0.2845
15253W        W30384   7.383  15.473   4.200 -0.2285  0.0933  0.3717
15254W        W30385  17.900   1.811   1.505  0.1167 -0.1757  0.3630
15255W        W30386  12.275   5.882   4.882  0.0251  0.3270  0.1995
15256W        W30387  15.208   8.606   1.789 -0.0170 -0.0697 -0.0494
15257W        W30388  14.142   8.503   5.510 -0.0946  0.2978  0.0654
15258W        W30389   3.150   2.382  11.649 -0.3735 -0.2623  0.0193
15259W        W30390   0.186  10.450  15.560 -0.1066 -0.1089 -0.1013
15260W        W30391  14.895   7.137  15.042 -0.0086 -0.1954 -0.3180
15261W        W30392  14.521   3.455  14.472  0.1948  0.0429 -0.0390
15262W        W30393  13.491   7.388  13.870 -0.1514 -0.0983  0.0989
15263W        W30394   2.184  15.650   1.261  0.1489 -0.3547  0.0539
15264W        W30395  18.095  12.814   4.434 -0.0818 -0.2028 -0.2471
15265W        W30396   5.632   0.757   3.601 -0.4101 -0.1207 -0.0985
15266W        W30397   2.937   7.194   3.835  0.0913  0.1035 -0.0820
15267W        W30398  15.782  17.104   1.995  0.0699  0.2905  0.1839
15268W        W30399   8.542   9.182   5.293 -0.0121  0.0297 -0.2524
15269W        W30400  17.933  12.376   0.988  0.5273 -0.0866 -0.1745
15270W        W30401   9.366   2.818   0.876  0.4071  0.1713  0.3320
15271W        W30402   7.186  14.812   3.068 -0.3029 -0.4305 -0.2074
15272W        W30403   1.717  11.870  16.050 -0.0589 -0.3218 -0.0861
15273W        W30404  17.469   5.522  11.062  0.0229  0.0511 -0.0029
15274W        W30405   0.682   1.527   0.112  0.1158 -0.0046 -0.2365
15275W        W30406  16.091   6.525  13.609  0.0277  0.1114 -0.0395
15276W        W30407   3.291   3.878   4.923 -0.0266 -0.0908  0.2939
15277W        W30408  14.686   2.386   5.122 -0.0575  0.1559 -0.1085
15278W        W30409  14.676   0.341   1.978 -0.2699  0.1658  0.1291
15279W        W30410  12.573   2.164  13.875  0.0497 -0.1158  0.0055
15280W        W30411   9.896   1.953   5.130 -0.4796 -0.1017  0.1067
15281W        W30412   6.196   5.243  15.724 -0.1355 -0.1174  0.0695
15282W        W30413   7.142   4.224  12.337 -0.0944  0.3669  0.0776
15283W        W30414  12.509   3.171   2.177  0.2613 -0.0259 -0.0283
15284W        W30415   5.549   3.414  13.369  0.1799 -0.1628 -0.2398
15285W        W30416  13.397  10.274  14.506 -0.0219 -0.2141 -0.0780
15286W        W30417   7.713  16.336  12.307  0.3119 -0.0568 -0.0024
15287W        W30418   8.269  11.534   5.188  0.0681 -0.0502 -0.0238
15288W        W30419  13.825  11.716   1.398 -0.1446 -0.0664  0.0912
15289W        W30420   9.828   3.515  14.180  0.0828  0.2402  0.1465
15290W        W30421   1.978  15.422   4.631  0.0244 -0.1248  0.0008
15291W        W30422  14.454  12.879  15.616 -0.0626 -0.0152 -0.3624
15292W        W30423  10.931  13.811  16.121  0.1618  0.1899  0.1771
15293W        W30424   4.010   4.746  13.121  0.0126  0.0440 -0.2021
15294W        W30425  16.682  12.887  14.482  0.1529  0.1291  0.0890
15295W        W30426   1.154   9.043  11.706 -0.0950 -0.0521 -0.1413
15296W        W30427   9.440   6.429   3.363  0.1492 -0.1107  0.1952
15297W        W30428   6.160  13.334   4.454  0.5311 -0.0305 -0.0770
15298W        W30429   1.059   0.880   3.645  0.0354 -0.0195 -0.0298
15299W        W30430  17.214   8.655  13.849 -0.1029 -0.0072 -0.0067
15300W        W30431  11.566  15.473   3.762  0.0261 -0.1827  0.0897
15301W        W30432  13.264  16.169  15.077  0.1526  0.1460  0.0828
15302W        W30433  11.948   8.559   5.403  0.1807  0.0214 -0.2798
15303W        W30434  13.607   9.303  12.688  0.1195 -0.0965 -0.0650
15304W        W30435   3.112   7.619   1.292 -0.0346  0.1996 -0.1454
15305W        W30436  12.883   1.347  11.883 -0.0895 -0.0968  0.0109
15306W        W30437   9.292  12.959  15.232 -0.0494 -0.0080  0.0256
15307W        W30438   3.728   8.245   0.219  0.1332  0.0586  0.0710
15308W        W30439   5.640  14.098  15.754  0.0090 -0.0323 -0.1117
15309W        W30440   1.593   4.986   5.938 -0.2085 -0.2699  0.2880
15310W        W30441   6.936   8.375  13.561 -0.2242 -0.2245 -0.0269
15311W        W30442   8.504  10.796  12.457  0.0310 -0.0307  0.1074
15312W        W30443   0.508  16.625  12.083 -0.0174 -0.0572 -0.3692
15313W        W30444  10.407   7.540   2.188 -0.0710  0.0664  0.0075
15314W        W30445  17.591  14.983   0.344 -0.0670 -0.0908 -0.1803
15315W        W30446  12.110   7.823   2.712  0.0106  0.0216 -0.0291
15316W        W30447   7.292  17.617  12.087 -0.2070 -0.0578 -0.0383
15317W        W30448  14.493  13.965  12.849 -0.4027 -0.0435 -0.0163
15318W        W30449   8.233  11.988   5.427 -0.2305 -0.1590  0.3302
15319W        W30450   9.540   1.669  16.023 -0.0532  0.1326  0.0780
15320W        W30451   3.775  10.237  11.931  0.2898  0.2378 -0.1161
15321W        W30452   5.516   1.184   3.331 -0.1279 -0.1458  0.4435
15322W        W30453   5.524  15.327  11.651 -0.0205  0.0847  0.2240
15323W        W30454   8.906   9.867   2.318  0.1805  0.1463  0.2057
15324W        W30455   8.396   3.975  11.953  0.1977 -0.0932 -0.2173
15325W        W30456  14.579   0.957  15.785  0.0003 -0.1168  0.1136
15326W        W30457  15.957  10.843   5.913  0.1524 -0.2723 -0.0511
15327W        W30458   9.402   2.257   4.208  0.0484 -0.1559  0.0975
15328W        W30459   6.861   1.636  15.576  0.0317 -0.0857 -0.1174
15329W        W30460   9.504  10.318  13.553  0.0884  0.2582 -0.2001
15330W        W30461   7.813   2.474  14.819  0.1121  0.1455  0.0519
15331W        W30462  17.439  14.738  12.871  0.0073  0.1549  0.0643
15332W        W30463   8.918  16.821   1.032 -0.2982  0.3770 -0.1376
15333W        W30464  12.691   4.640   3.187  0.4578 -0.0000  0.1045
15334W        W30465   6.523  14.455   2.295  0.1443  0.1572  0.0065
15335W        W30466  12.667  13.143  13.438  0.3800  0.0743 -0.0150
15336W        W30467   0.377  16.719   4.791 -0.0237 -0.1068 -0.2368
15337W        W30468   2.807   5.852   2.407  0.0151 -0.0762 -0.0623
15338W        W30469   7.083  10.222   3.819 -0.0792 -0.1322 -0.2506
15339W        W30470   7.603   9.929  14.177  0.2767 -0.1383 -0.1896
15340W        W30471   4.784   2.838   4.649  0.0463  0.0028 -0.0696
15341W        W30472  17.178  17.837   1.888  0.3049 -0.1342  0.2319
15342W        W30473  15.722  10.679   3.200 -0.0275 -0.1161  0.2054
15343W        W30474  10.579   0.271   0.074 -0.1425  0.3422  0.1419
15344W        W30475  10.164   0.588   5.395 -0.0111  0.0590  0.2433
15345W        W30476   3.570   1.846   5.624  0.1581  0.1360 -0.3697
15346W        W30477   5.090  12.501   2.870 -0.2855  0.1913  0.3796
15347W        W30478  17.055  14.530  13.277 -0.3284  0.2225 -0.1345
15348W        W30479   1.329   1.525  12.948  0.0863 -0.0122  0.1268
15349W        W30480   1.324  13.756   2.739  0.4863  0.4305 -0.0972
15350W        W30481  11.968   7.373  13.410  0.0651 -0.0112  0.1097
15351W        W30482  14.705  13.152  11.342  0.0530 -0.0191  0.1863
15352W        W30483   7.625   3.043   1.685 -0.0200 -0.0917 -0.0240
15353W        W30484   6.366  10.563  13.803  0.1787  0.1719  0.0737
15354W        W30485   1.274  16.000   5.818 -0.2546 -0.1402  0.1345
15355W        W30486   8.752  12.436   5.541 -0.0611  0.2413  0.0398
15356W        W30487   8.320  16.250   0.481  0.0001 -0.0898 -0.1425
15357W        W30488   8.948  10.143  10.902  0.1571  0.1352  0.1997
15358W        W30489   0.425   3.689   0.226 -0.0547 -0.2989  0.1218
15359W        W30490  15.099  14.398   3.812 -0.0884  0.0616  0.0299
15360W        W30491   5.578  15.613  14.056 -0.4105  0.1744 -0.0284
15361W        W30492   4.499   5.371  11.910  0.2225 -0.0327 -0.1165
15362W        W30493  15.817   5.592   5.265  0.1137 -0.0090 -0.2830
15363W        W30494  11.727   8.921  13.651  0.0534 -0.0076 -0.0943
15364W        W30495  11.989  15.774  11.127 -0.1215 -0.1944  0.1397
15365W        W30496   5.795   3.113   3.915  0.0844 -0.0410 -0.2336
15366W        W30497   3.021  11.795   5.877  0.0455  0.0922 -0.2690
15367W        W30498  14.616   8.311   5.514 -0.2365  0.1354  0.2649
15368W        W30499   9.018   8.885  10.799 -0.0900  0.2053  0.0189
15369W        W30500   1.916   4.256   1.160  0.1934  0.0891 -0.2596
15370W        W30501   8.192   3.314  15.805 -0.3888 -0.1423  0.1098
15371W        W30502  14.336   9.038  11.721  0.1140 -0.2095  0.0258
15372W        W30503  12.776  15.578   1.858 -0.4592  0.0333 -0.2199
15373W        W30504  12.704   7.130   2.702 -0.1016 -0.1483 -0.0403
15374W        W30505  16.187   0.092  12.254 -0.1944  0.0854  0.3189
15375W        W30506  10.541   6.813   3.678  0.3279 -0.0657 -0.0437
15376W        W30507   6.638   4.523  15.415  0.0918  0.2772 -0.2469
15377W        W30508   0.016   7.815  15.839 -0.1635  0.0662  0.3270
15378W        W30509  11.961   5.125   0.927 -0.2865 -0.1676  0.1161
15379W        W30510   8.422   9.930   4.887 -0.3457  0.3699  0.0490
15380W        W30511   8.187  15.429  14.687 -0.0687  0.0452  0.0343
15381W        W30512  16.193   6.538   2.736 -0.0824 -0.0939  0.0310
15382W        W30513  10.812  12.063  10.425  0.2420 -0.1209  0.1861
15383W        W30514   5.568   3.663  14.288  0.1561 -0.1736  0.2716
15384W        W30515  15.229   9.007   0.720  0.1661  0.2035  0.0065
15385W        W30516  10.362   1.642  15.500 -0.0492  0.1307  0.0488
15386W        W30517  11.453   0.724  10.676  0.1344  0.0925  0.0733
15387W        W30518   8.759   5.010  14.764 -0.0822 -0.0020 -0.1150
15388W        W30519  12.257  15.334  13.840  0.0055  0.1347 -0.0695
15389W        W30520   9.611  12.738   3.636 -0.2113  0.2346 -0.2822
15390W        W30521  17.065  13.589  14.047  0.1447  0.2558 -0.1117
15391W        W30522  14.935  12.085  14.796  0.3416  0.3556 -0.0797
15392W        W30523   6.419   0.847  14.114 -0.1169  0.3895  0.1155
15393W        W30524   0.070  13.627  12.136 -0.0835  0.2056  0.2077
15394W        W30525  16.320   6.035  13.602 -0.0188  0.0054 -0.3286
15395W        W30526   3.525   2.636   1.954  0.0987  0.0272  0.2292
15396W        W30527  16.016   1.345  11.418 -0.0083 -0.0050  0.3709
15397W        W30528  15.320   5.846  13.414 -0.2509 -0.2496 -0.1443
15398W        W30529   4.143   2.637   1.368  0.2341  0.0316  0.0266
15399W        W30530  13.980  13.233  14.928  0.0493 -0.0873  0.3252
15400W        W30531  17.742   8.713  15.489  0.1031  0.0611  0.3489
15401W        W30532  17.937   4.544   3.269  0.1293 -0.0481 -0.1407
15402W        W30533   5.787  10.624  14.862 -0.1041  0.1129  0.0836
15403W        W30534   5.309   1.452  13.400  0.0823  0.0313  0.1556
15404W        W30535  15.897   4.841  15.651 -0.0378 -0.4660  0.1797
15405W        W30536  17.560   5.881   3.124 -0.1497 -0.2077 -0.1893
15406W        W30537   0.737   6.563  12.089  0.0364  0.2564  0.1372
15407W        W30538  11.944   6.103  13.978 -0.2094  0.3000 -0.2525
15408W        W30539   5.793   0.718  15.624 -0.0510 -0.1961  0.0388
15409W        W30540   5.188   0.326   2.734  0.1820 -0.0205  0.0519
15410W        W30541  11.149   1.070  12.709  0.0355  0.1293 -0.2597
15411W        W30542   9.181   5.914  12.869  0.1334 -0.2260  0.0161
15412W        W30543   3.663   9.715   0.561  0.0346  0.2696  0.2521
15413W        W30544  17.825  15.703  15.853  0.2182  0.2850 -0.1155
15414W        W30545  11.542   9.741  15.170  0.1683 -0.0463 -0.1546
15415W        W30546  16.149  15.256   2.598  0.2447  0.0466  0.0533
15416W        W30547   9.193  12.243  15.221  0.4584  0.0607 -0.2144
15417W        W30548   8.272  10.676   0.019 -0.0880  0.1629 -0.0470
15418W        W30549   9.496   3.504  13.272 -0.2546 -0.2286 -0.3654
15419W        W30550  15.324  13.192  11.100 -0.1132  0.1028  0.1832
15420W        W30551   7.259   8.766   3.388  0.1487 -0.0040  0.1762
15421W        W30552  17.632   1.404  10.791  0.0236  0.3390  0.1277
15422W        W30553  10.746   6.886  14.592 -0.2755 -0.0221  0.2630
15423W        W30554   7.034   4.020  11.876 -0.0604  0.1435 -0.0642
15424W        W30555   3.304  15.593   0.798 -0.3250 -0.1202 -0.1691
15425W        W30556  11.238   6.474   1.339 -0.0673 -0.0510  0.0754
15426W        W30557  14.847  14.270   5.212 -0.0428 -0.1990 -0.1158
15427W        W30558   1.839  16.336   4.968  0.1395  0.3768 -0.1855
15428W        W30559   5.208  13.625  15.194 -0.2283  0.2185 -0.1896
15429W        W30560   6.739  10.181   1.228 -0.0514  0.4192 -0.1029
15430W        W30561   4.382   4.809   4.994 -0.1180  0.3597 -0.2275
15431W        W30562  13.241  13.426  14.800  0.0321 -0.0423  0.0819
15432W        W30563   6.563   1.963  11.642 -0.1997 -0.2019 -0.4211
15433W        W30564  13.819   4.825  13.966 -0.1138 -0.0068 -0.1192
15434W        W30565   8.161   2.040   5.113  0.0888 -0.0549 -0.2161
15435W        W30566   9.653   3.618   1.667  0.1191 -0.0416  0.0565
15436W        W30567   9.691  16.447  12.211  0.2740  0.1143 -0.1111
15437W        W30568  17.402   5.098   2.154 -0.1219 -0.1586 -0.1483
15438W        W30569  11.293   9.534  11.650 -0.0846  0.0909  0.2905
15439W        W30570   9.037   3.196  14.004  0.0955 -0.0399  0.0119
15440W        W30571   4.652  14.011   1.954 -0.0883 -0.0775 -0.2678
15441W        W30572   2.401   1.875  14.991  0.0038  0.2178 -0.1844
15442W        W30573  14.361  14.254   1.973  0.0406  0.1637 -0.0014
15443W        W30574   9.703   5.826   2.640 -0.2975  0.0126 -0.0797
15444W        W30575   2.607   3.562   0.820  0.2543 -0.0133  0.1423
15445W        W30576  16.593   1.616   1.216  0.0972 -0.0269  0.0285
15446W        W30577   2.263   8.858  15.958 -0.0274  0.0615  0.2281
15447W        W30578   2.478   5.562   3.137 -0.1329 -0.1384  0.0469
15448W        W30579   6.470  14.905  11.224  0.0089  0.0955  0.2321
15449W        W30580  17.548  15.098  14.255  0.1528  0.0423  0.3540
15450W        W30581   6.772   3.398   3.463  0.1639 -0.0935  0.0592
15451W        W30582  14.933  14.168   1.756  0.0631  0.0751 -0.1187
15452W        W30583   8.967   8.926   1.734  0.1658 -0.0376  0.1295
15453W        W30584  15.464  10.162  11.687  0.2626  0.3449  0.0806
15454W        W30585   7.510   4.290   3.734  0.0169  0.1362 -0.0256
15455W        W30586   1.096   6.207  14.436 -0.3694  0.0638  0.4136
15456W        W30587   5.653  11.723   3.919 -0.0481 -0.1703  0.2129
15457W        W30588   7.392   5.157  15.515  0.2921 -0.0221 -0.2338
15458W        W30589   7.212  11.287  16.156 -0.1812  0.0820  0.3532
15459W        W30590  11.139  12.084   1.438  0.1646 -0.1103  0.1233
15460W        W30591  17.668  13.825   9.595 -0.0421 -0.2194  0.0094
15461W        W30592   4.559  10.584   4.087 -0.3620  0.0787 -0.1770
15462W        W30593  16.220   1.705   0.870  0.0486  0.0364 -0.1040
15463W        W30594  16.584   4.942   4.238 -0.1791  0.0527 -0.2276
15464W        W30595   7.701   9.613   3.570  0.1103  0.0774  0.1330
15465W        W30596  16.737  10.788   0.371  0.1873  0.0212  0.1632
15466W        W30597   3.527   8.645  11.996  0.0154  0.2548  0.1055
15467W        W30598  13.128   4.441  11.876  0.0328 -0.1888 -0.0643
15468W        W30599   4.345  12.675  16.073  0.0359  0.2379 -0.2600
15469W        W30600   6.524  13.164  12.082 -0.2161 -0.0225 -0.0538
15470W        W30601   6.936  16.742   2.271 -0.2285 -0.1293  0.0460
15471W        W30602  16.907   1.764   5.174 -0.0536 -0.4113  0.1761
15472W        W30603  18.025   2.629   2.828 -0.2582 -0.0638 -0.1631
15473W        W30604   7.070   7.535  13.400  0.0694  0.2684 -0.3328
15474W        W30605  17.337  12.762   5.437  0.1969 -0.1431 -0.0003
15475W        W30606  10.333   6.488   4.767 -0.0434 -0.0698 -0.0758
15476W        W30607  17.162   9.118   4.078  0.0232  0.2623  0.1299
15477W        W30608  16.409   3.844  11.284  0.0058  0.1080 -0.0303
15478W        W30609  10.635   8.130  15.164 -0.2156 -0.0151  0.4363
15479W        W30610   9.435  10.638  12.504  0.2824  0.0784 -0.0788
15480W        W30611  10.435  16.439   1.061 -0.2198  0.0808  0.1506
15481W        W30612   9.061   2.997  13.252 -0.0524  0.0582 -0.0155
15482W        W30613  17.412  16.631  14.864  0.2501 -0.0476 -0.2206
15483W        W30614   8.586   3.765   5.157 -0.1597  0.1733 -0.1062
15484W        W30615  11.949   1.648  11.803 -0.0356  0.0415 -0.4670
15485W        W30616   8.786   4.455   3.156 -0.3516 -0.1090 -0.2649
15486W        W30617  14.614   1.272  12.664  0.0975  0.0269 -0.0519
15487W        W30618   8.077   4.797   5.129  0.0972  0.0114  0.1741
15488W        W30619   3.416  10.205  13.012 -0.2398 -0.2429  0.1605
15489W        W30620  11.637   2.669  12.037 -0.1652 -0.3878 -0.0288
15490W        W30621   2.745  16.590  11.150 -0.0359  0.0246 -0.3454
15491W        W30622  17.285   6.737   0.039  0.3737  0.0884 -0.1624
15492W        W30623   5.928  16.665   0.055  0.1686  0.0319  0.0657
15493W        W30624   3.346   8.932  13.345  0.2014 -0.1432 -0.2968
15494W        W30625   0.168   7.486   0.052  0.1395 -0.1401 -0.1342
15495W        W30626  14.513  14.413  10.768  0.3184  0.2247  0.0965
15496W        W30627  15.354  14.249   0.513 -0.2053 -0.2365  0.2623
15497W        W30628   6.034   2.022  15.724 -0.0505  0.1006 -0.3787
15498W        W30629  10.080  14.005   2.466 -0.0531 -0.0776  0.0939
15499W        W30630  13.807   0.370   5.492 -0.0682  0.0624  0.0598
15500W        W30631   5.879  12.566  13.240 -0.1364 -0.0311 -0.0329
15501W        W30632   9.488  12.933   4.580 -0.0745  0.1590  0.0175
15502W        W30633   9.090  17.479   0.816 -0.0093 -0.0606  0.4480
15503W        W30634  12.716  10.731   1.077  0.2830 -0.2634 -0.1362
15504W        W30635   5.350   0.458  14.485 -0.2363 -0.2265 -0.0138
15505W        W30636   8.103   6.621   3.926 -0.3583  0.0697  0.0563
15506W        W30637  16.713  14.912   3.796 -0.0803  0.1015 -0.0235
15507W        W30638   4.423  14.988  13.389  0.3258  0.0444  0.1545
15508W        W30639   8.946  17.759   4.402  0.0432  0.0980  0.1643
15509W        W30640  13.372   1.273  13.286 -0.0483 -0.0068 -0.1323
15510W        W30641   4.748  15.962   2.209  0.2417 -0.0735 -0.2501
15511W        W30642   4.031  11.283   3.647  0.0233  0.1409 -0.4197
15512W        W30643   2.436   2.097   3.905 -0.0973  0.0868  0.0058
15513W        W30644  13.725  17.316   3.307 -0.2180  0.2266  0.0312
15514W        W30645   4.248  15.519  10.823 -0.0147 -0.1291 -0.1001
15515W        W30646   5.554  17.027   3.505  0.3167  0.2595  0.1112
15516W        W30647  15.883  10.459   4.938 -0.0720 -0.0157 -0.2598
15517W        W30648  16.229  11.357  11.459 -0.2650 -0.1158 -0.2329
15518W        W30649   4.456  13.761  14.759 -0.3306 -0.0265  0.0511
15519W        W30650  17.409   0.495   5.710 -0.0273  0.0207  0.0452
15520W        W30651   6.750  13.717   4.794 -0.0475  0.1328 -0.0488
15521W        W30652   6.294   4.873  16.084  0.0224  0.0051  0.4620
15522W        W30653   2.047   9.255  15.000 -0.0855  0.1823 -0.0930
15523W        W30654  10.115   8.659   4.475 -0.0297  0.0822  0.1614
15524W        W30655   1.070  10.317   2.722  0.2502 -0.0342 -0.1292
15525W        W30656   6.976   5.221   3.859 -0.4296  0.1415  0.1088
15526W        W30657  14.237   8.476   0.354  0.0341  0.0629 -0.2583
15527W        W30658   5.232   4.329  13.368  0.1705  0.0421 -0.0304
15528W        W30659  11.406   5.642   3.146  0.0092  0.1325  0.2681
15529W        W30660  15.550   0.604   2.995  0.1639 -0.2751  0.1545
15530W        W30661  14.500  11.720   4.710  0.1502  0.1773  0.0180
15531W        W30662  13.624   1.814   2.639  0.2856 -0.0970 -0.2029
15532W        W30663  17.268   8.530  15.418 -0.0753 -0.1265 -0.2751
15533W        W30664   2.436   9.039   4.622  0.0807  0.1321  0.2140
15534W        W30665   1.602   7.691   4.666 -0.0442 -0.2242 -0.0733
15535W        W30666  11.007   4.322  11.973  0.1659  0.0543  0.0760
15536W        W30667   5.506   8.008   0.071  0.1611  0.0069  0.0593
15537W        W30668   9.172  11.034  15.746  0.2323 -0.3022  0.0943
15538W        W30669  13.408  16.314  14.284  0.2751  0.0741  0.0015
15539W        W30670   5.828   2.747  15.256 -0.1204  0.0071 -0.1167
15540W        W30671  11.727  11.782   0.733 -0.0004 -0.2103 -0.0479
15541W        W30672  18.009  11.563  12.539  0.1454  0.0072  0.3714
15542W        W30673   3.707   2.393   1.506 -0.0325  0.1450 -0.0269
15543W        W30674  13.722   3.425  11.471  0.0462  0.1894 -0.2007
15544W        W30675  16.746  17.587   2.634 -0.3753  0.1185  0.1166
15545W        W30676  11.237   7.296  12.940 -0.2013  0.2274 -0.1019
15546W        W30677  15.224   1.337   3.711  0.0282  0.0491  0.0759
15547W        W30678  16.513   6.349   3.709  0.1721  0.0949 -0.2254
15548W        W30679   7.973   9.064   4.361  0.0807  0.1888 -0.2014
15549W        W30680  12.965  11.213  11.459 -0.1559  0.1013  0.1747
15550W        W30681   5.798   6.308   5.262  0.1257 -0.0379  0.2778
15551W        W30682   8.030   8.583   4.578  0.1806 -0.0166  0.0480
15552W        W30683   8.252  16.623   0.065  0.3699  0.3460 -0.0397
15553W        W30684   9.070  11.370  13.563  0.2021 -0.0718 -0.1780
15554W        W30685   0.449   6.852  10.532  0.2382 -0.0037 -0.1233
15555W        W30686   1.833  10.462   2.349 -0.0938  0.1326  0.1637
15556W        W30687   7.772  10.250  15.436 -0.1506 -0.0696  0.1060
15557W        W30688   8.487   6.138   1.763 -0.0362 -0.0685  0.3603
15558W        W30689  14.502   9.928  11.499 -0.0389 -0.0450  0.0232
15559W        W30690  11.170  16.434  12.110 -0.0994  0.2506  0.1321
15560W        W30691  13.010   1.354   5.304  0.0734  0.1040 -0.0561
15561W        W30692   4.624   9.596   4.191 -0.1220  0.0502  0.1301
15562W        W30693   0.530   1.858  12.501  0.0332  0.1393 -0.1957
15563W        W30694  13.508  13.296  13.102  0.2262 -0.1202 -0.1373
15564W        W30695   4.079   5.738   6.248 -0.1344  0.2957 -0.0616
15565W        W30696  11.327   0.877  11.833 -0.1112  0.1033 -0.0301
15566W        W30697   7.393   5.515   3.178 -0.1007  0.0205 -0.0107
15567W        W30698   7.057   5.118   3.374 -0.1113  0.4176  0.0092
15568W        W30699   7.753   2.056  13.652  0.1525  0.1352  0.1377
15569W        W30700   4.344   7.217   4.492  0.1992  0.2326 -0.0197
15570W        W30701   0.906   0.946   1.845  0.0232  0.0279 -0.0032
15571W        W30702   4.244   7.447   4.018  0.2002 -0.0860 -0.0691
15572W        W30703   3.781   9.353  10.335  0.1050  0.0480 -0.0747
15573W        W30704  10.998  15.078   0.268 -0.0675 -0.1446  0.1950
15574W        W30705  13.630  10.303   6.434 -0.0320  0.2665 -0.1040
15575W        W30706   3.731  14.066   4.599 -0.1583 -0.1981 -0.0296
15576W        W30707   4.079  14.626  15.931 -0.0764  0.2207 -0.1151
15577W        W30708   4.504   7.852   1.723 -0.0419 -0.0297 -0.0833
15578W        W30709  12.528  17.048  14.014 -0.1814 -0.0454  0.1514
15579W        W30710  10.326   9.888   2.383 -0.0645 -0.0757  0.1826
15580W        W30711  11.176   1.966   2.527 -0.1396  0.0795 -0.0432
15581W        W30712  10.072   7.753   0.315  0.1449  0.0310 -0.6627
15582W        W30713   2.439   7.799   2.586  0.0382  0.4597 -0.2467
15583W        W30714  10.408   2.241   1.603 -0.2247  0.1159  0.0540
15584W        W30715   6.026  11.832  15.554 -0.1580 -0.0765  0.1011
15585W        W30716  12.435  11.634   0.766  0.1968 -0.1030 -0.2509
15586W        W30717   3.311   1.488   3.319  0.1223 -0.0239  0.1416
15587W        W30718  12.639  14.687  15.851 -0.0986 -0.0788 -0.1041
15588W        W30719   7.951   1.608  12.346  0.1382 -0.1000  0.0833
15589W        W30720   6.567   3.914  15.112  0.1048 -0.1507 -0.1868
15590W        W30721  13.295   6.031   5.650 -0.1535 -0.3948 -0.2485
15591W        W30722   8.963  16.794   2.552 -0.1222 -0.2659  0.1694
15592W        W30723  12.282   0.345   4.433 -0.0564 -0.0284  0.0494
15593W        W30724  17.985  10.113   2.261 -0.2692 -0.1932 -0.1910
15594W        W30725  12.817  17.937   0.790  0.2119  0.0242 -0.2768
15595W        W30726  13.545   7.719  14.930 -0.0599 -0.0502  0.2842
15596W        W30727   2.042  11.625   3.957 -0.2858 -0.1549  0.0224
15597W        W30728   3.232   0.602  13.089 -0.1534  0.0997 -0.0112
15598W        W30729   7.708  11.778   0.423  0.1264 -0.1504  0.1032
15599W        W30730  15.181   0.537   0.550  0.3956 -0.3903  0.0809
15600W        W30731   9.925  17.503  13.315 -0.0610 -0.0472  0.0060
15601W        W30732   4.811   9.731  10.994  0.0682  0.3769 -0.1104
15602W        W30733   1.756   5.276   1.396 -0.2970 -0.0232 -0.1526
15603W        W30734   1.300  13.691  14.093  0.0406 -0.2608 -0.0017
15604W        W30735   5.676  14.538  12.400 -0.0936  0.0247  0.2723
15605W        W30736   2.996   7.887  10.899 -0.2773 -0.1668  0.4062
15606W        W30737   0.514  17.500   0.951 -0.0351  0.2002 -0.2544
15607W        W30738  16.131   0.811  10.424  0.0956 -0.2208 -0.0879
15608W        W30739   0.603  13.159   1.221  0.2669 -0.1962  0.0107
15609W        W30740   9.557   3.192   1.943 -0.0436  0.1471 -0.1864
15610W        W30741   3.787   2.973  11.577 -0.1577  0.0208  0.3797
15611W        W30742  12.664  17.664  14.502  0.0804  0.0665  0.1134
15612W        W30743  11.045  11.191  10.463 -0.0675  0.3883  0.2378
15613W        W30744   7.031  17.401   0.746  0.0751  0.0051  0.1228
15614W        W30745   7.508   1.546   3.782  0.2276  0.1416 -0.6499
15615W        W30746  16.898   9.129   1.625  0.1791  0.1214 -0.0583
15616W        W30747  12.204   2.390   0.593  0.0747 -0.0796  0.2037
15617W        W30748   1.495   0.864  12.168  0.2234  0.3009 -0.3498
15618W        W30749  15.872   1.494  14.525 -0.3429  0.0201 -0.2390
15619W        W30750  12.263   6.792   2.865  0.1096  0.1927  0.0597
15620W        W30751  11.535   5.701  15.243 -0.1444 -0.0334  0.3446
15621W        W30752  16.308   3.940   1.368  0.0674 -0.1460  0.2116
15622W        W30753  12.900  13.672  10.339  0.2079  0.0451 -0.0109
15623W        W30754  11.699  17.237   0.791 -0.2150 -0.0878  0.0839
15624W        W30755   0.442   1.305   3.842 -0.1388 -0.1336 -0.0652
15625W        W30756   7.687  12.727   4.827 -0.0663 -0.2855 -0.3232
15626W        W30757  16.815  11.194  12.983 -0.7001  0.2407  0.0936
15627W        W30758   6.515   6.036  15.703  0.4194 -0.1861  0.3902
15628W        W30759   2.562   3.530   0.125 -0.0002 -0.0070  0.0828
15629W        W30760  11.870   8.616   4.844 -0.1679 -0.0556 -0.0392
15630W        W30761   3.023  15.776  13.963 -0.0384 -0.1372  0.0578
15631W        W30762   1.258   4.164   5.495  0.2323  0.2547 -0.0731
15632W        W30763   3.403   0.829   3.563  0.0625  0.2108 -0.2567
15633W        W30764   8.959  14.582  13.798  0.2147  0.1834  0.1093
15634W        W30765  14.960  16.101   2.753  0.2974 -0.1334 -0.0163
15635W        W30766   7.720   6.032   5.648  0.0427  0.2806  0.1496
15636W        W30767  15.877  14.845  16.084 -0.0366 -0.0379 -0.1500
15637W        W30768  11.210  16.549   2.190  0.1823  0.0650  0.1726
15638W        W30769   6.383  14.080  11.652 -0.1577  0.0535  0.1628
15639W        W30770   8.878  15.074   1.708 -0.0638 -0.0363 -0.4042
15640W        W30771   6.311   5.570   0.808 -0.0359  0.0167 -0.0467
15641W        W30772  12.205   3.878  15.059 -0.2536  0.0463 -0.3298
15642W        W30773   8.505   7.416   5.518  0.0957 -0.0794 -0.2552
15643W        W30774   7.391  17.117  15.336 -0.2984 -0.0158  0.2347
15644W        W30775   6.827   6.166   3.809 -0.0022 -0.3315 -0.1987
15645W        W30776   5.694  13.702   5.710  0.0642 -0.1470 -0.2549
15646W        W30777  15.898  15.090  13.982 -0.0193 -0.0729  0.0923
15647W        W30778  10.533   9.020  11.550  0.1163 -0.0336 -0.0903
15648W        W30779   0.304  13.759  11.336  0.3342 -0.0503 -0.4702
15649W        W30780   2.514   9.187   6.282  0.1073  0.0990 -0.3448
15650W        W30781   8.534  18.035  11.134 -0.0606 -0.0313  0.1291
15651W        W30782  18.002  13.576  11.078 -0.0175 -0.1115 -0.1931
15652W        W30783  13.155   5.718  12.979  0.1583 -0.0081 -0.3143
15653W        W30784  11.624   3.605  15.397 -0.1322  0.0772  0.2398
15654W        W30785   1.610  17.983  15.152 -0.0881  0.0857 -0.1857
15655W        W30786   4.341   6.999   0.175  0.0184 -0.2335  0.5169
15656W        W30787   7.383  13.192   4.980  0.1605 -0.1479  0.1949
15657W        W30788  16.735   5.674   4.689 -0.0561 -0.1422 -0.0507
15658W        W30789   1.285  11.826  15.793 -0.0120  0.2225  0.1611
15659W        W30790   9.165   9.106  15.986  0.2531 -0.0472 -0.2223
15660W        W30791  16.705  16.948   5.538 -0.0944 -0.2076 -0.0441
15661W        W30792  16.973   0.480   1.018  0.1051 -0.1128 -0.0460
15662W        W30793  17.732  15.320   3.140 -0.1233  0.1452  0.0321
15663W        W30794   5.925  14.982  11.536 -0.1322  0.0202  0.2746
15664W        W30795   5.553   1.330  12.588 -0.2491  0.2075 -0.1108
15665W        W30796  16.678   0.404  12.421  0.1864  0.1029  0.0909
15666W        W30797  18.100  12.626   3.976  0.2441 -0.0083 -0.0193
15667W        W30798   7.918  14.065  14.542  0.0563 -0.0658 -0.2498
15668W        W30799   3.011  13.187  15.270  0.1431  0.2147  0.2003
15669W        W30800  11.867   9.292  14.067 -0.0420 -0.1851 -0.3289
15670W        W30801   3.388   8.348  15.685  0.0905  0.0411  0.1500
15671W        W30802  11.936   8.804  12.845 -0.0792  0.2881  0.0421
15672W        W30803  11.401  11.809  12.366  0.1068 -0.0692  0.0642
15673W        W30804  10.764   9.400  10.712  0.1211 -0.0424 -0.1487
15674W        W30805   7.167  14.026   5.542 -0.0808 -0.3222 -0.3175
15675W        W30806  11.220  16.366   0.393 -0.2038 -0.3577 -0.0869
15676W        W30807  17.756  16.963  14.644  0.2051 -0.3664 -0.0766
15677W        W30808  15.334  11.775   4.820  0.0900 -0.3648 -0.2708
15678W        W30809  14.777   8.971   2.398  0.0031  0.0418  0.0921
15679W        W30810  12.752   4.607  11.217  0.1057  0.2078  0.1877
15680W        W30811  11.772   9.181   0.390 -0.0125  0.5047  0.0364
15681W        W30812  10.445  12.617  10.109 -0.0956 -0.1588 -0.0359
15682W        W30813  13.762   9.670   1.626 -0.1485  0.0867  0.0050
15683W        W30814  11.830   2.724  14.772 -0.1596 -0.0289  0.0407
15684W        W30815  12.103   6.190   5.366 -0.1101  0.1587  0.1124
15685W        W30816   5.632   4.677   3.016 -0.0699  0.0427  0.3240
15686W        W30817  17.058   1.460  13.986  0.2151 -0.3540  0.1655
15687W        W30818  10.467  17.833   1.964  0.0783 -0.1963  0.3153
15688W        W30819   5.230   9.985   1.620  0.1995 -0.1975  0.1157
15689W        W30820  17.926  10.260  15.803  0.0558 -0.0905  0.0265
15690W        W30821  11.576  11.383  12.200  0.0631 -0.1684  0.0197
15691W        W30822  17.204   5.665   2.906  0.2654 -0.2175 -0.0491
15692W        W30823   5.754  12.510  14.211  0.2395  0.2252 -0.2554
15693W        W30824   4.631   7.246   1.172 -0.0553  0.0377  0.0073
15694W        W30825  17.745  16.837  12.518  0.0551  0.1010 -0.1295
15695W        W30826   7.423   6.054  12.248  0.0695  0.2425  0.0390
15696W        W30827   2.921  11.404   1.654 -0.3332  0.1929 -0.3105
15697W        W30828  12.907   2.394   2.877  0.1143  0.5189  0.0262
15698W        W30829  12.476   7.046  10.949 -0.2999 -0.0368  0.2704
15699W        W30830   3.578   4.257   4.067  0.0833  0.1532 -0.0311
15700W        W30831   9.004   0.035  16.006  0.0020 -0.2448 -0.1963
15701W        W30832  16.782   8.493   3.451  0.0143 -0.0698  0.3097
15702W        W30833  17.608   1.008  16.113  0.2562 -0.0181  0.0938
15703W        W30834  14.650  17.751  10.701  0.1104 -0.0574 -0.0394
15704W        W30835  14.950  12.938  13.627 -0.0434 -0.2678  0.0972
15705W        W30836  11.297   8.422   4.188  0.2499  0.2147 -0.2470
15706W        W30837   7.136  14.732   4.721 -0.0474 -0.0011 -0.0210
15707W        W30838   5.374   0.535   1.724  0.0213  0.2497  0.2134
15708W        W30839   9.937  12.092  13.452 -0.2730  0.2277  0.3120
15709W        W30840   0.736   8.878   4.264 -0.1663 -0.0129  0.0544
15710W        W30841   8.746   6.556   1.809 -0.2074 -0.2790 -0.0835
15711W        W30842   1.797  11.489  12.836  0.3267  0.4417 -0.1745
15712W        W30843   9.584   9.884   5.722 -0.1367  0.1035 -0.2211
15713W        W30844  11.808   4.434  12.912  0.0262 -0.0883  0.2761
15714W        W30845   5.349   6.477  14.028 -0.0572 -0.1091  0.1598
15715W        W30846   9.919  12.775   1.022  0.0531 -0.3095  0.0201
15716W        W30847  12.452   6.698  14.673 -0.2417  0.0400 -0.3839
15717W        W30848   4.952  15.972   4.914 -0.1733  0.2430  0.0413
15718W        W30849  12.815   5.461  11.408  0.3501  0.0167  0.0794
15719W        W30850   1.230   5.146  15.403 -0.2563  0.1063 -0.0188
15720W        W30851   3.190  15.503   3.028 -0.0867  0.2524 -0.2479
15721W        W30852   3.897   6.434   3.830 -0.0057 -0.1881 -0.0708
15722W        W30853  16.824   3.996   2.287 -0.1146  0.1966 -0.0798
15723W        W30854  13.891   3.239   0.236  0.1070 -0.2382 -0.0575
15724W        W30855  12.361  14.940  15.025  0.0187  0.0272  0.0294
15725W        W30856   4.351   4.118   5.759  0.4261 -0.0225  0.2118
15726W        W30857  13.963  16.779  15.431  0.2292 -0.0056  0.3881
15727W        W30858  15.790  16.493  11.623 -0.1740  0.1050  0.0914
15728W        W30859  14.945   4.164   4.996  0.2621  0.1112  0.0731
15729W        W30860  15.329   2.565  14.967 -0.0850  0.1595 -0.2245
15730W        W30861  12.306  13.077  13.866 -0.1018 -0.0954  0.1176
15731W        W30862   8.369  10.674  15.307 -0.1669  0.2002  0.2373
15732W        W30863   0.257   8.771   5.146  0.0430 -0.1899 -0.1047
15733W        W30864   1.688  17.439  13.871 -0.1176  0.1391 -0.0208
15734W        W30865   8.039   4.519   4.062  0.1401 -0.0926  0.1163
15735W        W30866   0.963  12.574  10.235 -0.2174  0.0748 -0.0146
15736W        W30867   2.124  16.696   4.731  0.2360 -0.2304 -0.2258
15737W        W30868  11.219   0.746  12.353 -0.0094 -0.0146 -0.4867
15738W        W30869   7.734  15.880  13.865  0.3976  0.0419 -0.1896
15739W        W30870  14.693   2.887   2.658 -0.2506 -0.1228 -0.0307
15740W        W30871   9.204   9.215   0.913 -0.1154  0.0241  0.1260
15741W        W30872  17.344  15.023   1.950  0.1145 -0.0806  0.0824
15742W        W30873  13.815  13.985   3.733 -0.0587  0.1867  0.0033
15743W        W30874  17.838  13.988  13.812 -0.1436  0.0288  0.0680
15744W        W30875   5.810   9.204   1.782  0.2973 -0.2837 -0.2511
15745W        W30876   8.409  13.988  10.733  0.0341 -0.0917 -0.1004
15746W        W30877   6.255   3.561   1.842 -0.0039 -0.0172 -0.0876
15747W        W30878  14.026  16.304  13.643 -0.0596 -0.0443  0.2963
15748W        W30879  11.236  10.131   2.509  0.0066 -0.0793 -0.1503
15749W        W30880   2.467  13.196  12.775  0.1141 -0.3125  0.0418
15750W        W30881   7.418  12.525  13.391  0.0829  0.1197 -0.1803
15751W        W30882   8.862   7.058   1.857 -0.1675 -0.3452  0.2144
15752W        W30883   4.004  17.288  12.959  0.1589  0.0157  0.1956
15753W        W30884   5.398  15.260  13.242 -0.0466  0.2001  0.1126
15754W        W30885  14.712   2.439   2.337 -0.2774 -0.1893 -0.0238
15755W        W30886  13.709   7.479   0.253  0.0369 -0.0392  0.3058
15756W        W30887   0.930   1.945  11.507  0.2347  0.0569  0.0519
15757W        W30888  11.034   2.228   0.029 -0.1542 -0.1759 -0.3797
15758W        W30889   0.845  14.322   0.255 -0.0732 -0.1551  0.0551
15759W        W30890  17.937   2.840   1.934 -0.2799  0.0555  0.0540
15760W        W30891  13.115  13.896   1.454  0.3807  0.3659 -0.1671
15761W        W30892  15.718  12.161  11.742  0.2272  0.3080 -0.1426
15762W        W30893  11.690   9.159   1.256 -0.1418 -0.1884 -0.0776
15763W        W30894   6.322  15.721  14.698  0.1648 -0.0321 -0.1491
15764W        W30895   1.520   1.640   1.766  0.1001  0.2216  0.0899
15765W        W30896  13.725   8.703  13.946 -0.0186  0.0272 -0.2114
15766W        W30897  15.704  12.898   1.861  0.2330 -0.2659  0.2722
15767W        W30898   4.979   1.309  14.669 -0.0753 -0.0948 -0.1858
15768W        W30899   3.612  12.828  14.060 -0.1484  0.0591 -0.1028
15769W        W30900   8.739   5.178  13.629 -0.1945 -0.0359 -0.1574
15770W        W30901  17.578   3.456  12.944  0.0976  0.0860  0.2236
15771W        W30902  12.547  11.080  13.576  0.1573 -0.2446  0.1103
15772W        W30903  17.264   2.181  11.043 -0.1586 -0.1800  0.2257
15773W        W30904  15.988   8.631  10.346  0.0438 -0.5066 -0.3787
15774W        W30905  13.667  17.642  12.958  0.2323 -0.0415  0.0663
15775W        W30906  14.537   8.011   0.238 -0.1201 -0.0903 -0.1330
15776W        W30907  13.291   3.661  13.975  0.1328 -0.1468 -0.0687
15777W        W30908  17.229   9.682  14.608 -0.0588 -0.0408 -0.1069
15778W        W30909  11.029   0.083   4.661 -0.3692  0.1975  0.0080
15779W        W30910   3.177   7.733  14.574 -0.0293 -0.0253 -0.0141
15780W        W30911   3.210  12.877   4.167 -0.0594 -0.2235 -0.0065
15781W        W30912  12.480   2.318   5.358 -0.2873  0.1018 -0.2591
15782W        W30913   3.592   9.774   1.947 -0.3532 -0.0347  0.0151
15783W        W30914  10.162  17.278   1.582 -0.0641 -0.1363 -0.2753
15784W        W30915  11.690  17.811   1.835 -0.1439  0.1103 -0.3890
15785W        W30916  16.040  10.380  15.674 -0.2360  0.2430  0.0568
15786W        W30917   9.337   8.069   0.727 -0.0004 -0.1428  0.1308
15787W        W30918  12.253   2.430   4.951  0.0846  0.1580 -0.2852
15788W        W30919   2.804  16.789  16.097 -0.0731  0.0419 -0.0602
15789W        W30920  11.566   6.678   3.444 -0.1357 -0.0378 -0.2788
15790W        W30921  12.137   7.499  15.067  0.1518  0.1106 -0.0526
15791W        W30922  11.476   3.075  10.565 -0.0170 -0.0778 -0.2150
15792W        W30923  13.308   2.828  11.974  0.0909  0.2917 -0.2189
15793W        W30924  10.924  17.219  14.780 -0.1218  0.0505 -0.0694
15794W        W30925   4.061  12.980  13.881 -0.0368 -0.0429  0.2163
15795W        W30926   3.860   5.603   2.438 -0.0487  0.3892 -0.1797
15796W        W30927  10.061  10.776  15.344  0.1040 -0.2432  0.0908
15797W        W30928   6.356  12.708   0.759  0.0751  0.0241  0.2029
15798W        W30929   6.415  15.584  11.985  0.1505 -0.1329  0.2772
15799W        W30930   6.508   8.847   4.218 -0.0169  0.1515  0.0599
15800W        W30931   2.284  16.427  11.073  0.2174  0.3127 -0.0957
15801W        W30932   7.750   2.358   5.206 -0.0664  0.0593  0.2963
15802W        W30933  12.734  11.531  13.557 -0.2512 -0.0909  0.2303
15803W        W30934   3.442  12.372   3.595  0.0523 -0.3494 -0.3535
15804W        W30935   4.677   7.826  10.598  0.0270 -0.0163 -0.2093
15805W        W30936   6.821   8.371  14.291 -0.3785  0.2161 -0.1299
15806W        W30937   4.894   2.669   0.365 -0.3115 -0.1245  0.1108
15807W        W30938   4.996  11.331  11.814  0.0639  0.1683 -0.0846
15808W        W30939  17.844   0.420  13.945  0.0323  0.0168  0.0002
15809W        W30940  14.926   0.656  16.036  0.0022 -0.0793 -0.1368
15810W        W30941   5.907   3.522   0.512  0.4128  0.2282  0.1931
15811W        W30942   8.866   8.206  12.714  0.4070 -0.1817  0.2364
15812W        W30943   1.669   0.773   2.829  0.0660 -0.1477  0.1479
15813W        W30944   6.691   5.839   2.446 -0.4425 -0.1186  0.1661
15814W        W30945   1.752  11.220   0.640 -0.1069  0.0059 -0.0744
15815W        W30946  17.706  12.313  14.488 -0.2060  0.1712 -0.0086
15816W        W30947  13.256  10.248   0.924 -0.1118  0.0877 -0.0537
15817W        W30948   7.793  15.877  12.678 -0.0487  0.2248  0.2035
15818W        W30949  13.417  17.980  11.517  0.0577 -0.0805  0.0467
15819W        W30950   2.616  11.748  12.921 -0.0403  0.0554  0.0698
15820W        W30951   8.264   2.476  15.838 -0.3971  0.0653  0.0136
15821W        W30952   9.692   0.007  14.080 -0.0555 -0.1664 -0.0690
15822W        W30953  13.613   3.942   0.700 -0.2970  0.0696 -0.0377
15823W        W30954  17.267   5.983   3.792 -0.1964 -0.0790 -0.1131
15824W        W30955   9.866  17.948   0.159  0.2216  0.0801 -0.1359
15825W        W30956  16.236  11.183  12.823  0.0513  0.2805  0.0205
15826W        W30957  15.503  13.886  14.615 -0.3306  0.3515  0.0797
15827W        W30958  12.490   0.366   0.714  0.0266 -0.0581  0.1075
15828W        W30959   8.597   2.525  16.199  0.3041  0.1655 -0.0867
15829W        W30960   2.992  16.406  11.680  0.0369 -0.2036 -0.0716
15830W        W30961   3.225   6.339  12.816  0.0964  0.1222 -0.3072
15831W        W30962   8.341   6.913  15.615  0.1023  0.1330  0.3240
15832W        W30963  12.087   6.057  11.259  0.0890 -0.2708  0.1158
15833W        W30964  11.349   4.718   4.703  0.0421  0.2440 -0.1786
15834W        W30965  15.412  17.117  13.540 -0.1958 -0.2313 -0.1577
15835W        W30966   2.194  16.227  13.893  0.2738 -0.2105  0.1710
15836W        W30967  17.650   5.776   0.223  0.3339 -0.1915 -0.0478
15837W        W30968   2.613   2.629  15.824 -0.0200 -0.0952  0.2327
15838W        W30969  12.134   4.718   0.363 -0.3963 -0.3172 -0.0187
15839W        W30970  10.285  16.681  14.086  0.0674 -0.2378 -0.0766
15840W        W30971  14.957   6.042  16.172  0.1460  0.1883 -0.0715
15841W        W30972  17.242   4.250   2.304 -0.1014 -0.1148 -0.1997
15842W        W30973   5.621   3.990  11.887 -0.0251  0.1008  0.0147
15843W        W30974  10.188  15.789   0.828  0.0825 -0.0896  0.0009
15844W        W30975   8.089  13.403   9.644  0.0031  0.3973  0.0677
15845W        W30976   3.715  15.706   2.989 -0.0310 -0.3177  0.0189
15846W        W30977   5.740   7.924  12.494 -0.1353 -0.0548 -0.0342
15847W        W30978  13.215  12.274  15.524 -0.0631 -0.1742  0.2712
15848W        W30979  11.146  11.485   1.418  0.0659  0.0259 -0.1411
15849W        W30980   1.377   2.617   4.860 -0.1390 -0.2346 -0.0513
15850W        W30981   5.396   8.731  11.330 -0.1937  0.1147 -0.1171
15851W        W30982   1.913  13.506  12.440  0.0320 -0.2444  0.1177
15852W        W30983  15.839  13.089  14.565 -0.1725 -0.2324  0.1023
15853W        W30984  17.314  12.056   0.177 -0.1209  0.1918 -0.3573
15854W        W30985   7.042   8.322   4.767 -0.1588 -0.0796  0.0892
15855W        W30986   4.944   4.656  11.767  0.0403 -0.0446  0.3993
15856W        W30987   9.759   6.015   3.245 -0.0022 -0.0765 -0.0657
15857W        W30988   4.400  13.613  16.201  0.1920 -0.0409 -0.1684
15858W        W30989  12.165  18.032   5.499  0.0844 -0.0002 -0.0762
15859W        W30990  13.259   8.141   4.161 -0.1900 -0.1969  0.0983
15860W        W30991   4.498   7.048   3.923 -0.0702 -0.1233 -0.0388
15861W        W30992  14.036  14.007   4.902  0.0794  0.1282 -0.0299
15862W        W30993  16.931   2.610  12.581  0.0277 -0.2562 -0.0237
15863W        W30994   1.357  11.299   2.219 -0.0633  0.2535 -0.1207
15864W        W30995  17.952   0.860  10.774 -0.2199 -0.1502  0.0390
15865W        W30996   0.448  11.514   0.997 -0.0840 -0.2230 -0.2206
15866W        W30997  14.814  11.915  13.436 -0.2513 -0.1621  0.0407
15867W        W30998  10.605  15.917   1.122  0.1389 -0.0197 -0.3428
15868W        W30999   1.060   2.649   4.362 -0.0086  0.1640  0.0436
15869W        W31000  15.802  16.329  12.595 -0.1668 -0.0432 -0.4473
15870W        W31001  15.892   8.152  15.747 -0.2843  0.0725 -0.1585
15871W        W31002  15.745   4.990   5.224  0.0788  0.0840  0.1451
15872W        W31003  17.283   8.647   4.170  0.0868 -0.2089  0.0183
15873W        W31004   8.306   9.484  12.659 -0.1545  0.0836 -0.0328
15874W        W31005   8.580  10.272  14.255  0.0255 -0.0822 -0.0145
15875W        W31006  13.132   5.657  13.645  0.0802 -0.0032  0.2054
15876W        W31007  11.089  17.555  12.390  0.0995  0.1668  0.0171
15877W        W31008   7.031   9.644  12.368  0.4807 -0.1415 -0.0501
15878W        W31009  13.677   6.897  15.353  0.0694  0.2240  0.0404
15879W        W31010   5.668   5.016  15.010  0.2142 -0.1874  0.1418
15880W        W31011  16.569   7.726  12.197 -0.1103  0.0196  0.1298
15881W        W31012   6.775  16.017  11.147 -0.4084  0.0645 -0.0703
15882W        W31013  14.070  13.044   3.394 -0.0721  0.0583 -0.2921
15883W        W31014   9.228   1.032  15.767 -0.5132 -0.1726 -0.3841
15884W        W31015   8.655  10.088  14.731  0.1747  0.0024  0.0219
15885W        W31016  13.241   0.302   3.457 -0.1941  0.1192 -0.1820
15886W        W31017   5.262   3.155  11.696  0.0402  0.2358 -0.5186
15887W        W31018  17.706  11.415   6.285  0.3779 -0.1115 -0.1952
15888W        W31019   0.978   3.643   4.170  0.2475  0.3180  0.0938
15889W        W31020   6.723  11.900  10.833  0.0628 -0.0576 -0.0316
15890W        W31021   5.039   0.073  13.541 -0.1576  0.0301  0.1591
15891W        W31022   4.585  11.567  12.986  0.1669 -0.1237 -0.0227
15892W        W31023   2.215   8.788  14.051  0.1668  0.0699  0.1296
15893W        W31024  12.215   3.543  14.660  0.2282 -0.0609 -0.0855
15894W        W31025   6.103  15.601  13.184  0.1476  0.1398  0.2027
15895W        W31026   4.847  16.835  13.243 -0.1004 -0.3097  0.2103
15896W        W31027   1.739  14.087   0.171  0.5104 -0.0533 -0.0169
15897W        W31028   8.852  13.380  12.055  0.1532  0.0397 -0.0661
15898W        W31029  15.923   5.274   0.138  0.3637 -0.1953 -0.0841
15899W        W31030   6.956   0.606   3.112  0.3882 -0.0005  0.1266
15900W        W31031   8.205   6.939   3.392  0.0388 -0.0109  0.0707
15901W        W31032  10.518  14.526  13.726 -0.1417  0.0629 -0.0626
15902W        W31033   1.382   1.302  15.744  0.0433  0.0572  0.1140
15903W        W31034   3.272   9.757  15.388  0.1033 -0.0966  0.0275
15904W        W31035  11.263   8.703  13.692 -0.0534  0.1329 -0.0527
15905W        W31036  10.893  17.877  15.503 -0.3592 -0.0399  0.1405
15906W        W31037  15.062  12.806  11.449 -0.0220 -0.1295 -0.0592
15907W        W31038  17.679  11.687  13.749  0.0565  0.1837 -0.0133
15908W        W31039   6.763   6.646  12.182 -0.1387 -0.0818 -0.2046
15909W        W31040   4.389  14.566   6.268  0.1644  0.1584 -0.1126
15910W        W31041   7.042  10.383  16.035 -0.1685  0.0583  0.2202
15911W        W31042  16.715   3.178   4.690  0.1282  0.0495 -0.1663
15912W        W31043  14.947  13.628  11.249 -0.0954  0.1437 -0.1793
15913W        W31044   1.055  15.982   4.936  0.0722 -0.2260 -0.0289
15914W        W31045   6.638   4.855  15.738  0.2899  0.2012  0.0909
15915W        W31046   3.044   7.848   0.849  0.0725  0.2706 -0.2094
15916W        W31047  10.833  15.608  15.342 -0.1260 -0.1867 -0.2281
15917W        W31048  13.252   5.078  15.587  0.1257  0.1385  0.1079
15918W        W31049   1.159   5.923   0.947 -0.0430 -0.1519  0.1237
15919W        W31050  13.279   9.000  13.983  0.1518 -0.1195  0.0572
15920W        W31051   3.574   1.862   2.723  0.1254  0.0965  0.1185
15921W        W31052  11.605  11.543  13.641 -0.0479  0.2260  0.0061
15922W        W31053  11.283   5.692   1.003  0.0839  0.1416 -0.0735
15923W        W31054   8.797  14.356  10.548 -0.0960 -0.0870 -0.0444
15924W        W31055  17.473  14.850  15.031  0.0359 -0.0484 -0.0354
15925W        W31056   2.157   6.312  14.387 -0.2136 -0.3608  0.0543
15926W        W31057   9.475   2.535  11.779 -0.1453 -0.0894 -0.0298
15927W        W31058   5.095   7.566   2.098 -0.0363  0.1089 -0.2021
15928W        W31059  16.670   6.681  12.396 -0.2621  0.0763  0.0773
15929W        W31060   3.901   5.408  14.358  0.2054 -0.1653  0.1932
15930W        W31061   9.780  15.601  15.863  0.0017 -0.1651  0.0609
15931W        W31062   2.361   3.327   4.564 -0.2929  0.0061 -0.0805
15932W        W31063   3.001  11.842   3.133 -0.0969 -0.1298 -0.0761
15933W        W31064  17.379  16.663   1.047  0.1807  0.0477  0.0620
15934W        W31065   0.222   9.572   4.219 -0.2774  0.0308 -0.1133
15935W        W31066  16.554  16.457  13.300 -0.1059 -0.1788 -0.0794
15936W        W31067   8.634  15.382   4.413 -0.1235 -0.0448  0.2688
15937W        W31068  16.879  17.465  15.852 -0.3942 -0.2676  0.2003
15938W        W31069   8.447  12.015  15.750 -0.0344 -0.0206 -0.0198
15939W        W31070   6.943  17.579  14.308 -0.2263  0.3928  0.2110
15940W        W31071  15.969  17.615   5.410  0.2310  0.1241  0.1319
15941W        W31072  12.615   9.997   5.573  0.1113  0.5947 -0.1339
15942W        W31073  16.729   7.997  14.822 -0.1067  0.1008 -0.2509
15943W        W31074  10.362   9.105  15.139 -0.1133  0.1638  0.0745
15944W        W31075   2.016   2.839  11.964 -0.0378 -0.1516 -0.1048
15945W        W31076   7.507  15.119   4.984  0.0866  0.1531  0.1013
15946W        W31077  14.097   5.532  12.611  0.1790 -0.3456  0.0013
15947W        W31078   5.061   1.130   3.491 -0.2366  0.0392 -0.3006
15948W        W31079   1.061   4.131   5.042  0.1851 -0.1874 -0.0527
15949W        W31080  17.077  17.928   5.145 -0.2737  0.0760 -0.3069
15950W        W31081   0.279  16.554  10.369  0.3194  0.0734 -0.1292
15951W        W31082   8.674  10.239  13.178  0.2450 -0.2119 -0.2343
15952W        W31083   9.105  11.537   0.243  0.0960 -0.2023 -0.1294
15953W        W31084  13.294  13.170   2.024  0.0032 -0.0176 -0.0391
15954W        W31085  14.931   5.061  14.627 -0.0157  0.1119 -0.3022
15955W        W31086   8.989   9.771   2.808 -0.1069 -0.0025  0.1380
15956W        W31087  14.896   0.611  13.031  0.2419  0.0423  0.1583
15957W        W31088   2.703   0.018  12.392 -0.0370 -0.0049  0.1269
15958W        W31089  15.421  10.326   5.581  0.2340  0.3504 -0.2826
15959W        W31090  10.207  10.435  10.561  0.1086  0.2920  0.1994
15960W        W31091   0.982   1.253  16.045  0.2959  0.2300 -0.1450
15961W        W31092  10.269   0.212   1.888 -0.0098  0.0093  0.0248
15962W        W31093   4.453   8.182  13.341 -0.4259  0.2538  0.0001
15963W        W31094   5.941   8.009   5.673 -0.3271  0.3698 -0.1049
15964W        W31095  13.415  17.834   4.618 -0.5022  0.3347  0.0663
15965W        W31096   1.269   9.952   3.078 -0.1440  0.1190 -0.3231
15966W        W31097  11.473  11.178   0.062  0.2473 -0.0164  0.2271
15967W        W31098  12.757  14.278   1.382 -0.0945  0.3177 -0.3052
15968W        W31099   4.263   0.689  13.362  0.0708  0.0899  0.2912
15969W        W31100   8.131  11.087   3.376  0.4702 -0.1447  0.1418
15970W        W31101  16.515  16.420  13.771  0.2759  0.2909 -0.1681
15971W        W31102   0.752   0.692  11.007 -0.1709 -0.1243 -0.0147
15972W        W31103   1.739  16.799  12.813 -0.0926 -0.1750  0.2053
15973W        W31104  16.841  17.058  12.210  0.0858  0.0235 -0.3173
15974W        W31105   0.261   1.557  15.134  0.1212  0.0122 -0.1501
15975W        W31106   6.503   4.952   5.625 -0.0181 -0.2392 -0.2697
15976W        W31107  15.966  14.331   3.525  0.2243 -0.1384  0.0964
15977W        W31108   7.348  10.894   0.200 -0.0123  0.4796 -0.0901
15978W        W31109   6.588   1.049  12.576 -0.3094 -0.1585 -0.1568
15979W        W31110  14.580  10.214   1.652  0.1131 -0.1584 -0.0231
15980W        W31111   0.641  16.592  14.472 -0.0273  0.0037  0.0221
15981W        W31112   6.156  16.275   4.397  0.2338 -0.0157  0.0610
15982W        W31113   6.027   6.112   2.119 -0.1164 -0.1506 -0.4388
15983W        W31114  13.129   6.472  14.146  0.1838  0.2585 -0.1097
15984W        W31115  16.630  16.179  12.040 -0.2078  0.2266 -0.0198
15985W        W31116  13.150  10.095  12.564 -0.2129 -0.0051  0.3176
15986W        W31117   7.654  15.496  14.584  0.1414  0.0071  0.3842
15987W        W31118   4.762  14.160  14.608 -0.3435  0.3821  0.0865
15988W        W31119  16.266  13.142  14.376 -0.0386  0.0310  0.3511
15989W        W31120  15.862   6.112  14.357  0.0653 -0.0995  0.3090
15990W        W31121  15.621  12.742  11.587  0.0419 -0.2622 -0.1680
15991W        W31122  17.854  17.098  10.670 -0.1066 -0.0809  0.3336
15992W        W31123  16.875  13.849   3.471 -0.1425 -0.2354 -0.1892
15993W        W31124   1.941  15.415   0.386  0.1927 -0.3507 -0.2043
15994W        W31125  15.032   2.561   4.693 -0.1789  0.0206  0.1438
15995W        W31126  14.206   9.524  11.806  0.1124 -0.2506  0.3502
15996W        W31127  16.922   5.199  14.718 -0.0787 -0.2171  0.0286
15997W        W31128   7.333  17.300   1.752  0.1058  0.1586 -0.0536
15998W        W31129  12.385  15.240  11.879 -0.1787  0.2496  0.0231
15999W        W31130  14.368   7.592   2.603 -0.1936  0.4942 -0.2333
16000W        W31131   6.257  17.758   0.766 -0.1215 -0.0688 -0.0059
16001W        W31132   3.482  15.651   4.924  0.3442  0.0344 -0.1463
16002W        W31133  17.456  10.029   4.353 -0.1123 -0.0933  0.0263
16003W        W31134   1.184   4.299  15.566  0.0063  0.1037 -0.2250
16004W        W31135  10.299   4.147  10.747 -0.0632  0.0041  0.1773
16005W        W31136  16.959   3.268   1.104  0.1972 -0.0899 -0.0911
16006W        W31137   7.142  17.432   1.279 -0.2017 -0.0121  0.0144
16007W        W31138  13.983   0.196   2.140 -0.0337 -0.1057 -0.1027
16008W        W31139   8.158   6.410   0.196 -0.0924 -0.2210 -0.0251
16009W        W31140  15.634   2.836  16.212  0.0048 -0.0002 -0.0612
16010W        W31141   6.416   2.512   3.736  0.2023 -0.2686 -0.1095
16011W        W31142   5.164  16.411   0.926 -0.1819 -0.0042 -0.0841
16012W        W31143   5.790  13.342   3.530 -0.1588  0.2451  0.0831
16013W        W31144  12.967  10.581  15.178  0.0413 -0.0649  0.2087
16014W        W31145   7.361   2.089   5.470 -0.4955  0.3875 -0.1076
16015W        W31146   4.126  13.179  15.440  0.1543  0.2097  0.0375
16016W        W31147   1.103  11.100  11.103  0.0751 -0.0432  0.0569
16017W        W31148   6.711  14.657   1.809 -0.1045  0.1959 -0.0324
16018W        W31149   5.667   1.429   0.744 -0.0005 -0.0193  0.1435
16019W        W31150  15.689   3.745   4.156  0.3332  0.0487 -0.1121
16020W        W31151   3.630  17.005   3.581 -0.2172  0.3750  0.2047
16021W        W31152   3.503   3.627  13.541  0.2663 -0.0645  0.3273
16022W        W31153   7.093  16.461   4.212  0.0970 -0.2222 -0.1090
16023W        W31154   0.005   6.790  11.368 -0.0955  0.0908 -0.4077
16024W        W31155   9.108   8.174   4.540 -0.1443 -0.2747  0.0845
16025W        W31156  17.610   0.248  13.512  0.2706  0.0049 -0.0764
16026W        W31157   1.276   9.473   0.175  0.0136 -0.1313 -0.0092
16027W        W31158   5.805   7.472  14.322  0.1961 -0.0716 -0.0799
16028W        W31159  13.931  14.311  12.987  0.1659 -0.3497 -0.1149
16029W        W31160   1.056  16.331  14.316 -0.0115 -0.1288  0.0959
16030W        W31161   4.605  15.041   0.677  0.0319  0.0215 -0.1869
16031W        W31162  17.230   7.899  11.441 -0.0069 -0.2427  0.1770
16032W        W31163  16.225   5.602   3.183  0.2341 -0.1634  0.0419
16033W        W31164  15.165   6.181  10.048 -0.2211  0.0903 -0.2279
16034W        W31165  13.511  15.878   2.269  0.0250 -0.0914  0.0854
16035W        W31166   7.435   4.643  13.386 -0.0249 -0.1182  0.2387
16036W        W31167  12.909   1.311  11.295  0.0639 -0.1319 -0.1338
16037W        W31168  10.729   1.789   1.896  0.1693  0.1663 -0.0538
16038W        W31169  16.898   1.505  15.978  0.0920  0.2168 -0.0021
16039W        W31170   0.139  15.796   1.768  0.0487 -0.2382  0.1875
16040W        W31171  16.863  11.195   2.563  0.3443 -0.0645 -0.1775
16041W        W31172   7.618   0.519  15.795  0.1847  0.1045 -0.1488
16042W        W31173   4.024   9.839  14.714  0.0454 -0.0745  0.0606
16043W        W31174   9.910   6.575  11.442 -0.1254  0.1533  0.0923
16044W        W31175  10.459   9.625   5.599 -0.1389 -0.0625 -0.0576
16045W        W31176  16.230  15.902   1.963 -0.0547 -0.0138  0.2469
16046W        W31177   4.926  13.882  10.777 -0.0983 -0.0796 -0.2307
16047W        W31178   2.030   1.860  12.161 -0.0791  0.3375  0.0809
16048W        W31179   2.462  10.078  15.578  0.2607 -0.3524  0.2471
16049W        W31180   2.796  16.031  12.037  0.0962 -0.3379 -0.2684
16050W        W31181   7.724  17.459   4.890 -0.0467  0.0251 -0.3312
16051W        W31182   2.537  12.057  13.504  0.1193  0.2601 -0.0183
16052W        W31183  13.822  13.079   1.804 -0.2621  0.1927  0.0661
16053W        W31184   5.250   9.288   4.776 -0.2143 -0.0793  0.4612
16054W        W31185   0.237   0.883   5.938 -0.0894 -0.1818 -0.0178
16055W        W31186   0.085   7.974   5.710 -0.0278  0.2377 -0.0050
16056W        W31187  15.183  10.066  13.116 -0.2539 -0.3638  0.0970
16057W        W31188   4.782   0.618   3.969  0.4548  0.3918 -0.2718
16058W        W31189   0.674  13.942  11.798 -0.0747 -0.0905 -0.1039
16059W        W31190   9.017   7.479   2.126  0.1861 -0.4044 -0.0687
16060W        W31191  13.692   2.467  11.132  0.1038 -0.2417  0.1943
16061W        W31192  12.010  14.228   0.834  0.0257 -0.2632  0.1403
16062W        W31193  13.646  17.737  13.492  0.1789 -0.0024  0.0375
16063W        W31194   3.285   5.041   0.356  0.2065 -0.0582 -0.2690
16064W        W31195   3.053  16.217   0.761 -0.0400  0.0628  0.1642
16065W        W31196  11.984   5.203  16.244  0.0806  0.1220  0.2250
16066W        W31197   2.791   3.741  10.235  0.1643  0.1413  0.0026
16067W        W31198  10.234  11.514   3.435  0.0688 -0.3455  0.3341
16068W        W31199  12.508   0.952   5.370 -0.0989 -0.0823  0.2097
16069W        W31200   9.913  17.348  11.756  0.0714  0.2331  0.1707
16070W        W31201   5.182  10.115  11.847  0.0647  0.2267  0.3361
16071W        W31202  17.878  13.722   2.210 -0.0582  0.1305  0.0277
16072W        W31203  12.650   3.985  15.521  0.0136  0.1494  0.0592
16073W        W31204  13.019  14.207  15.189  0.0610 -0.0191 -0.1407
16074W        W31205   9.400   0.404   5.766  0.1851  0.0077 -0.0533
16075W        W31206  15.246   2.433  13.847  0.0828  0.1743  0.0310
16076W        W31207   2.113   3.186  10.248  0.0980  0.2076 -0.0710
16077W        W31208  13.394   3.158   0.038  0.2204  0.2852  0.3253
16078W        W31209   8.152  14.811   0.934 -0.0416  0.0855 -0.0666
16079W        W31210  10.899  11.127   2.336  0.1812  0.2333 -0.1014
16080W        W31211   8.559   0.778   4.244  0.2158  0.1418  0.3309
16081W        W31212  16.491   8.235  15.260  0.0947 -0.0278 -0.0856
16082W        W31213   1.846   7.487  11.423  0.1578 -0.2326 -0.0965
16083W        W31214   6.722   3.553   5.411  0.0361  0.1634  0.1794
16084W        W31215   1.324  14.431   0.720  0.0448  0.0796 -0.2317
16085W        W31216  15.380   4.187   6.339 -0.0367 -0.2710  0.3705
16086W        W31217  10.195  16.803   5.013  0.0274  0.0263  0.1012
16087W        W31218   0.185  10.148  13.933 -0.2081 -0.1930  0.2479
16088W        W31219   3.958  10.827  14.727  0.0849 -0.1524  0.3281
16089W        W31220   5.362   5.785   3.822  0.2206  0.2193  0.2589
16090W        W31221   6.922   9.362  13.590 -0.1841  0.2169  0.2387
16091W        W31222   1.792   7.481  15.624  0.1826 -0.3558 -0.2227
16092W        W31223   3.191   7.584  15.819 -0.0898  0.0254 -0.2596
16093W        W31224  17.865   6.877   1.194  0.2143 -0.2079 -0.2531
16094W        W31225  12.769   1.042  15.241 -0.0769  0.2004 -0.1015
16095W        W31226   8.176   4.871   3.679  0.1089 -0.4815 -0.0780
16096W        W31227   0.282   7.907   4.710 -0.1560 -0.0633  0.0735
16097W        W31228   3.417  11.977   3.939 -0.1213 -0.1123  0.0019
16098W        W31229   3.396   7.091  10.540 -0.0232  0.0225 -0.4464
16099W        W31230  11.045  17.417  11.098 -0.0254 -0.0073 -0.1688
16100W        W31231   4.230   5.600   5.768 -0.0926  0.0422 -0.0818
16101W        W31232   6.216   9.788   5.339 -0.0799 -0.1578  0.1230
16102W        W31233  13.318  15.126   3.045  0.1728  0.0915  0.0217
16103W        W31234   0.737  14.205   2.352  0.0256  0.4447  0.0332
16104W        W31235   5.774   6.497   2.423 -0.1435 -0.1575 -0.0946
16105W        W31236   6.267  15.501   4.006 -0.2632  0.0513  0.0109
16106W        W31237   9.534   4.549   4.339  0.0690  0.2490  0.0814
16107W        W31238  17.582   8.178   5.163  0.0182 -0.1343 -0.0557
16108W        W31239  13.967  15.798  13.513  0.0524 -0.0146 -0.2019
16109W        W31240   2.215  14.365  14.787  0.0285 -0.0877  0.1656
16110W        W31241   0.780   8.060  11.842 -0.1750 -0.1833 -0.1361
16111W        W31242  10.602   3.348  10.175 -0.2781  0.1139 -0.1924
16112W        W31243   1.586   2.994  10.227  0.4838 -0.0051 -0.1058
16113W        W31244  13.346   6.424   4.957  0.0189  0.1799 -0.1641
16114W        W31245   6.415   4.011  15.633 -0.2003  0.2309  0.0052
16115W        W31246   5.542   6.647   5.533 -0.2012 -0.0266 -0.0875
16116W        W31247  14.556  12.732   3.629 -0.2993 -0.0847  0.0421
16117W        W31248   5.092  15.234   4.488 -0.1446 -0.0340  0.1458
16118W        W31249  10.732  17.866   4.200 -0.2711  0.0877 -0.1834
16119W        W31250  12.081   4.635   4.406 -0.0087 -0.1761 -0.1601
16120W        W31251  10.966   1.459  14.692 -0.0617 -0.0007 -0.3365
16121W        W31252  11.292  16.473  15.729  0.1278  0.1490 -0.1756
16122W        W31253   0.110  13.520   2.512  0.1494 -0.1476  0.0175
16123W        W31254   1.884   8.529  14.977 -0.2836 -0.1205  0.3180
16124W        W31255  13.609  12.177   5.014  0.0619  0.0956 -0.1643
16125W        W31256  10.214  12.260   2.515 -0.0411 -0.0052 -0.0401
16126W        W31257   1.825  16.311   0.890 -0.1127 -0.0184 -0.1552
16127W        W31258   8.987  10.744  11.798  0.1424  0.2288  0.2116
16128W        W31259  11.653   8.026   0.734 -0.0085  0.3632 -0.1011
16129W        W31260  10.911   0.402  12.060  0.0811  0.4184 -0.0790
16130W        W31261   4.825  18.026   3.136 -0.2317  0.1815  0.0311
16131W        W31262   8.696   1.287   4.726 -0.0667 -0.0345  0.2750
16132W        W31263   7.991   9.146   3.899  0.1169  0.0586  0.1948
16133W        W31264   2.295   1.336   1.545 -0.0609 -0.0758  0.2364
16134W        W31265  12.364   8.125   3.592 -0.2293  0.1176 -0.1589
16135W        W31266   1.779   2.929  13.415  0.1387  0.0873 -0.2862
16136W        W31267  17.278   6.696   2.640  0.0328 -0.0853  0.0861
16137W        W31268  15.593   8.545  13.188  0.2225  0.2565  0.0197
16138W        W31269   1.866   7.204   2.926  0.0049 -0.1023 -0.0681
16139W        W31270   8.735  13.796  11.041 -0.0058  0.0354  0.1300
16140W        W31271   5.347   1.267   4.776 -0.3617 -0.1041  0.0366
16141W        W31272  12.076   4.040  14.572  0.1550  0.2275  0.0038
16142W        W31273   7.345   2.250  11.055  0.0321  0.2950 -0.3773
16143W        W31274   2.380   1.977  12.617  0.0106 -0.2571 -0.0899
16144W        W31275   2.618  16.897  15.624 -0.0117  0.1503 -0.0685
16145W        W31276   0.554   3.074  10.796 -0.0982  0.0777  0.2467
16146W        W31277   9.139   7.832  15.364  0.0905 -0.2795 -0.1360
16147W        W31278   8.057   4.352  14.486  0.0076  0.0845 -0.3419
16148W        W31279  13.115  10.561   0.570  0.2007  0.2095 -0.1571
16149W        W31280  13.313  10.060   3.366  0.1192  0.0422  0.2585
16150W        W31281   9.220  15.429   1.749  0.0746 -0.0788  0.0386
16151W        W31282  11.914  16.375   4.685 -0.0144 -0.2467  0.3088
16152W        W31283   1.003   6.802   4.881 -0.2307 -0.1737 -0.1860
16153W        W31284   0.562   7.795  15.062 -0.0866  0.0858 -0.0638
16154W        W31285  15.527  10.478  15.563  0.1325 -0.0772 -0.0110
16155W        W31286   2.694   3.839   3.201  0.2535  0.1734  0.1688
16156W        W31287  16.082   0.221  11.378  0.3157  0.0936 -0.0499
16157W        W31288   5.992   7.791  14.991  0.1100 -0.1802  0.0878
16158W        W31289   4.753   0.575  15.303  0.3022  0.0295  0.0480
16159W        W31290   7.945  12.958   0.685 -0.1667 -0.0871 -0.1325
16160W        W31291   2.724   8.535   4.569  0.2928 -0.1307 -0.1626
16161W        W31292  15.085   5.904  11.943 -0.2061 -0.2198  0.1451
16162W        W31293   2.968   6.914  14.577 -0.2074  0.0321 -0.0263
16163W        W31294   4.866  12.066  13.140  0.3382  0.0165 -0.0591
16164W        W31295   1.214   7.954   2.057  0.2289  0.2027 -0.2123
16165W        W31296   5.445  16.114   5.031  0.2649  0.0685 -0.0576
16166W        W31297  11.727   2.564   0.679 -0.2324 -0.1341  0.0144
16167W        W31298   7.506  12.790   0.317 -0.1982  0.2872 -0.1314
16168W        W31299  14.652   0.530   3.676  0.1497 -0.1911  0.0558
16169W        W31300  10.090  15.134  15.908  0.0447 -0.2864  0.2631
16170W        W31301  15.449  10.215   5.082  0.1127 -0.0967  0.0982
16171W        W31302  15.366   7.281  14.073 -0.1924 -0.2117 -0.3629
16172W        W31303   5.760   7.433   2.754 -0.0045 -0.2304  0.0694
16173W        W31304   8.672   7.844  13.680  0.1257  0.4092 -0.2659
16174W        W31305   4.905   2.001  10.285  0.1365 -0.1378  0.0395
16175W        W31306   1.570   5.714   2.698 -0.2491  0.0343 -0.1765
16176W        W31307  17.934  15.333  13.212  0.0010  0.0968 -0.1759
16177W        W31308   2.763   9.815   2.263  0.1093  0.2010 -0.0364
16178W        W31309   9.681  11.858   2.439  0.0551  0.1878  0.0185
16179W        W31310   7.858   5.815   4.801  0.1528  0.2614 -0.1379
16180W        W31311   0.900  12.439  15.180  0.1651 -0.0652  0.0895
16181W        W31312  15.442  12.009   4.336 -0.0882  0.0530 -0.0421
16182W        W31313   1.864   8.411  13.711  0.1454 -0.2277 -0.0770
16183W        W31314  17.326   2.969  12.800 -0.0091 -0.4531 -0.0374
16184W        W31315   8.387   0.526  12.897 -0.1232 -0.3895  0.1029
16185W        W31316  17.249   3.891  11.817  0.0625 -0.0880 -0.0619
16186W        W31317   4.007  15.006   3.782 -0.0759 -0.1861 -0.1464
16187W        W31318  12.455   5.121   3.752 -0.2367  0.0557  0.0974
16188W        W31319   8.767  13.023  14.559  0.1252 -0.2879  0.1093
16189W        W31320  16.666   7.412   3.765 -0.0202 -0.0716 -0.0872
16190W        W31321   3.014   1.482   4.942  0.0239  0.0080  0.0881
16191W        W31322   2.813  17.557  12.141 -0.1348  0.3793 -0.2509
16192W        W31323  15.897  15.473  15.135  0.3286  0.3040  0.0303
16193W        W31324   8.672  16.622   1.888 -0.0846  0.2095 -0.0343
16194W        W31325  11.438   2.672   4.439 -0.1090  0.0284 -0.0372
16195W        W31326  10.129  11.965  14.898  0.2020 -0.3375  0.0478
16196W        W31327  12.253  15.027   3.087 -0.0379 -0.0016  0.3007
16197W        W31328   4.792   8.018   4.591  0.2543 -0.3269  0.0024
16198W        W31329   9.019   8.484   5.018 -0.0206 -0.0285  0.1031
16199W        W31330  17.197   9.733   4.578 -0.1388  0.0054 -0.1078
16200W        W31331   5.737   0.093  11.954  0.2458 -0.3594 -0.1369
16201W        W31332   0.979  16.082   0.621  0.1200 -0.3028  0.0063
16202W        W31333  12.310  17.068  12.511  0.1492 -0.0037  0.0501
16203W        W31334  17.305   7.100   1.259  0.4021  0.1447  0.0866
16204W        W31335   8.024   7.176   3.803  0.2604  0.2454 -0.1621
16205W        W31336  13.794   5.881  13.800  0.1463 -0.0389  0.1152
16206W        W31337   9.607   2.018  15.408  0.0693  0.0298  0.0265
16207W        W31338   3.396   4.175  11.153  0.0101 -0.0007  0.0498
16208W        W31339   5.569  16.721   5.681 -0.2992 -0.1435  0.0930
16209W        W31340  15.928  10.743  14.324 -0.2466  0.2894 -0.1124
16210W        W31341  15.228   2.994   2.018 -0.0213 -0.0610  0.0089
16211W        W31342  12.341   5.954  11.660  0.0321 -0.0845 -0.1407
16212W        W31343   1.159  14.290   2.630 -0.0710  0.2657 -0.0436
16213W        W31344   0.890   1.294  15.552  0.0648 -0.0966 -0.1736
16214W        W31345  15.160   9.226   1.208  0.1443  0.1832  0.1779
16215W        W31346   0.838  10.073   2.229 -0.0953 -0.0872 -0.0681
16216W        W31347   6.467  12.565   4.725  0.3313  0.1338  0.0369
16217W        W31348  12.606  10.425  13.387 -0.3704 -0.1827  0.1521
16218W        W31349  10.385  14.289   0.157  0.2595 -0.2847  0.0717
16219W        W31350   8.986   4.168  15.837  0.1430 -0.1747 -0.0817
16220W        W31351  16.521   0.004   4.939 -0.0211  0.0880 -0.0316
16221W        W31352  18.028   9.609   1.528 -0.2256 -0.0885  0.0554
16222W        W31353   3.321  11.636   1.805  0.0277  0.0912  0.0103
16223W        W31354   4.900   2.569  15.104 -0.1392  0.2744  0.0539
16224W        W31355   1.966  13.097   3.046  0.1019  0.0973  0.1807
16225W        W31356  13.530  17.395   0.303 -0.0876  0.1753 -0.1002
16226W        W31357  15.608   5.787  13.869  0.1644 -0.0483 -0.0045
16227W        W31358  10.718  15.737  14.863  0.1247  0.0699 -0.0772
16228W        W31359  16.430   2.984   1.963  0.0664  0.0293 -0.0585
16229W        W31360   3.414  12.078   2.086  0.2826 -0.1479  0.1714
16230W        W31361  12.404  17.570   0.742 -0.0543  0.2334  0.1947
16231W        W31362   8.754  18.075   3.128  0.0071  0.4867  0.2245
16232W        W31363   9.959   9.888  11.810 -0.0050 -0.3994 -0.0762
16233W        W31364  18.102   1.208  14.375  0.1623  0.2496  0.0745
16234W        W31365  13.741   7.849   4.262 -0.2731 -0.0459  0.0558
16235W        W31366   6.273   7.016  13.182  0.0308  0.0908  0.0039
16236W        W31367   0.784   4.980  12.874 -0.0609  0.0299  0.2308
16237W        W31368   0.028   9.805   2.709 -0.0590  0.2684 -0.1390
16238W        W31369  15.114   6.618   1.051  0.1709  0.0723  0.0978
16239W        W31370  10.353  17.551  15.226 -0.0385  0.3434  0.1185
16240W        W31371   7.268   8.282   3.413 -0.2217  0.0680 -0.0827
16241W        W31372  17.902  15.554   4.599  0.1019  0.2377  0.1497
16242W        W31373   5.946  10.098   2.143 -0.0768  0.0177 -0.2135
16243W        W31374   1.128  17.424  12.474 -0.2460 -0.1585  0.0207
16244W        W31375   3.502   4.246   3.582  0.0999  0.2454 -0.1750
16245W        W31376   3.629  12.355   2.723  0.0359  0.0636  0.2066
16246W        W31377   2.035   0.704   5.180  0.2898  0.0318  0.0409
16247W        W31378   6.244   6.644   2.268 -0.0590  0.0044 -0.1102
16248W        W31379  11.391  12.945   2.423  0.1499 -0.0103 -0.2085
16249W        W31380  17.560   6.271   5.375 -0.2655  0.0978  0.2076
16250W        W31381   7.846   7.493  11.356 -0.0060  0.3388 -0.0365
16251W        W31382   8.696   1.003   5.691 -0.1851  0.1509 -0.0658
16252W        W31383  10.112  13.521   5.235  0.1205  0.1403  0.1811
16253W        W31384   2.266   1.627  13.524  0.1723  0.0138  0.0610
16254W        W31385  14.577  12.019  13.012  0.0889  0.0782 -0.3888
16255W        W31386  17.644  13.141  11.589  0.3673  0.0502 -0.1163
16256W        W31387  15.971   3.218   0.822  0.0107 -0.0301  0.2656
16257W        W31388  14.264  13.214   0.983 -0.3055 -0.1175  0.3445
16258W        W31389   4.844  11.607  11.142 -0.3846  0.3757  0.0136
16259W        W31390   1.292   3.687   4.947 -0.0308 -0.1196 -0.0392
16260W        W31391   9.282  10.155   1.750  0.1218  0.0939  0.1580
16261W        W31392  14.512   3.016  15.696 -0.1694  0.2768 -0.0601
16262W        W31393  15.698  16.312   0.651 -0.2592  0.1375  0.0245
16263W        W31394  17.353  15.877  13.821  0.1823 -0.2532  0.0814
16264W        W31395  12.757   4.820  10.168  0.2483 -0.3052  0.0941
16265W        W31396  17.042  11.763  14.956 -0.0062  0.2779  0.2981
16266W        W31397   7.849   9.485   0.569 -0.1503 -0.0359  0.0129
16267W        W31398   4.118   2.751  15.781 -0.2984 -0.1665 -0.1186
16268W        W31399   9.186   9.077   0.301  0.0074  0.1050  0.0213
16269W        W31400   7.330  16.101  12.578  0.2644 -0.1657 -0.0015
16270W        W31401  16.094  14.890   4.968  0.0838 -0.0520 -0.1215
16271W        W31402  15.947  13.313   1.845  0.0275  0.2422  0.0927
16272W        W31403  14.871  12.381  13.259 -0.0056 -0.1867  0.2194
16273W        W31404   1.541   9.098  12.162 -0.1441  0.0436  0.1630
16274W        W31405   3.844  11.835   4.857  0.0446  0.3451 -0.0091
16275W        W31406  17.026   9.459   0.213 -0.0937 -0.0556 -0.0893
16276W        W31407   5.908  16.826   2.990  0.1013  0.0212 -0.0066
16277W        W31408   0.663   7.682  10.687  0.1070  0.1284 -0.0305
16278W        W31409  16.004  13.835   3.793 -0.0582  0.0794  0.0076
16279W        W31410  15.840  12.788  13.786 -0.1811  0.1309  0.1460
16280W        W31411   0.028   9.030  15.569 -0.0442  0.0433 -0.0295
16281W        W31412  13.641  16.577  12.366  0.0737  0.1851  0.0803
16282W        W31413  13.864   6.694   0.226  0.0734 -0.0200 -0.0121
16283W        W31414  17.992  11.265  13.688  0.2961 -0.1059 -0.0524
16284W        W31415  17.589   8.383  13.470 -0.1661 -0.1765 -0.3562
16285W        W31416   5.905   8.848   4.140 -0.2378  0.0750 -0.0793
16286W        W31417   9.616  12.273   1.037 -0.1909 -0.0204  0.2027
16287W        W31418  14.181   0.117   0.016 -0.1792 -0.0381 -0.1828
16288W        W31419   4.626  15.373  11.666  0.1853  0.2519 -0.0410
16289W        W31420   0.587  16.607   3.465  0.2182  0.2095 -0.0790
16290W        W31421  12.487   9.228   2.865  0.0087 -0.0081  0.0823
16291W        W31422   1.606   6.927  14.000 -0.1130  0.0525 -0.1907
16292W        W31423   9.469  11.812  12.717 -0.1606 -0.0646  0.0591
16293W        W31424  10.316   8.175   0.510  0.0911 -0.0275  0.1835
16294W        W31425  14.493   7.620  15.627  0.2001  0.1323  0.3581
16295W        W31426  12.940   5.843   4.313  0.0155 -0.1097 -0.0827
16296W        W31427  10.508   5.573  14.414 -0.0818  0.1146  0.2179
16297W        W31428  15.161   0.171   2.199  0.1428  0.0685  0.1535
16298W        W31429   2.695   1.411  11.719 -0.0899 -0.0424 -0.1976
16299W        W31430  14.890   3.017  14.343 -0.1082  0.2469 -0.2093
16300W        W31431  16.714   9.393  12.838 -0.0353  0.1900 -0.1745
16301W        W31432   1.390  14.466  13.706  0.1029  0.0745  0.1375
16302W        W31433   5.093  10.516   2.479  0.0677  0.0428  0.1907
16303W        W31434   9.206  16.915   3.374  0.1381 -0.0374 -0.2285
16304W        W31435  11.340  10.909   2.757 -0.2134  0.0070  0.1597
16305W        W31436   4.044   9.419  12.570  0.0608 -0.0865 -0.0466
16306W        W31437  16.888  10.779   2.946 -0.0068  0.3191  0.0659
16307W        W31438  17.436   5.406   1.640  0.0383  0.0713 -0.0880
16308W        W31439  13.102  16.916  11.538  0.0548 -0.2287  0.1541
16309W        W31440  17.427   2.922   1.140  0.3586  0.3256 -0.0293
16310W        W31441   4.058  12.772  12.994  0.0075 -0.3379 -0.0706
16311W        W31442   8.934  13.052  14.070 -0.3277  0.1237  0.1991
16312W        W31443   9.960  15.115  10.766 -0.0884  0.2250 -0.2797
16313W        W31444   9.644   6.235  12.738 -0.2533 -0.3175  0.1611
16314W        W31445   6.862  17.717  11.514 -0.0418 -0.0794  0.0524
16315W        W31446  15.138   6.632  14.931  0.2251  0.0558 -0.0373
16316W        W31447  15.698   6.868   2.649  0.1109 -0.0741 -0.0055
16317W        W31448   7.476  17.098   5.377  0.0749 -0.0689 -0.2181
16318W        W31449   7.048   8.756   4.913 -0.0104 -0.0377 -0.1391
16319W        W31450   7.951   7.610  13.873  0.0781 -0.2100  0.0905
16320W        W31451  11.707   3.400  13.485  0.0009 -0.0455 -0.2821
16321W        W31452   7.445   0.818  12.781 -0.0178  0.0472  0.3665
16322W        W31453   4.145  16.038  11.042  0.0106  0.2359  0.1432
16323W        W31454  11.534   3.547   0.124  0.0481  0.0683 -0.0779
16324W        W31455  18.006   1.298   3.845 -0.1347  0.1424  0.0798
16325W        W31456   6.816   5.824  12.637 -0.0854 -0.0162 -0.1964
16326W        W31457   1.058  14.189  14.027 -0.3360 -0.0912  0.0659
16327W        W31458  10.515   5.841   2.080 -0.1958 -0.1208 -0.0097
16328W        W31459   8.539   4.723  16.029  0.0215  0.2155 -0.1314
16329W        W31460  15.076  15.240  13.922 -0.1251  0.2821 -0.0213
16330W        W31461  10.627   6.234  13.221  0.0942 -0.1527 -0.1426
16331W        W31462  15.374  11.590   0.860  0.1119 -0.0929  0.0323
16332W        W31463   8.888   3.429   3.634 -0.0721  0.2062 -0.3170
16333W        W31464   8.089   6.078   2.078  0.2319 -0.1586  0.0628
16334W        W31465  14.976   9.507   3.068  0.2222  0.1916 -0.1332
16335W        W31466   4.182  12.605   3.856 -0.0569  0.2392  0.1495
16336W        W31467   1.453  11.018  10.683  0.0767 -0.0231 -0.2267
16337W        W31468  14.026   9.061  15.633 -0.0156 -0.1377  0.1069
16338W        W31469  15.849  17.527   4.504 -0.0249  0.1388 -0.0880
16339W        W31470  13.428   2.330   0.032  0.2927 -0.3445 -0.1230
16340W        W31471  11.316   1.996   3.643  0.0036 -0.2054  0.0253
16341W        W31472   9.755   2.886   1.648  0.0073 -0.0485  0.0898
16342W        W31473   6.250  14.759  12.470 -0.0980 -0.1228 -0.3825
16343W        W31474  10.187  17.228   5.906 -0.0114  0.0303 -0.1631
16344W        W31475  10.430  12.547   2.888  0.0500 -0.0776  0.0004
16345W        W31476  16.444  13.586  14.172 -0.0087 -0.0541  0.1260
16346W        W31477   5.828  10.433  15.331 -0.0355  0.0808 -0.3383
16347W        W31478  12.830   6.380   0.258 -0.0749 -0.0435 -0.1849
16348W        W31479   8.160   8.269   3.561  0.1344 -0.0751  0.1605
16349W        W31480   7.954  10.417  14.996  0.1193  0.0027  0.3531
16350W        W31481   9.662   5.549   1.638  0.1905 -0.3200 -0.2040
16351W        W31482  16.503   1.400   0.049 -0.0337 -0.1792 -0.0638
16352W        W31483   8.607  13.512   0.233  0.0414  0.3244  0.0987
16353W        W31484   0.509   9.908   3.328 -0.0827 -0.1722 -0.4295
16354W        W31485   2.725   6.295   1.443  0.1653  0.0183  0.1774
16355W        W31486   3.471  17.895  14.434 -0.0863  0.0458 -0.2474
16356W        W31487   9.889   9.899   3.877 -0.0551 -0.2346  0.1766
16357W        W31488   2.290   3.164   4.059  0.0836  0.0136 -0.0155
16358W        W31489  13.736   2.405  12.026  0.2560  0.1750 -0.0083
16359W        W31490   2.014   0.402  15.746  0.4448 -0.1838 -0.2257
16360W        W31491   3.876   2.201  12.860 -0.1898 -0.2218 -0.0407
16361W        W31492  16.900  10.390   3.826  0.0023 -0.0068  0.2099
16362W        W31493   9.468   4.416   3.840 -0.0453  0.1241  0.1207
16363W        W31494  11.639   5.969  12.162  0.2520 -0.1133  0.1013
16364W        W31495   5.193   4.455  12.514 -0.1030  0.4051 -0.0239
16365W        W31496   7.949  15.689  12.105 -0.1115 -0.0860  0.0265
16366W        W31497   1.577   7.941  10.654 -0.0203  0.0378  0.1701
16367W        W31498   1.250   8.763  15.803 -0.0741  0.0627  0.1051
16368W        W31499  12.932  16.313   3.015 -0.1756 -0.1266  0.4053
16369W        W31500   2.123   2.066  14.589 -0.1298  0.3108  0.0095
16370W        W31501   3.075  11.715   1.290  0.1665  0.0913 -0.2118
16371W        W31502   0.597   0.255   4.829  0.0361  0.0500 -0.2632
16372W        W31503   2.675   6.723   3.812 -0.0391  0.1689 -0.0239
16373W        W31504   2.265   2.306  15.252  0.0884  0.0888 -0.1084
16374W        W31505   4.287   4.895   2.688 -0.0463  0.0371  0.3357
16375W        W31506   9.362  11.820   5.233 -0.0342  0.0873 -0.0265
16376W        W31507   1.650   0.211   2.747  0.3651 -0.1601  0.0480
16377W        W31508   1.037   8.341   0.005 -0.1697 -0.0619  0.1426
16378W        W31509  14.249   5.843  13.596 -0.1322  0.0351  0.3094
16379W        W31510  10.071  16.071  14.902  0.0914  0.1940  0.0670
16380W        W31511   6.922   1.980   3.021 -0.1564  0.0707 -0.1872
16381W        W31512  16.812   7.133   5.822 -0.0503  0.0679  0.1582
16382W        W31513   8.885   8.407  16.138  0.0344  0.1857  0.1438
16383W        W31514   0.989  17.505  15.889 -0.2630  0.2306  0.0104
16384W        W31515  12.281   1.719   0.100  0.3403 -0.0665  0.1412
16385W        W31516  13.899   6.157   1.343  0.0854 -0.2121 -0.0636
16386W        W31517   2.627   9.083   0.588  0.1551  0.0095  0.1032
16387W        W31518   8.623   7.937   5.516  0.1811 -0.3281  0.0417
16388W        W31519   4.091  12.594  14.983 -0.1371 -0.1311 -0.1328
16389W        W31520  12.231   2.704   0.959  0.1305  0.1548  0.0316
16390W        W31521  13.149  12.330   5.064  0.0808 -0.0077  0.0181
16391W        W31522   4.986   9.843   2.454  0.0807  0.1669  0.1903
16392W        W31523  17.906   6.158   3.464  0.1933  0.1759  0.6271
16393W        W31524  10.924   5.769   2.939 -0.2865  0.1188 -0.2222
16394W        W31525   6.036   3.849  14.998  0.0924 -0.1199 -0.0581
16395W        W31526  14.770   0.087  12.912 -0.0344  0.2891 -0.4155
16396W        W31527  10.640   3.649  11.639  0.3187  0.1610 -0.0025
16397W        W31528  14.440   3.199   1.753 -0.1408  0.1719  0.1410
16398W        W31529  10.014   4.419   1.021  0.1566 -0.0594  0.3107
16399W        W31530  18.002   6.972  13.708  0.1415  0.0870  0.2760
16400W        W31531   7.919  12.521   0.336  0.0666  0.2226  0.0596
16401W        W31532   8.429  13.938   4.563 -0.0662 -0.0344 -0.1477
16402W        W31533  16.691   7.490  15.729 -0.1840 -0.0746 -0.1883
16403W        W31534  10.700   4.924   4.343  0.1606 -0.0149  0.0691
16404W        W31535   7.342   1.081   1.201  0.0818  0.0272 -0.3281
16405W        W31536  14.417   0.642   2.417  0.3433  0.0082  0.0069
16406W        W31537   4.054  14.572   5.275  0.0605  0.0300 -0.1659
16407W        W31538   5.217  11.331  14.523 -0.0725 -0.1242  0.0131
16408W        W31539  12.798  16.200  15.196 -0.0518  0.2055  0.0792
16409W        W31540  17.651  16.953   0.099  0.0774 -0.1056 -0.0896
16410W        W31541   3.342  18.055  11.001  0.1102  0.1230 -0.1215
16411W        W31542   3.179  16.890  13.539 -0.0467 -0.0921 -0.1416
16412W        W31543  13.576   6.203   2.348 -0.1766 -0.0632  0.0573
16413W        W31544  17.509   8.003  11.940  0.0938  0.3005 -0.3134
16414W        W31545  10.789   2.943  11.436 -0.1512  0.0566 -0.1477
16415W        W31546   1.010  12.187  12.961 -0.1646  0.1350  0.0375
16416W        W31547   1.661   9.687   5.282  0.0303 -0.1447  0.3493
16417W        W31548   9.768   2.214   1.564  0.1050  0.2623 -0.1234
16418W        W31549   6.530   7.205  10.926 -0.0944  0.2650  0.2925
16419W        W31550   5.993   2.647  13.670  0.3072 -0.0240 -0.0792
16420W        W31551   1.748  17.590   4.837 -0.1211 -0.0190 -0.4105
16421W        W31552  12.825   8.710   0.452  0.0948  0.2164  0.2702
16422W        W31553   7.081  14.386   0.135  0.1398 -0.1098 -0.0927
16423W        W31554   0.211  10.806  14.607  0.1334  0.1420  0.2327
16424W        W31555   1.699   5.604  11.684  0.0102 -0.3723  0.0246
16425W        W31556  10.678   7.372   4.620  0.0396  0.0261 -0.0673
16426W        W31557   2.184   4.087  12.519 -0.1699  0.1463 -0.0643
16427W        W31558   3.091   2.377  15.676 -0.1891 -0.2891 -0.0843
16428W        W31559  11.891   2.666  13.342 -0.1470  0.2219 -0.0020
16429W        W31560  12.093  10.016   5.856 -0.0334 -0.0505  0.0791
16430W        W31561   0.268  16.502   2.443  0.0964  0.1607 -0.0295
16431W        W31562   0.105  12.146   3.916 -0.1638 -0.3177  0.0304
16432W        W31563  12.958  11.789   2.085  0.0918 -0.2070 -0.1396
16433W        W31564  10.317  11.548  12.656 -0.3516 -0.1412 -0.1723
16434W        W31565  10.720  11.627  13.355 -0.1637 -0.2122  0.0446
16435W        W31566  16.323  11.141   6.218  0.1743  0.1739  0.0547
16436W        W31567   0.730  14.408   3.448  0.3267  0.2888 -0.0193
16437W        W31568   9.644   8.727  14.462  0.1835 -0.1602  0.1145
16438W        W31569   2.786  16.003  15.633  0.1925 -0.1494  0.0501
16439W        W31570   6.726   1.795   1.213  0.0287  0.2102 -0.0353
16440W        W31571   9.301   8.487  14.171 -0.0603 -0.1897 -0.0148
16441W        W31572   6.680   5.070   2.057 -0.1779  0.0009 -0.2319
16442W        W31573   5.761   0.360   5.055  0.1163  0.0784 -0.2075
16443W        W31574   5.354   2.636  11.832 -0.0733  0.0645 -0.0214
16444W        W31575   5.553  12.480   5.350 -0.0439 -0.4381  0.1780
16445W        W31576   8.259  13.582   2.457  0.2639  0.1865 -0.1909
16446W        W31577   3.475  17.629   5.454  0.1734  0.0338  0.1809
16447W        W31578   7.189  17.867   0.625 -0.1634 -0.0133 -0.0450
16448W        W31579  11.214  11.130  11.941 -0.2183 -0.1488 -0.1341
16449W        W31580  13.493  17.599   5.609  0.0944  0.0216  0.1281
16450W        W31581   0.478   9.676  13.709  0.2802 -0.1638 -0.2374
16451W        W31582  13.636   4.160   3.741 -0.1923  0.1192 -0.2629
16452W        W31583   9.272  12.359  16.146  0.1380 -0.0785  0.2511
16453W        W31584   8.595   6.514   0.429  0.1686  0.0255  0.1238
16454W        W31585   4.335   7.886  10.961 -0.0364  0.1929 -0.0179
16455W        W31586   0.689  10.196   1.655  0.3529 -0.0415  0.0784
16456W        W31587   4.945   9.279   1.848 -0.2829 -0.0787  0.1132
16457W        W31588   4.589  17.276  15.955 -0.1648 -0.0952 -0.1312
16458W        W31589  17.816  14.197   1.454 -0.0461  0.3364 -0.2522
16459W        W31590  16.128   9.165  16.023 -0.1174 -0.0614  0.1776
16460W        W31591  10.094   1.348  11.194 -0.3435  0.1389  0.2914
16461W        W31592  15.177   7.306  12.492  0.2320 -0.1543 -0.2294
16462W        W31593  12.796   0.002   6.238  0.1376  0.2556 -0.0829
16463W        W31594  12.761  10.376  12.413 -0.2856  0.0133 -0.2813
16464W        W31595  16.423  10.898   4.348 -0.2841  0.2423 -0.1558
16465W        W31596   2.820  12.006   0.742 -0.1069 -0.3058  0.0452
16466W        W31597   8.493   8.047  10.821  0.0244 -0.0784 -0.1595
16467W        W31598   7.901  12.286   3.336  0.0099  0.1022  0.2393
16468W        W31599  10.324   8.425   3.078 -0.0156 -0.0512 -0.1979
16469W        W31600  11.111  13.053   5.054 -0.0427  0.0747  0.0380
16470W        W31601  12.948   8.299   6.052  0.2534 -0.1218  0.0236
16471W        W31602   1.322  11.268   4.746  0.0579 -0.2906 -0.2366
16472W        W31603   6.295   9.311  11.245  0.2104 -0.1126  0.1853
16473W        W31604  17.557  13.184   1.518  0.1220  0.3420 -0.0998
16474W        W31605   1.364   4.436  16.002  0.0117 -0.2910  0.0784
16475W        W31606   2.280   4.195   0.196  0.4535 -0.2136  0.0945
16476W        W31607   2.985   8.617   3.293  0.1380  0.1074 -0.0398
16477W        W31608   7.462   3.763   3.903 -0.0362  0.0787 -0.1093
16478W        W31609   0.288  14.865   5.168  0.3928 -0.3524  0.0405
16479W        W31610  10.319  17.651   4.358 -0.0641 -0.1002  0.1275
16480W        W31611   0.465  17.198  11.354  0.0850 -0.2338 -0.1143
16481W        W31612   6.710   5.903   0.713  0.2040  0.2033  0.1278
16482W        W31613  16.382   1.863  13.937 -0.0204  0.0555 -0.1302
16483W        W31614   1.283   3.277  15.211 -0.0842  0.0678 -0.0711
16484W        W31615  17.134   0.514  13.811  0.1126 -0.3378  0.0311
16485W        W31616  15.516   8.555   0.643  0.4240 -0.1197 -0.1007
16486W        W31617  14.746   3.150  12.391  0.0541 -0.1199  0.0984
16487W        W31618   5.205   3.808  13.277 -0.2125  0.0209 -0.3009
16488W        W31619  10.205   8.143   5.355  0.1078  0.3524  0.0332
16489W        W31620   7.699   2.245  13.153 -0.1983 -0.1460  0.0303
16490W        W31621   1.152  14.741   5.553 -0.1525 -0.3448  0.3350
16491W        W31622  10.433  11.590  11.260  0.0041 -0.0841  0.3503
16492W        W31623   0.282   1.750   5.679 -0.2709  0.3425 -0.0927
16493W        W31624  12.622   4.290  12.161 -0.2186  0.1143  0.0582
16494W        W31625  16.971  11.235  14.844  0.1358  0.1533 -0.1071
16495W        W31626   9.546  17.143  13.122  0.1882  0.0045  0.1085
16496W        W31627   6.716  11.585   4.439  0.1226 -0.4547 -0.0809
16497W        W31628   8.980   9.720  11.903 -0.0337 -0.1037 -0.4175
16498W        W31629  15.702   0.716  16.203 -0.0469  0.0448 -0.2505
16499W        W31630   8.513   7.354  13.875  0.1134 -0.3302  0.0208
16500W        W31631   7.444  16.387   3.842  0.0922 -0.2996 -0.2954
16501W        W31632   1.263  16.120  13.851 -0.0325  0.1617  0.0816
16502W        W31633  10.441   2.208  15.141 -0.0352  0.1724 -0.1588
16503W        W31634   8.945   1.409  13.690  0.0048 -0.0574  0.3005
16504W        W31635  17.201  12.837  10.668 -0.1434 -0.1113 -0.0832
16505W        W31636   9.647   6.100  11.353  0.1209  0.0887 -0.0110
16506W        W31637  16.388  15.261  10.962 -0.0377  0.2738 -0.0267
16507W        W31638  17.372   8.765   3.694  0.0824 -0.0410 -0.0932
16508W        W31639   1.486  13.854  10.734  0.2455 -0.2775 -0.1202
16509W        W31640   4.963  10.921  10.901 -0.0361  0.1132  0.1790
16510W        W31641   0.463  13.049   1.785  0.3466  0.0061 -0.0610
16511W        W31642   1.797   7.283  14.319  0.0021  0.2263  0.1762
16512W        W31643   0.900   8.313   1.981  0.2035 -0.0365  0.0854
16513W        W31644  11.765  10.019  13.459 -0.0963  0.2454  0.0057
16514W        W31645  16.745  17.321   3.501 -0.1148  0.2799  0.2450
16515W        W31646   7.092  15.169   3.365 -0.0907 -0.2689  0.0790
16516W        W31647  16.873  17.643  11.240 -0.0107  0.0457 -0.1934
16517W        W31648   0.952  13.092   3.946 -0.3654  0.0401  0.2103
16518W        W31649  14.325   0.527   5.320 -0.1111 -0.3671 -0.0617
16519W        W31650  10.768   7.272  15.483 -0.1613 -0.2201 -0.0196
16520W        W31651   6.756  12.878  11.232  0.3482 -0.0840 -0.1914
16521W        W31652  12.154  11.074  15.595 -0.0637 -0.1594 -0.1089
16522W        W31653  13.179   5.420   4.628  0.1065 -0.0018 -0.0919
16523W        W31654   7.067   0.010  10.153 -0.0375 -0.1232  0.1615
16524W        W31655  10.389   2.847  15.304  0.0174  0.0558 -0.1840
16525W        W31656   5.165  15.835   5.380  0.0198  0.3253  0.0222
16526W        W31657   1.232   0.587  13.994 -0.1171  0.1387 -0.1270
16527W        W31658  11.729   8.215  15.796 -0.0826 -0.0364 -0.2198
16528W        W31659  11.903  12.951   4.087 -0.0917  0.1434  0.1929
16529W        W31660   7.023   4.751  14.704  0.0134  0.0326  0.0502
16530W        W31661   9.855   2.884   2.670 -0.2668  0.0834 -0.1378
16531W        W31662  10.304  14.879  11.448 -0.0830  0.0853 -0.0376
16532W        W31663  11.484  10.406   2.918  0.1426 -0.1361  0.0027
16533W        W31664   0.613  11.235  10.968 -0.4739 -0.0286 -0.1534
16534W        W31665   9.978   3.703   4.821  0.1112 -0.0157  0.0250
16535W        W31666  17.687  17.519   1.216  0.3842  0.3152 -0.3100
16536W        W31667  17.177   3.705  14.290 -0.1379 -0.2899 -0.0886
16537W        W31668  16.357   7.025  14.426  0.2463 -0.2406 -0.0107
16538W        W31669  14.581   8.648   1.886 -0.2005 -0.0041  0.1479
16539W        W31670   1.491  10.488  13.277  0.1348  0.2077  0.0467
16540W        W31671  18.025   6.118   2.439  0.0686  0.2132 -0.0584
16541W        W31672   4.111   4.010   2.576 -0.2376 -0.0175  0.3418
16542W        W31673   8.704  14.253  13.404 -0.1495  0.1550  0.0553
16543W        W31674   2.309  16.018  14.972 -0.2218 -0.1346  0.1216
16544W        W31675   3.157   3.739   6.687  0.1111  0.0522  0.0775
16545W        W31676   5.920  14.459   3.572 -0.1765 -0.1043 -0.0833
16546W        W31677   0.095  14.631   4.420  0.1746  0.0464 -0.2404
16547W        W31678   2.342   2.493  14.743  0.2061 -0.0199 -0.3312
16548W        W31679   1.367  14.919  16.189  0.0518 -0.0097 -0.1571
16549W        W31680   5.201  14.584  10.382 -0.1476 -0.1220 -0.0830
16550W        W31681  17.090  10.206   0.132 -0.2275 -0.0758  0.1049
16551W        W31682   2.406   3.606   2.057  0.0539  0.0391  0.1419
16552W        W31683  11.335  12.399   3.636  0.0599  0.1198  0.0976
16553W        W31684   2.054   1.806   3.708 -0.0504 -0.0595 -0.0895
16554W        W31685  11.180  15.910   4.023  0.1214 -0.1578 -0.4227
16555W        W31686  11.637   0.575  13.334 -0.1137  0.1122  0.0870
16556W        W31687  18.064   8.687  14.031  0.1928 -0.1494 -0.1936
16557W        W31688  10.920   2.256   1.773 -0.3404 -0.0408  0.0010
16558W        W31689   1.832   2.315   3.008  0.0475  0.0574 -0.0414
16559W        W31690   8.760  13.487  12.519  0.1032 -0.1805 -0.0609
16560W        W31691   5.015   9.176  14.994  0.2452 -0.1453 -0.0694
16561W        W31692   3.053  13.922  14.498 -0.2674  0.1222  0.0655
16562W        W31693  16.018   0.948   1.426  0.0739  0.0226 -0.2555
16563W        W31694  11.038  17.076  12.694  0.0604  0.0353 -0.3088
16564W        W31695  13.755   9.242   0.352  0.0344 -0.2128 -0.2142
16565W        W31696   7.698   1.423   0.923 -0.0973  0.0300 -0.1354
16566W        W31697  10.478   9.882   5.106  0.0879 -0.2377  0.1830
16567W        W31698  15.485  16.757  10.660 -0.0800  0.0699 -0.1817
16568W        W31699   3.769   2.637   0.995 -0.1318 -0.0005 -0.0344
16569W        W31700  13.612   5.697   1.531  0.0855  0.0606 -0.1386
16570W        W31701  12.525   9.412  12.556 -0.0822  0.1488 -0.0777
16571W        W31702  17.302   6.288  12.737 -0.1924 -0.2472  0.1084
16572W        W31703   8.325   1.034  15.388  0.0050 -0.2764  0.2441
16573W        W31704   7.006  13.959   1.005  0.3094 -0.3707  0.3112
16574W        W31705  13.670  14.342   1.853 -0.0373 -0.1096  0.0025
16575W        W31706  18.086  15.583  10.108 -0.0833 -0.1521  0.1117
16576W        W31707   1.383   2.120  15.117  0.5269  0.0732  0.0655
16577W        W31708  15.658  12.364  14.090 -0.3878 -0.2349 -0.2574
16578W        W31709   3.639   6.254   3.298 -0.0365  0.1929 -0.1060
16579W        W31710  14.826   1.823   0.786 -0.1183 -0.0215 -0.0738
16580W        W31711  13.869  15.249   3.004 -0.3029  0.1732  0.0650
16581W        W31712   6.078   4.811  13.264 -0.0539  0.1902 -0.1048
16582W        W31713   3.724   1.670   3.133 -0.3564  0.0455 -0.3744
16583W        W31714   1.082  17.725  14.913 -0.3566  0.0894 -0.2082
16584W        W31715   8.996  13.031   4.942 -0.1507 -0.0746 -0.3094
16585W        W31716   3.758   1.257   2.020  0.1729 -0.2921  0.1498
16586W        W31717   7.200  16.908   1.437 -0.1806 -0.0527  0.1372
16587W        W31718  14.969  12.460   1.868  0.0425  0.0215  0.2134
16588W        W31719  14.196  11.537   0.480  0.1645  0.1034 -0.0360
16589W        W31720   5.935   6.943  14.655 -0.0824 -0.3250 -0.1915
16590W        W31721  14.587   8.484   4.408  0.1109 -0.3134 -0.4672
16591W        W31722  14.819   1.097  10.226  0.0362  0.2113 -0.3453
16592W        W31723   3.439   7.696  11.995 -0.0605 -0.0083  0.1764
16593W        W31724   9.780   2.779  14.451  0.0066  0.0237 -0.0561
16594W        W31725   5.436   2.001  15.032 -0.1329  0.2372 -0.1152
16595W        W31726  11.180   7.922  12.922 -0.3307  0.0191  0.0560
16596W        W31727   2.849   5.730   1.637  0.1747  0.0009  0.2640
16597W        W31728  16.230   9.458  12.540  0.2696 -0.1283 -0.0944
16598W        W31729  17.226   3.287   0.326 -0.3817  0.0455 -0.0883
16599W        W31730   7.024   5.684   2.045  0.1376  0.0101  0.1275
16600W        W31731  16.093   1.328   4.286 -0.0196 -0.1059  0.0693
16601W        W31732   4.665   1.638  14.361  0.1072 -0.1260  0.2625
16602W        W31733  11.430  12.766  12.578 -0.4404  0.0504  0.2831
16603W        W31734  11.687  17.313   2.286  0.2095  0.0296  0.0765
16604W        W31735  16.842  14.473   4.078 -0.0446 -0.0496 -0.0864
16605W        W31736  11.437  11.259   5.433 -0.0420 -0.0893 -0.1741
16606W        W31737   3.084   3.201  12.286 -0.0428  0.1696  0.1377
16607W        W31738  11.143   9.064   3.065  0.0586  0.1318  0.3414
16608W        W31739   0.264  12.505  14.917  0.0895 -0.1273  0.1311
16609W        W31740  15.642  14.982  15.132  0.0513 -0.1622  0.1568
16610W        W31741  16.649   4.876  11.205 -0.0059 -0.1266  0.1933
16611W        W31742  14.049  13.584  11.156  0.4768 -0.5278 -0.2785
16612W        W31743   8.746   1.691  15.809 -0.0007 -0.0937 -0.0974
16613W        W31744  12.054  13.002   4.574  0.1838 -0.0753  0.1390
16614W        W31745  14.032  12.551   2.647 -0.1699  0.0139  0.0419
16615W        W31746   7.847  15.624  11.601  0.0332  0.0960  0.0995
16616W        W31747   3.086   5.592  11.190  0.0793 -0.2383  0.1787
16617W        W31748   1.977   4.341  13.275  0.0102  0.2051 -0.0387
16618W        W31749   6.540   0.957  15.027 -0.1506 -0.3063  0.0312
16619W        W31750  15.336   5.424   3.768 -0.2126 -0.2200 -0.0716
16620W        W31751   6.904  12.262  11.780  0.2473  0.0147  0.0110
16621W        W31752   8.571   1.725   1.428  0.4283  0.3854 -0.0430
16622W        W31753   8.685   6.903  11.334  0.1637 -0.2151  0.0048
16623W        W31754   4.905   7.922  14.759 -0.3241 -0.0943 -0.0399
16624W        W31755   2.934   1.257  10.364 -0.0122 -0.2954 -0.1072
16625W        W31756   2.638   3.561  12.118 -0.1895  0.1797  0.1890
16626W        W31757   5.407  13.171  15.318  0.0221 -0.0217 -0.1709
16627W        W31758   9.402   5.470   3.617 -0.2357  0.2890  0.1783
16628W        W31759  12.958   0.554   0.098 -0.0187  0.0373 -0.0074
16629W        W31760   2.704  10.216  12.800 -0.1599  0.1644  0.0422
16630W        W31761  17.167  12.328   6.266 -0.3330  0.2393  0.0055
16631W        W31762  11.367   6.339  11.566 -0.2769 -0.0709 -0.0845
16632W        W31763   8.789  16.707   3.588  0.4515 -0.0263  0.1003
16633W        W31764  12.125  16.796   2.741 -0.0073  0.1363 -0.2061
16634W        W31765   3.455  17.829   4.979  0.2678 -0.0935  0.0208
16635W        W31766   9.582  17.293   0.817  0.0726  0.4511 -0.1741
16636W        W31767   8.913   9.357  15.638 -0.1448 -0.3239  0.1604
16637W        W31768   2.366  17.604  15.150 -0.0152  0.0134  0.1232
16638W        W31769   3.241  10.549   5.738  0.1226 -0.0866 -0.0223
16639W        W31770  12.247  12.433   4.644  0.5208  0.0399 -0.1266
16640W        W31771   6.032  15.787  13.792  0.2610  0.0616  0.4124
16641W        W31772   6.300   6.700   2.794  0.0279  0.1991  0.0059
16642W        W31773  14.439  15.332  14.603  0.0054  0.2521 -0.0563
16643W        W31774  14.207  12.328  10.800  0.1214  0.0915 -0.1806
16644W        W31775   8.160  11.880   2.024 -0.1987 -0.1849  0.1268
16645W        W31776   1.252   6.017   3.054  0.1400  0.2160  0.2206
16646W        W31777  10.969   7.656  14.275 -0.2787  0.0897 -0.0915
16647W        W31778   2.639   3.492  14.609 -0.0127  0.0827 -0.3049
16648W        W31779   8.012   4.823  14.768 -0.2786  0.2861  0.1849
16649W        W31780   5.639   6.970   2.544 -0.2505  0.0701 -0.3060
16650W        W31781   6.727   6.854  10.532 -0.0951  0.2460 -0.0977
16651W        W31782  13.654  13.355   4.121  0.2243 -0.3535  0.1907
16652W        W31783   8.208   6.540   1.631  0.0540  0.1462 -0.0948
16653W        W31784   4.418   5.450  13.764 -0.2449  0.2184 -0.1635
16654W        W31785  11.784   9.242  11.034 -0.0897  0.0249 -0.1376
16655W        W31786  16.763   2.233   2.845 -0.0102 -0.3132  0.0030
16656W        W31787   6.516   9.651   1.115 -0.2994  0.0642 -0.1447
16657W        W31788  15.736  10.720   5.503  0.2754 -0.1457  0.1300
16658W        W31789   5.825  12.979  15.040 -0.2270 -0.1799  0.0066
16659W        W31790  13.333   7.357   5.948  0.2364 -0.3171 -0.0973
16660W        W31791  11.469  13.138  12.204  0.2615 -0.0340  0.0036
16661W        W31792  12.038   3.862   5.631  0.4619  0.1302  0.2146
16662W        W31793   8.023  14.283  12.304 -0.0622 -0.0386 -0.2105
16663W        W31794  10.465   2.599  13.852 -0.0714 -0.2988 -0.0500
16664W        W31795  12.674  12.636   2.252 -0.1892 -0.1468  0.0158
16665W        W31796  14.193   1.437  10.876  0.1537  0.0903 -0.0732
16666W        W31797  10.369   7.265   3.819  0.1794 -0.2852 -0.1342
16667W        W31798   8.471   6.697   5.203 -0.0501  0.0602  0.0050
16668W        W31799   0.762   0.769   0.843  0.1999 -0.1871 -0.0039
16669W        W31800  17.299   6.275   4.896  0.0023  0.2265 -0.0330
16670W        W31801  16.160  13.028  11.669 -0.1037  0.0163 -0.1180
16671W        W31802   3.028  12.867  15.759 -0.0375  0.1554  0.3680
16672W        W31803   6.294  13.808   4.304  0.4940  0.0555  0.1062
16673W        W31804   4.665   3.995  15.702 -0.1555 -0.0856  0.2431
16674W        W31805   8.744   9.603   4.385 -0.1310  0.1041 -0.1032
16675W        W31806  10.702  15.099  12.547 -0.1223 -0.0696 -0.1455
16676W        W31807  10.710   5.849   5.816  0.3430  0.0056  0.1779
16677W        W31808   4.943   1.091   4.041  0.0705 -0.2973  0.2709
16678W        W31809  16.325   2.380  15.074  0.0540  0.3256  0.1344
16679W        W31810  13.280   9.172  10.357  0.1408 -0.0551  0.3060
16680W        W31811   3.667   2.557  12.544 -0.0457  0.1311  0.2661
16681W        W31812  16.448   3.622  10.605 -0.0788 -0.2147 -0.0087
16682W        W31813   3.779  13.939  15.470 -0.2483  0.2997 -0.0728
16683W        W31814   5.373   4.831  13.217  0.2180 -0.0639  0.2395
16684W        W31815  12.019   8.234   1.966 -0.0808 -0.1140  0.2093
16685W        W31816   4.030   4.284   6.249 -0.1129  0.0171 -0.0409
16686W        W31817   4.868  12.167  11.361 -0.0111  0.1847  0.1989
16687W        W31818  15.136  15.368  15.723  0.0519  0.2232  0.3146
16688W        W31819  11.601  14.625  12.289 -0.0715  0.0098  0.0207
16689W        W31820   1.312   0.658  13.065  0.1310 -0.3679 -0.2251
16690W        W31821   8.630  11.144   3.716 -0.1748 -0.1801  0.0203
16691W        W31822   9.097  10.719   1.950 -0.1481 -0.0007  0.0040
16692W        W31823   6.259  11.903   3.218 -0.1045 -0.2742 -0.1865
16693W        W31824   0.303  11.805  14.413  0.2684 -0.1735 -0.0963
16694W        W31825   0.424  13.437  13.775  0.3014  0.2222 -0.1640
16695W        W31826  14.118  10.159   0.397  0.2148 -0.0180 -0.2023
16696W        W31827   0.230  12.143   3.047  0.4484  0.0372  0.1658
16697W        W31828  12.951   0.288   1.063  0.0501 -0.0481 -0.2483
16698W        W31829  15.808  13.521   1.285  0.0315  0.1381  0.2002
16699W        W31830   9.754  16.647   6.285 -0.1205 -0.0730 -0.1391
16700W        W31831   7.167  13.707   3.964  0.1021  0.2952  0.0915
16701W        W31832   9.937   9.788  11.063  0.1403 -0.1277 -0.1027
16702W        W31833   5.542   2.865   4.346  0.2684 -0.3756 -0.2675
16703W        W31834   6.822   7.414   1.573 -0.1402  0.0612 -0.0594
16704W        W31835   4.587   5.590   1.493 -0.0072  0.4333  0.2118
16705W        W31836   7.171   9.446   2.113  0.0091 -0.0827  0.1053
16706W        W31837  14.366  14.001  12.115  0.1705  0.1293 -0.1673
16707W        W31838   1.947  10.159   4.086 -0.1912  0.1233  0.1325
16708W        W31839  11.468  12.457  12.955  0.0459 -0.0057  0.0816
16709W        W31840   4.360   7.711  12.403 -0.0051  0.1904 -0.1842
16710W        W31841  13.405  15.786  11.767 -0.2596  0.1766  0.1249
16711W        W31842   8.910   1.965  15.417 -0.1704  0.0614 -0.0441
16712W        W31843  13.028   2.860   5.500  0.1497 -0.0196 -0.2427
16713W        W31844  10.506   6.015   4.062  0.0014 -0.1054  0.2770
16714W        W31845  17.964  11.626   6.746  0.3297  0.2597  0.2076
16715W        W31846   3.511   0.772   1.964 -0.2202 -0.1883  0.0605
16716W        W31847   1.337  17.046  16.069  0.1301  0.0443  0.0763
16717W        W31848  12.375   4.291   0.050 -0.0241 -0.3885  0.0597
16718W        W31849   7.627   4.176  13.775 -0.0844  0.2223  0.0386
16719W        W31850  15.145   1.102   1.315 -0.0121  0.1782  0.2746
16720W        W31851  16.373   9.680  13.400  0.1546 -0.2555 -0.0017
16721W        W31852  15.541   7.524  14.531  0.1662  0.0868  0.0302
16722W        W31853   0.293  12.659  13.827 -0.1213 -0.1030 -0.0275
16723W        W31854   5.830   5.653   2.309 -0.2283 -0.0679  0.1097
16724W        W31855  14.717   6.356   1.156  0.0281  0.1330  0.1093
16725W        W31856   4.372   0.294  10.861 -0.0348  0.3429 -0.2332
16726W        W31857  12.545   4.431  14.606 -0.1538  0.1936 -0.0700
16727W        W31858   6.297  10.236  14.119  0.1894  0.2267  0.2412
16728W        W31859  16.105   8.868  14.626 -0.0100 -0.0482  0.2243
16729W        W31860   8.640  17.462   1.024  0.0946  0.1497 -0.0189
16730W        W31861  16.941  16.511   0.220  0.1120 -0.1699 -0.1783
16731W        W31862  17.834   2.540   0.947 -0.1354  0.0074 -0.0509
16732W        W31863   1.813  13.315  10.753  0.0121 -0.2141  0.1806
16733W        W31864   0.246   2.720  14.487 -0.4551 -0.1657  0.2047
16734W        W31865  14.965   0.229  11.211 -0.0518  0.1417 -0.0991
16735W        W31866  15.295   4.519  11.752  0.1201  0.1295  0.1527
16736W        W31867  14.099   9.520   2.741 -0.0743  0.0316  0.0226
16737W        W31868  14.981  12.653   2.803 -0.1032 -0.1010 -0.1265
16738W        W31869  10.174   7.171   0.007 -0.1868 -0.1285 -0.0998
16739W        W31870  15.164   3.877  13.850  0.2350  0.2655  0.2072
16740W        W31871  17.399  12.245   1.929 -0.1402 -0.3399 -0.2616
16741W        W31872  13.112   3.330   3.678 -0.0221 -0.0650 -0.0603
16742W        W31873   5.277  10.065  13.274 -0.1344 -0.0267  0.0168
16743W        W31874   3.616  14.304  12.565  0.0642 -0.1884  0.4262
16744W        W31875   4.091   6.497  12.457  0.0371 -0.2636  0.0821
16745W        W31876  11.809  18.006  10.309  0.0313  0.0911 -0.1001
16746W        W31877   0.327  14.232  15.832  0.1161 -0.0883 -0.1248
16747W        W31878   8.132   4.999   2.866 -0.0424 -0.1110  0.1334
16748W        W31879   9.749  16.558   1.280 -0.1109 -0.0364  0.1412
16749W        W31880  13.011  10.159   2.251  0.0919 -0.1593 -0.0245
16750W        W31881  16.039  17.749   4.948 -0.2242  0.1930 -0.0304
16751W        W31882   2.752   4.915  13.113  0.0761 -0.0654 -0.2369
16752W        W31883   9.720   4.086   3.522  0.1904  0.0930  0.1051
16753W        W31884  16.686   2.854  14.141 -0.0378  0.1942  0.0051
16754W        W31885  13.755  17.956  16.101 -0.1039  0.0335 -0.0263
16755W        W31886   1.777   6.823   1.901  0.1817  0.1414 -0.0222
16756W        W31887   9.531   9.289  14.477 -0.1720  0.0210  0.2985
16757W        W31888   8.712  16.857  13.969 -0.1531  0.2541 -0.1020
16758W        W31889  17.418   7.294   1.774 -0.1306 -0.0087  0.0984
16759W        W31890  16.556   8.748  12.086  0.1095 -0.2382  0.4909
16760W        W31891   3.092  17.377   1.960  0.1921 -0.0786 -0.3185
16761W        W31892   4.685   4.183   3.106  0.0416  0.2139  0.0072
16762W        W31893  14.158  14.671   5.276  0.0928 -0.0600  0.2387
16763W        W31894  12.201   9.233   1.202 -0.0170  0.0201 -0.1113
16764W        W31895   4.199  16.539   0.215  0.0546  0.2524  0.0084
16765W        W31896  14.214   8.370  15.108 -0.0106  0.1125 -0.1909
16766W        W31897   8.775   8.447  11.272  0.1366 -0.0022  0.0171
16767W        W31898   2.020   1.441   0.523 -0.0075 -0.2455 -0.2972
16768W        W31899   4.673   8.585   4.582 -0.2878 -0.2520  0.0813
16769W        W31900  14.942   4.318  14.045 -0.0600 -0.0128 -0.0119
16770W        W31901   7.833   7.828  13.281  0.1284  0.2747 -0.0725
16771W        W31902   9.213  11.032  12.726  0.2510  0.0262 -0.0406
16772W        W31903   4.190   5.981   2.882 -0.1604 -0.3357  0.0651
16773W        W31904  12.107  15.440   4.833 -0.0487 -0.1113 -0.5771
16774W        W31905   7.795  10.567  13.412 -0.0016  0.2050 -0.1331
16775W        W31906  12.678   0.673  13.573 -0.1332 -0.1853 -0.0639
16776W        W31907   0.387  11.253   5.425 -0.0611  0.0853 -0.0833
16777W        W31908  13.891   9.391   5.900 -0.3161 -0.0623  0.1733
16778W        W31909  10.705  13.474  15.326 -0.2864  0.2148 -0.1105
16779W        W31910   0.865   2.258  11.087 -0.0062  0.0835 -0.0966
16780W        W31911  11.957  17.767  15.661 -0.5632  0.3018  0.1299
16781W        W31912   1.009  12.665   3.446  0.1844 -0.2600  0.1978
16782W        W31913  14.804  17.615  11.563 -0.1804 -0.1078  0.3043
16783W        W31914  17.235   1.280  14.901  0.3008  0.1306 -0.0333
16784W        W31915  16.757   5.317  12.452  0.2284  0.1815  0.1161
16785W        W31916   4.123   3.549   3.451  0.1961  0.0850  0.1374
16786W        W31917   9.247   2.326  13.635  0.0356  0.2926 -0.1652
16787W        W31918  16.438   1.585   9.996  0.1434  0.0367 -0.2885
16788W        W31919   5.319   6.908  13.773  0.0447 -0.0333 -0.0846
16789W        W31920   8.063   2.209  12.253 -0.0957  0.0002 -0.2150
16790W        W31921   4.208  12.644  15.567 -0.0022  0.0976  0.0923
16791W        W31922   0.561  12.832   2.918 -0.1841  0.0999  0.4686
16792W        W31923   8.397   2.727  13.818 -0.0471 -0.2407  0.0475
16793W        W31924   4.695  13.248  11.683  0.0454  0.0916  0.0995
16794W        W31925  17.658   0.574   0.302 -0.3949  0.0092  0.0374
16795W        W31926   5.186   8.295  10.932  0.1281  0.0639  0.0006
16796W        W31927  12.324  11.698   4.333 -0.1590  0.0749 -0.1082
16797W        W31928  12.159  17.891  12.863  0.2881 -0.0987  0.1935
16798W        W31929  11.373   2.049  11.499 -0.1532  0.0984 -0.2298
16799W        W31930  17.353   0.449  13.057 -0.1344 -0.0733  0.0037
16800W        W31931   3.993   5.097   1.901  0.0920 -0.1593  0.1663
16801W        W31932   1.996   0.548  12.475  0.0298 -0.1633  0.2143
16802W        W31933   4.199   5.181  13.300  0.1349  0.1541 -0.1968
16803W        W31934  17.350  17.328  16.021 -0.2528 -0.0784  0.2055
16804W        W31935  17.097  15.638   4.512 -0.1144  0.0744  0.1531
16805W        W31936  15.461   5.696  12.247 -0.0159 -0.1580 -0.1217
16806W        W31937   2.699   1.247   5.270 -0.1757  0.0600  0.3368
16807W        W31938   9.439  14.599   0.503  0.3447  0.0233  0.2436
16808W        W31939  13.672  14.730   2.214 -0.0983 -0.3212  0.0485
16809W        W31940  17.456  13.533   5.519  0.0637 -0.2287 -0.0818
16810W        W31941  17.288  17.643   5.561 -0.0493 -0.0933  0.0624
16811W        W31942   3.074   7.792   6.013  0.2529  0.3644  0.0386
16812W        W31943  17.695   1.383  14.016 -0.0307  0.2016 -0.0094
16813W        W31944   2.161  12.907  14.213  0.0641 -0.2390  0.0464
16814W        W31945   4.688  15.542  14.764  0.1010 -0.1701  0.1307
16815W        W31946  16.903  12.912   3.393  0.1481  0.1103 -0.1654
16816W        W31947  17.945  10.757   2.973 -0.1622  0.0641 -0.1102
16817W        W31948   1.628  12.351  16.100 -0.0545 -0.0160  0.3503
16818W        W31949  11.571   5.078  13.504 -0.1078  0.0125  0.2816
16819W        W31950   8.549  10.988  14.855  0.2824  0.2299  0.1310
16820W        W31951   3.190  15.123   4.025  0.2915 -0.0222 -0.1384
16821W        W31952   8.483  15.777  15.541 -0.0103 -0.0455 -0.4192
16822W        W31953   7.602   4.689  15.562  0.0999 -0.0026 -0.1315
16823W        W31954   3.142  12.203  11.821 -0.2916  0.3136  0.1328
16824W        W31955   2.367   2.728   0.383 -0.0523  0.2320  0.0101
16825W        W31956   4.045   1.369   2.797 -0.2125 -0.3159 -0.1590
16826W        W31957   7.464  15.821   2.074  0.1591  0.4985 -0.1232
16827W        W31958   5.528   5.712  13.601  0.1060  0.1203  0.0745
16828W        W31959  17.206   5.845  16.194  0.0108 -0.0699  0.0597
16829W        W31960   7.267  12.953   1.908 -0.0961 -0.0020  0.3675
16830W        W31961  17.310  10.980  13.196  0.0009  0.0579 -0.1295
16831W        W31962   3.588  16.490  15.454  0.3541 -0.0905  0.2991
16832W        W31963  16.148   9.178   3.469 -0.1028  0.1352  0.1327
16833W        W31964  14.405   3.088  14.149 -0.1098  0.1647 -0.0107
16834W        W31965   5.222  10.014  14.988  0.0427 -0.0837 -0.0092
16835W        W31966  10.562  11.642  13.806  0.2343  0.1366 -0.0991
16836W        W31967   8.568  16.489  12.374 -0.1508  0.1755  0.2457
16837W        W31968   4.212  12.444   5.210  0.0698 -0.1703  0.2776
16838W        W31969   3.066   3.452  15.481 -0.1076  0.1551 -0.0625
16839W        W31970   5.382   9.800   4.580 -0.0009  0.1435  0.1504
16840W        W31971  11.493  16.981   1.498  0.0924  0.0337  0.3356
16841W        W31972   6.911  16.293   3.747  0.1454  0.0310  0.0374
16842W        W31973   4.380   0.283   0.550  0.1653 -0.2195 -0.0502
16843W        W31974   1.070  17.987  15.775 -0.0553 -0.0985  0.1990
16844W        W31975  13.058   1.072   2.969  0.0024 -0.1181  0.1989
16845W        W31976   2.582   6.249  12.305 -0.1814  0.4307 -0.0889
16846W        W31977   9.377  16.926  15.502 -0.3083 -0.0721  0.1054
16847W        W31978   3.621   5.241  11.258 -0.0608 -0.0516 -0.2087
16848W        W31979  14.109   6.514  12.557 -0.1218  0.0936  0.0219
16849W        W31980   5.619  13.374  13.589 -0.2572 -0.3166 -0.1840
16850W        W31981   1.517   0.263  10.667 -0.0453 -0.2203 -0.0019
16851W        W31982  13.510   8.991   3.801  0.1636  0.1831 -0.0590
16852W        W31983  12.846  15.200   3.721 -0.1334  0.2291 -0.2506
16853W        W31984   0.021  13.143   2.211  0.1604 -0.1040 -0.1741
16854W        W31985  10.773  16.964  15.767 -0.0272 -0.1681 -0.1164
16855W        W31986  11.005   1.124   2.857 -0.0519 -0.0972  0.2524
16856W        W31987   6.137   9.020   3.672  0.0988 -0.0536 -0.1816
16857W        W31988   3.498  15.216  15.397  0.2548  0.0113  0.0929
16858W        W31989   8.439  13.176   4.001  0.1077  0.3075  0.1990
16859W        W31990   7.863   8.629   1.801 -0.1577  0.1921  0.0431
16860W        W31991   6.812   5.904  11.289 -0.1393 -0.1351 -0.1009
16861W        W31992  14.794  15.609  16.021 -0.5233 -0.2465 -0.1641
16862W        W31993  15.003  12.603  14.880 -0.1760 -0.2843  0.0937
16863W        W31994  15.809   4.015   1.577  0.0746  0.0337  0.0427
16864W        W31995  17.146   9.967  15.552 -0.0963 -0.1674  0.0898
16865W        W31996   0.346  11.400  13.419 -0.1941 -0.0372 -0.0916
16866W        W31997   3.913   3.396  13.707  0.2919 -0.3770  0.0078
16867W        W31998   9.899   8.567  14.853 -0.1208 -0.0553 -0.3001
16868W        W31999   3.147   9.060  14.692  0.2361 -0.1117  0.1824
16869W        W32000   0.447  15.470  12.026  0.3058 -0.0918 -0.0273
16870W        W32001   6.360  14.383  14.024  0.1713  0.2622 -0.2279
16871W        W32002   3.693   5.306   1.567 -0.0591  0.0192 -0.2066
16872W        W32003   0.447   5.907   5.050  0.2859  0.0305  0.2521
16873W        W32004   7.750  10.688   2.402  0.1402  0.2722  0.2118
16874W        W32005  11.059   5.175   4.640  0.1885  0.1723 -0.0739
16875W        W32006  11.631   3.464   1.086 -0.0489 -0.0887  0.1165
16876W        W32007   1.965   5.899  15.211  0.5112  0.0578 -0.1265
16877W        W32008   0.210   0.425   1.792 -0.0280  0.1110 -0.1449
16878W        W32009  12.905  17.322  15.790  0.1330 -0.0957 -0.1906
16879W        W32010  12.400  12.626  15.825  0.1365 -0.0304  0.1553
16880W        W32011   5.629  17.431   2.195  0.0776  0.1900  0.0170
16881W        W32012  16.188  12.321  12.343  0.0160 -0.0508  0.1294
16882W        W32013  14.385   6.211   2.130 -0.0755  0.2109  0.1061
16883W        W32014  11.481   3.337   5.177  0.0842  0.0155  0.1683
16884W        W32015   5.102  15.704  13.427 -0.1314  0.0321  0.3214
16885W        W32016  15.011  10.029   3.469 -0.1472 -0.3221 -0.1931
16886W        W32017  12.932   2.726  14.189  0.0440 -0.2354  0.1417
16887W        W32018  15.854   4.857   3.169  0.2755 -0.2777 -0.2572
16888W        W32019  16.961  10.955   3.375 -0.0281  0.2635 -0.0853
16889W        W32020  13.105  14.508  11.311 -0.1453  0.0921  0.0094
16890W        W32021  17.206  10.239  13.917  0.0012  0.0612 -0.2720
16891W        W32022   7.347  16.756  15.796 -0.2247  0.0701  0.2041
16892W        W32023   1.180   5.841   2.008 -0.2010  0.0654 -0.0074
16893W        W32024   1.122   2.949   3.376  0.0045 -0.1267 -0.0298
16894W        W32025  12.335   0.266   1.727 -0.2334 -0.0361 -0.1129
16895W        W32026   3.380   0.115   2.839  0.0830  0.0280 -0.1905
16896W        W32027   6.241   3.109   2.396 -0.0972 -0.1982  0.0491
16897W        W32028  10.210   3.143  12.211 -0.0979 -0.1174 -0.0568
16898W        W32029   5.932   0.913   4.672  0.0219  0.1064 -0.0797
16899W        W32030   5.574   9.503  15.483  0.2790 -0.0918  0.2102
16900W        W32031   0.943  10.826   6.091 -0.1809 -0.3045  0.0308
16901W        W32032  16.986   1.436  12.303 -0.0527 -0.1313  0.2000
16902W        W32033  11.329  16.830   3.713 -0.1450  0.1290 -0.1203
16903W        W32034   0.468  13.786  14.119  0.2482  0.0605  0.1287
16904W        W32035   9.439  10.299   0.766  0.5051  0.2706 -0.0440
16905W        W32036  16.363   8.566  12.533  0.0731  0.2941 -0.0078
16906W        W32037   2.421   2.957  14.457 -0.2820  0.0409 -0.0499
16907W        W32038   6.013  11.616   5.534 -0.0311  0.1314 -0.0434
16908W        W32039   6.897   2.533  13.907 -0.4094 -0.0315  0.0191
16909W        W32040  13.090   7.644   5.039 -0.0360 -0.2594  0.1144
16910W        W32041   2.001   7.268   1.949  0.1425 -0.2349  0.0688
16911W        W32042  11.473   7.103  11.304 -0.1421  0.0327 -0.0394
16912W        W32043  16.336   6.049  16.247 -0.1488 -0.0628  0.0934
16913W        W32044  10.366   4.544   4.611  0.1899  0.1455 -0.1633
16914W        W32045   0.330  13.783   2.901  0.3886 -0.3187 -0.2017
16915W        W32046   7.349  10.543  15.546 -0.1475  0.1426  0.1313
16916W        W32047   4.936   8.597  13.934 -0.2041  0.1735  0.0508
16917W        W32048   9.630  14.794  15.202  0.4031 -0.3338  0.0084
16918W        W32049   6.436  17.802   0.194 -0.1660  0.0200 -0.1191
16919W        W32050   0.747   6.937  14.770 -0.0158 -0.2560  0.4515
16920W        W32051   6.153   5.832   3.201  0.0278 -0.1237 -0.1195
16921W        W32052  14.069  14.119   0.672  0.0783  0.0932 -0.1371
16922W        W32053  13.277   4.231  12.947  0.1509  0.0529  0.0297
16923W        W32054   1.786   8.940  10.013 -0.1172  0.1596 -0.1230
16924W        W32055  18.076   7.377   2.582  0.2133  0.1716 -0.1917
16925W        W32056   3.411  15.798   1.683  0.1905 -0.1844  0.0520
16926W        W32057  17.747  11.403  10.664  0.2655  0.3685 -0.1575
16927W        W32058  11.660  14.942   1.456  0.0524  0.0321  0.0574
16928W        W32059  18.029   4.695   0.767 -0.1057  0.2146 -0.1434
16929W        W32060  13.888   0.446   2.600  0.0063 -0.3301 -0.0400
16930W        W32061  13.484   7.742   2.485  0.0027 -0.1648 -0.0500
16931W        W32062   0.742   7.492   4.522 -0.0530  0.1111  0.0600
16932W        W32063   4.687   3.808  13.509  0.0009 -0.0563 -0.0081
16933W        W32064  10.279  11.032   0.680  0.4615 -0.1139  0.2405
16934W        W32065   7.646   2.809   2.148  0.2274 -0.1447  0.2774
16935W        W32066   4.343   5.061   3.126  0.0923  0.2339 -0.0057
16936W        W32067   7.560   1.629   0.111 -0.1743  0.1084 -0.1308
16937W        W32068  14.684  17.429  13.626 -0.1873 -0.2770  0.0556
16938W        W32069   1.570  12.051  14.328 -0.2246  0.1028 -0.1104
16939W        W32070  13.307   7.376   1.211 -0.0656 -0.1418 -0.0096
16940W        W32071  14.249  17.701  16.026  0.1687 -0.0940 -0.0135
16941W        W32072  14.316  15.055  10.207 -0.2798  0.0759 -0.1369
16942W        W32073   6.180  14.845   0.586 -0.4733 -0.2485  0.2467
16943W        W32074   3.521   5.684   4.197  0.0090  0.0155 -0.2638
16944W        W32075   0.270   5.951  16.025 -0.1476  0.2206  0.0178
16945W        W32076   5.397   9.656  16.220  0.1073 -0.2894  0.1484
16946W        W32077   4.412   9.767   2.087  0.3291 -0.1302  0.1870
16947W        W32078  16.958  12.536   1.187 -0.3088  0.1046  0.0940
16948W        W32079  13.341  14.369   1.306 -0.1346 -0.0615 -0.1189
16949W        W32080  11.696  11.714  10.323 -0.0681  0.0312  0.2052
16950W        W32081   0.672  13.017  13.854 -0.1665 -0.0226  0.1516
16951W        W32082   0.525   0.755   1.593 -0.1565  0.3105 -0.0053
16952W        W32083   9.091   0.289  11.071  0.0453  0.1758 -0.2481
16953W        W32084  11.379   0.317  11.984 -0.3043  0.0830  0.0909
16954W        W32085   8.084  17.573  13.125  0.3872  0.1210  0.3354
16955W        W32086  16.101  17.465  11.975 -0.1589  0.1105 -0.3223
16956W        W32087   8.787  14.325  14.636 -0.0665  0.1294  0.0852
16957W        W32088   8.761  15.227   3.227  0.0431 -0.1953  0.0455
16958W        W32089  15.584   3.831  15.385 -0.1371 -0.2820  0.0380
16959W        W32090  12.938  14.420   6.052  0.2632  0.2585  0.1373
16960W        W32091   1.711   9.796   4.769 -0.1692 -0.2114  0.1291
16961W        W32092   6.649   7.627   4.488 -0.1012  0.1605  0.0665
16962W        W32093   1.180   0.623  10.416  0.0704 -0.3035 -0.0312
16963W        W32094  14.042   0.952  10.956 -0.1868  0.0585 -0.0907
16964W        W32095  12.234   7.301   3.716  0.0060 -0.1900  0.0725
16965W        W32096   2.866  14.568  13.423 -0.0820  0.1421  0.3040
16966W        W32097   4.114  13.314  12.887 -0.1180 -0.1906 -0.0320
16967W        W32098  12.513   6.844  11.813 -0.1445 -0.0475  0.1898
16968W        W32099  18.077   7.082   0.261  0.1864 -0.1523 -0.1804
16969W        W32100   8.188   9.105  11.348  0.2129 -0.2398  0.2795
16970W        W32101  11.808   5.261  13.057 -0.4011 -0.0941  0.0273
16971W        W32102   0.836  15.701  12.355 -0.0173  0.3803  0.2237
16972W        W32103   2.844  17.264  15.407 -0.0826 -0.0601 -0.1059
16973W        W32104  17.326   6.324  13.351 -0.1640 -0.2170  0.2407
16974W        W32105   1.598  10.487  10.697 -0.3425 -0.1150  0.2355
16975W        W32106   6.491   1.424   4.571 -0.0718 -0.0844  0.0110
16976W        W32107   7.335   7.146   0.530  0.2797  0.0661  0.5545
16977W        W32108  11.519   3.591   4.068 -0.1869 -0.0648  0.0918
16978W        W32109   4.398   6.039  12.965  0.0468  0.1408 -0.1773
16979W        W32110   1.878  15.411   2.564  0.1987 -0.0293 -0.1611
16980W        W32111   3.962  11.563  14.979 -0.3797  0.1528  0.0635
16981W        W32112   7.122   1.668   1.601  0.2506 -0.1338  0.2698
16982W        W32113   2.389   3.031   2.806  0.1040 -0.0503  0.2345
16983W        W32114   1.623   6.915  12.876 -0.0370  0.1274  0.2991
16984W        W32115  15.027   5.121  14.076 -0.1380  0.1216  0.2974
16985W        W32116   3.364   6.470   3.723 -0.1813 -0.0088 -0.2412
16986W        W32117   9.429   4.244   0.816 -0.0159 -0.1457 -0.0210
16987W        W32118  16.818   8.026   3.238 -0.0500  0.1238 -0.1241
16988W        W32119   0.575   1.992   4.602  0.0412  0.0911  0.1212
16989W        W32120   0.249  10.937  13.303  0.2298 -0.0407  0.2768
16990W        W32121   4.320  17.017   0.051 -0.2975  0.0215  0.0353
16991W        W32122  16.683  13.759   2.996 -0.2826  0.0812 -0.1410
16992W        W32123   5.849  15.641   2.737  0.1080  0.0780  0.2675
16993W        W32124  13.167  17.759   1.826 -0.1987  0.2717 -0.3167
16994W        W32125  14.359   2.248   4.281  0.1930  0.1205 -0.1052
16995W        W32126  14.881  16.967  13.533  0.1485  0.2087 -0.5526
16996W        W32127  15.494  11.315  13.863  0.0357 -0.0063 -0.4807
16997W        W32128   7.531   9.120  11.987 -0.0169 -0.1063 -0.2587
16998W        W32129   2.466  16.356  13.042  0.1606 -0.2022 -0.0255
16999W        W32130   2.088   1.444  15.292 -0.0403 -0.0138 -0.1556
17000W        W32131  13.468  11.879  11.373 -0.2258  0.1803  0.0647
17001W        W32132  16.210  16.322   4.979  0.1668 -0.0199  0.1643
17002W        W32133  17.489   8.566   0.947 -0.3044 -0.2310 -0.1918
17003W        W32134  11.622  17.546  14.179 -0.1824  0.5335 -0.1648
17004W        W32135  14.771   9.716   1.785  0.0394 -0.3070  0.0476
17005W        W32136   2.590   2.757  12.170  0.2216  0.3147  0.1762
17006W        W32137  14.087   5.249  13.040  0.2502 -0.1323 -0.0773
17007W        W32138   7.350  13.104   1.416  0.4294  0.1592  0.1227
17008W        W32139   9.493  12.092  13.152  0.0824 -0.1428 -0.0141
17009W        W32140  14.513   7.614  13.816 -0.1171  0.1053  0.0946
17010W        W32141  14.611  13.660  14.968 -0.0125  0.0255 -0.3163
17011W        W32142   5.334   1.623  12.904 -0.1951  0.2113 -0.1915
17012W        W32143   6.054   9.302   0.891  0.0569 -0.1391 -0.0993
17013W        W32144   8.342   0.978  10.835  0.2172 -0.0303 -0.0710
17014W        W32145  10.306  15.776   4.268 -0.0182 -0.1016 -0.0502
17015W        W32146  16.941  14.181   0.546  0.0548  0.0262 -0.0972
17016W        W32147   9.619  16.364   4.288  0.2305 -0.0228 -0.2528
17017W        W32148  12.350  14.545   2.958 -0.0070  0.0364 -0.1237
17018W        W32149  16.975  17.703   4.460  0.2736  0.1195 -0.1065
17019W        W32150   0.328   6.975  15.585 -0.1438 -0.0164 -0.1875
17020W        W32151  16.150  14.109  10.354  0.1803 -0.2011  0.0903
17021W        W32152   1.142   5.095   3.888 -0.3369 -0.0367 -0.3762
17022W        W32153  13.959   2.039   3.591  0.0375  0.1178 -0.0606
17023W        W32154   9.119   6.857   3.944 -0.0789 -0.3190  0.1592
17024W        W32155   9.730  16.094  13.975 -0.1661 -0.1260  0.0523
17025W        W32156   1.397  16.533   4.070  0.2541 -0.0823 -0.2480
17026W        W32157  15.580   0.890   0.491 -0.2490 -0.0138  0.0725
17027W        W32158   0.249  11.007   0.671  0.1705  0.0515  0.0318
17028W        W32159   2.078   8.373  12.928 -0.2960  0.3054  0.0497
17029W        W32160  14.086  10.905  10.679  0.0330 -0.0901 -0.0583
17030W        W32161  15.778   1.932   0.530 -0.0626  0.0163 -0.1758
17031W        W32162   7.601   3.310  15.204  0.0247  0.0870  0.0244
17032W        W32163   9.301  15.853  15.192 -0.2007  0.2180 -0.0851
17033W        W32164   1.590   0.971   3.908  0.1241 -0.1039  0.0517
17034W        W32165  11.012   5.217  15.226  0.0804 -0.0914  0.1444
17035W        W32166   3.724   6.763  15.786 -0.0701  0.2577  0.0524
17036W        W32167  17.182  13.834  14.489  0.1483  0.0661 -0.1831
17037W        W32168   0.234   5.504   5.301 -0.1444  0.2094  0.2926
17038W        W32169   4.646   0.825   3.508  0.1533 -0.0511 -0.2851
17039W        W32170  11.496  16.352   0.852  0.1413 -0.3338 -0.0067
17040W        W32171  10.997  16.250   4.346 -0.1598 -0.0978 -0.2955
17041W        W32172  10.831  16.229   2.433 -0.0026 -0.3857  0.1941
17042W        W32173  13.662   7.887   5.899 -0.0446 -0.3838  0.1547
17043W        W32174   0.489  14.352   1.051  0.0047  0.0874 -0.2442
17044W        W32175   3.024   8.937   4.830  0.1580 -0.2761 -0.0134
17045W        W32176   0.191   5.060  11.606 -0.2752  0.1404 -0.0725
17046W        W32177  17.723   7.821   4.473 -0.1876 -0.2302 -0.6678
17047W        W32178   9.618   4.541  10.991 -0.0974 -0.0508 -0.1782
17048W        W32179   2.962   9.915  11.971 -0.3878 -0.4736 -0.0274
17049W        W32180   5.809  10.406   3.042 -0.1339 -0.3531  0.0440
17050W        W32181   1.491  12.697   2.862  0.0398 -0.2448  0.0409
17051W        W32182  11.682   9.400   0.820 -0.4679 -0.5000  0.0363
17052W        W32183  10.548  11.523  15.469 -0.0069 -0.3191 -0.2089
17053W        W32184   8.198   9.345   1.330 -0.1947 -0.1104 -0.0610
17054W        W32185  12.648   3.623   5.927 -0.1021 -0.1251  0.0099
17055W        W32186  12.144  16.285  11.840 -0.3384  0.0294 -0.0560
17056W        W32187   0.031  17.073  12.761 -0.1140 -0.3793  0.0456
17057W        W32188   1.056  12.059   3.393 -0.0979 -0.2697  0.0043
17058W        W32189   7.996   2.110  15.647  0.0999 -0.0262 -0.0564
17059W        W32190  15.783  12.576   4.052 -0.0995  0.0099  0.0711
17060W        W32191  14.337  18.080   2.537  0.0881  0.0195  0.1303
17061W        W32192  15.104  15.509  12.882 -0.1571  0.0567 -0.1044
17062W        W32193  14.385   4.377   4.882 -0.0298 -0.2287 -0.0338
17063W        W32194  10.928  11.830  11.109 -0.1019  0.1383 -0.0859
17064W        W32195   0.320  12.594   0.194  0.2594  0.1069  0.0620
17065W        W32196   5.736   5.462   3.586 -0.0507 -0.0878  0.2187
17066W        W32197   7.862   0.314  10.656  0.0215 -0.0284 -0.0203
17067W        W32198  13.086   8.364  14.697 -0.0756  0.0216  0.1362
17068W        W32199   4.835  13.259   1.489  0.1106 -0.0010 -0.1851
17069W        W32200   7.153  17.121  13.356 -0.0414  0.2273  0.2649
17070W        W32201   3.072   2.701  13.112  0.0124  0.4455  0.1238
17071W        W32202   5.918  12.547  14.685 -0.1301 -0.0783 -0.1040
17072W        W32203   0.195   0.362   2.722  0.0581 -0.3589  0.1230
17073W        W32204  10.006   9.340  12.581 -0.1264  0.2755 -0.0988
17074W        W32205   4.866  11.077  15.807  0.0492  0.1096 -0.2331
17075W        W32206   7.701   8.196   5.108 -0.0255  0.1884 -0.1488
17076W        W32207  11.974   9.102  14.971 -0.2304  0.0108 -0.5358
17077W        W32208  14.495   9.452  15.875 -0.0424 -0.1789 -0.0615
17078W        W32209  16.890   9.403   4.362  0.1205 -0.1049  0.1098
17079W        W32210  15.852   2.872  11.807  0.0095  0.2943  0.0621
17080W        W32211  12.698  17.019   1.087  0.0861  0.1958  0.1392
17081W        W32212   1.975  16.995   1.451  0.2141 -0.1349  0.3487
17082W        W32213   6.819   3.578  15.803  0.0895  0.3146  0.0369
17083W        W32214  13.969  12.126   4.054  0.2696  0.1952  0.1657
17084W        W32215   5.853  11.475   1.053  0.0435 -0.1977 -0.1827
17085W        W32216   3.903   0.072  13.749  0.2511 -0.0017  0.1567
17086W        W32217   4.203  12.096   5.656  0.1482  0.1133  0.0069
17087W        W32218   3.020   4.173  11.842  0.2852  0.1229  0.0692
17088W        W32219  13.532  10.046   1.339 -0.0832  0.2934 -0.2201
17089W        W32220  12.351  16.220   1.483 -0.0082  0.2511 -0.1246
17090W        W32221  11.775   3.703  12.990 -0.1000 -0.0257 -0.1877
17091W        W32222  11.521  12.031  13.723 -0.1001 -0.0095 -0.2474
17092W        W32223  10.171   2.633   1.851  0.1185 -0.2350  0.0538
17093W        W32224  16.441  10.938  11.596  0.3889  0.1550  0.0233
17094W        W32225   1.232   1.904  14.293  0.4153  0.0785  0.0264
17095W        W32226   8.186   7.782   5.709 -0.1540 -0.0630 -0.0093
17096W        W32227  13.378   6.800   2.300  0.0407  0.0780  0.0218
17097W        W32228   8.804  12.291  11.016  0.0320 -0.2316 -0.1898
17098W        W32229  14.616   9.949   3.738  0.0742  0.2626  0.1866
17099W        W32230  11.894  11.023   1.264 -0.0356  0.0172  0.2084
17100W        W32231  16.263  17.469   2.580  0.0044 -0.0918 -0.0164
17101W        W32232   7.450   9.955   3.865 -0.5385  0.0246 -0.0585
17102W        W32233  10.389   6.865  11.446 -0.0787  0.0433 -0.0475
17103W        W32234   0.886  13.537   5.713  0.1032  0.1034  0.0912
17104W        W32235  13.571   3.857  12.888 -0.2426  0.0293  0.0912
17105W        W32236  13.044  12.289   5.590  0.0212  0.0775 -0.0454
17106W        W32237   8.012   9.150   0.935 -0.0025  0.1421  0.0077
17107W        W32238  13.252   8.331  11.754  0.2541  0.2919 -0.0758
17108W        W32239  17.303   0.137  15.609 -0.0513 -0.1831 -0.0124
17109W        W32240   3.919  15.256   0.521 -0.0771 -0.1714  0.3220
17110W        W32241   7.361   8.468  12.655 -0.2198 -0.1097  0.0483
17111W        W32242   9.459   6.234   2.372 -0.0851 -0.1482  0.2112
17112W        W32243   7.227  16.302   5.305  0.1932 -0.2034 -0.0546
17113W        W32244  13.849   7.937   0.822  0.0852 -0.0434  0.1028
17114W        W32245  11.580  17.094  10.200  0.3592 -0.1506 -0.2343
17115W        W32246   3.057   9.491   3.072 -0.0563  0.0155  0.1419
17116W        W32247   5.292   5.324  15.236 -0.0579 -0.0359 -0.0047
17117W        W32248   5.218   4.254   1.735 -0.1552  0.0269  0.0664
17118W        W32249   9.209   4.069  11.985  0.2055 -0.1287 -0.2782
17119W        W32250  12.758  17.305  11.630  0.1503 -0.1333  0.2373
17120W        W32251  11.856   1.488  12.573 -0.0422  0.2868 -0.2615
17121W        W32252   5.468   4.385  15.398 -0.1625 -0.0618 -0.4767
17122W        W32253   3.812  11.214   4.094 -0.0324 -0.0903  0.1587
17123W        W32254  17.880  17.330   4.373  0.2713  0.0022 -0.0571
17124W        W32255   0.899   1.749  13.314  0.1581  0.2043  0.0373
17125W        W32256   3.997   9.500   1.915  0.1200 -0.0000  0.2162
17126W        W32257  11.467   3.748  10.210  0.3827 -0.0364  0.0639
17127W        W32258  16.737   9.995   3.052 -0.0490 -0.2434  0.0362
17128W        W32259  13.675   6.425  11.803 -0.0397 -0.0718  0.1463
17129W        W32260   8.328   9.690  13.580  0.5122 -0.0917 -0.2909
17130W        W32261  13.074  14.298   1.748 -0.3104  0.2059 -0.0305
17131W        W32262  16.132   5.147   1.021 -0.2372  0.2423  0.0495
17132W        W32263   5.263   3.367   3.016 -0.1692  0.0579  0.1562
17133W        W32264   9.623   4.094   4.575  0.0692  0.0706 -0.0441
17134W        W32265  18.026   8.617   4.082  0.3137  0.1168 -0.2233
17135W        W32266  12.982  11.792  11.389  0.0058 -0.0941  0.0470
17136W        W32267  16.636  14.307   0.931  0.0549  0.1225  0.0113
17137W        W32268   6.740   2.240   1.066  0.0113  0.1866  0.0960
17138W        W32269   6.479  13.606  11.801  0.0574 -0.1230 -0.1246
17139W        W32270   0.099  11.678   5.600 -0.1293 -0.1549 -0.1643
17140W        W32271   5.724   6.246  12.971  0.0489  0.0784 -0.1953
17141W        W32272   9.695  10.334   5.119 -0.0517  0.0288 -0.2253
17142W        W32273  12.795  11.331   4.291 -0.3185 -0.0304  0.1724
17143W        W32274  14.319   7.572  14.262 -0.0523  0.2513  0.0750
17144W        W32275  10.360  13.867   5.590  0.2171  0.2329  0.0137
17145W        W32276   6.090  14.050   1.437  0.0105 -0.0080 -0.2548
17146W        W32277  11.048   2.489  11.316  0.0460 -0.1143 -0.0190
17147W        W32278   2.291  16.840   2.182 -0.1796  0.1422  0.1751
17148W        W32279  11.489  17.417  12.798  0.2281  0.0531 -0.0133
17149W        W32280   8.047  10.540  10.674 -0.1671 -0.1069  0.1089
17150W        W32281   9.330  15.031   2.487  0.3458  0.1542 -0.0118
17151W        W32282   5.218  17.698  12.577  0.2935  0.1306 -0.3972
17152W        W32283   9.891   1.527   1.216 -0.1516 -0.2155  0.0851
17153W        W32284   6.301  14.666   1.460 -0.1211  0.3901 -0.1759
17154W        W32285  11.025  11.812  15.234 -0.0648 -0.0525  0.1167
17155W        W32286  10.041   3.244   1.844  0.1063 -0.2634  0.1299
17156W        W32287  11.498   8.763   4.538 -0.0191 -0.1912  0.2461
17157W        W32288   0.699  14.787  14.232  0.0106  0.1027 -0.1230
17158W        W32289  16.015   3.574   0.491 -0.1220  0.2321  0.1213
17159W        W32290  13.358  15.322   3.780  0.0221 -0.1784 -0.2399
17160W        W32291   6.851  15.465   4.242 -0.1417 -0.0558  0.0137
17161W        W32292  15.025   7.958  11.989 -0.1601 -0.0684 -0.1994
17162W        W32293  15.141   0.215  12.089 -0.1453 -0.0738 -0.4941
17163W        W32294   1.292   7.114  11.113 -0.2853 -0.3246  0.0299
17164W        W32295   4.816   5.789  15.931 -0.4801  0.1830  0.0217
17165W        W32296   6.927   0.450   1.183  0.1556  0.0553  0.0514
17166W        W32297   4.933   9.766   1.944 -0.0036 -0.2659 -0.0436
17167W        W32298  11.400  16.987   5.047 -0.1307 -0.3268 -0.2341
17168W        W32299   5.156   2.470   1.687  0.3600 -0.2462  0.0475
17169W        W32300  11.813  14.778   3.093  0.0280 -0.1398 -0.1311
17170W        W32301   1.985   1.167   5.368 -0.1473  0.0386 -0.1253
17171W        W32302   8.479  11.569   5.676  0.1774 -0.0458  0.1893
17172W        W32303   4.769   0.857  13.217  0.0604 -0.0216  0.0954
17173W        W32304   9.487   9.631  11.366 -0.1211  0.0070 -0.1809
17174W        W32305   7.853  13.850  12.877  0.1247  0.2735  0.2910
17175W        W32306   3.059  17.099   1.507 -0.1179 -0.0897 -0.1097
17176W        W32307   5.494   1.751  12.348  0.0992 -0.0891  0.0797
17177W        W32308   7.256  14.526  13.433  0.2528 -0.2150 -0.0482
17178W        W32309  15.905  11.619   3.178 -0.0418  0.0409 -0.1724
17179W        W32310   7.661   1.020   4.737 -0.0651 -0.0101  0.0174
17180W        W32311   7.518  15.487  14.050 -0.1057 -0.1686 -0.4118
17181W        W32312   9.494  12.772  11.828  0.0726  0.0285 -0.0596
17182W        W32313  12.587  16.635  12.331 -0.0011  0.0108  0.1183
17183W        W32314  10.356  13.133  11.268 -0.0414 -0.1309 -0.0825
17184W        W32315  15.971  15.422  16.062 -0.1451  0.1161  0.1037
17185W        W32316  14.937   3.400   4.588 -0.1059  0.0457 -0.0303
17186W        W32317  15.023  17.269  13.935  0.2081  0.2726 -0.0647
17187W        W32318   6.955   9.900   2.386  0.2750  0.1473 -0.1275
17188W        W32319   4.091  17.730   4.104 -0.0127 -0.0116  0.0738
17189W        W32320  16.903  10.871  12.377 -0.0754  0.2174 -0.0137
17190W        W32321   8.562   2.267  14.156 -0.0346  0.0483 -0.0657
17191W        W32322   1.615  10.020   2.135  0.2237  0.0610  0.1947
17192W        W32323  11.362   7.392   4.879 -0.0200  0.4128 -0.2376
17193W        W32324   5.748  11.637   4.443  0.0570  0.1468 -0.0478
17194W        W32325  14.582  11.702   1.041 -0.0338 -0.0990 -0.0492
17195W        W32326   1.689   8.470  15.405 -0.0897  0.0626  0.2065
17196W        W32327  10.740   9.367  15.789  0.2186  0.0224  0.0136
17197W        W32328  12.865   0.898  14.005 -0.2614  0.3380  0.1676
17198W        W32329   6.043   8.199   2.312  0.1174 -0.1287 -0.0680
17199W        W32330   8.745  12.085   1.291  0.0761 -0.0873 -0.2859
17200W        W32331   4.698  16.861  11.304  0.2852  0.2681  0.1954
17201W        W32332  10.585  12.912  11.694  0.0752 -0.0896 -0.1394
17202W        W32333   2.163  16.527   4.085 -0.1625 -0.2719 -0.0534
17203W        W32334   8.082  17.023  13.089 -0.0125  0.0484  0.1913
17204W        W32335  12.111  12.314  11.423 -0.0676  0.1585 -0.0607
17205W        W32336  16.575  10.581  10.970 -0.1473  0.2817 -0.1825
17206W        W32337   1.000  12.342   2.999  0.1594 -0.2675  0.0514
17207W        W32338   7.664   7.813  12.253  0.0181  0.4012 -0.3946
17208W        W32339   1.189   6.454  16.047 -0.0565 -0.0753 -0.2177
17209W        W32340  17.538   1.663   0.545 -0.1224 -0.0470  0.1634
17210W        W32341   8.988   7.947   2.348 -0.1064 -0.1157  0.3426
17211W        W32342  10.070  14.377  14.953  0.1591 -0.1042 -0.0494
17212W        W32343  14.832   7.487   2.797  0.0252  0.2267  0.2171
17213W        W32344  17.020  17.987   1.064 -0.0919  0.0091  0.0362
17214W        W32345   2.982  16.348  12.886  0.0137 -0.2873 -0.0284
17215W        W32346   9.807   7.408  12.128 -0.0877  0.1248  0.0475
17216W        W32347  11.684  16.885  13.709 -0.0560  0.1189 -0.1211
17217W        W32348  16.069  12.011   1.272  0.0332 -0.0587 -0.0054
17218W        W32349   6.768   7.683   1.118  0.1632 -0.2138 -0.2413
17219W        W32350   1.074   3.536   0.570 -0.0815  0.0951  0.0369
17220W        W32351   0.158   2.128   4.844 -0.1096  0.0797 -0.0222
17221W        W32352   0.507  16.609  16.158 -0.1507  0.0806  0.1318
17222W        W32353   9.922   8.995  10.687  0.1852  0.1426 -0.1514
17223W        W32354   9.104   4.156   5.285 -0.0481 -0.0322  0.1669
17224W        W32355  15.013   5.529  15.943  0.0539  0.1349  0.0774
17225W        W32356  17.905  10.907   0.907  0.1544 -0.1004 -0.0789
17226W        W32357  12.078  14.648  12.564  0.0623  0.2799  0.5659
17227W        W32358  14.150   8.338   2.120  0.2225  0.0295 -0.0052
17228W        W32359   7.147  11.266  10.269 -0.1359 -0.1199 -0.0686
17229W        W32360   7.144   2.141   1.850  0.1626 -0.0206 -0.0345
17230W        W32361  10.525  12.549   3.406 -0.0276  0.0333  0.0138
17231W        W32362   3.174  16.457   4.172  0.2283 -0.1514 -0.3206
17232W        W32363   3.428  12.448  13.717  0.1742  0.3038  0.2305
17233W        W32364   7.488  14.705   4.073 -0.1180 -0.1736 -0.1372
17234W        W32365   3.601   2.182   2.268 -0.2407 -0.2025  0.2045
17235W        W32366  12.027  17.744  12.311 -0.0581 -0.1539  0.0059
17236W        W32367  11.456  14.983   4.911 -0.1022  0.1356 -0.1388
17237W        W32368  16.477   0.878   4.649  0.0847  0.2030  0.1230
17238W        W32369  16.427   2.838   3.577  0.0371 -0.2657 -0.1610
17239W        W32370   7.452   7.136  16.206  0.0917 -0.0812  0.2023
17240W        W32371   5.821   2.399   0.037 -0.2590 -0.0379 -0.2739
17241W        W32372   7.618  14.142  15.351  0.2050  0.0475 -0.0858
17242W        W32373   5.234  16.788  14.029 -0.0428  0.0331 -0.1312
17243W        W32374   2.008   6.594  13.004 -0.0537  0.5403  0.0978
17244W        W32375   5.299   6.295  11.391 -0.0778 -0.3821  0.2904
17245W        W32376  15.378  16.109  14.768  0.0656 -0.3843 -0.1003
17246W        W32377  15.173   3.856   4.008 -0.3729 -0.0309 -0.1132
17247W        W32378  12.700  15.596  15.913  0.3054  0.1288 -0.1345
17248W        W32379   2.657  15.586   1.770 -0.1227  0.1658  0.0575
17249W        W32380  12.228   2.498   2.248  0.2310 -0.0284  0.0476
17250W        W32381   5.570   5.463   0.340 -0.2845  0.0209  0.2527
17251W        W32382  10.848   6.726  11.116 -0.1457  0.0228 -0.1869
17252W        W32383   8.288  13.149  14.370  0.0365 -0.3327  0.1599
17253W        W32384   1.772  12.028  12.840  0.2674 -0.0884  0.1154
17254W        W32385  17.047   1.779   4.162  0.2084  0.1239 -0.1601
17255W        W32386   6.933   9.781  15.097 -0.0627  0.0064  0.2750
17256W        W32387   7.895   6.447  12.141 -0.1569  0.1911 -0.3236
17257W        W32388  16.586   0.114   1.164 -0.1362 -0.0303  0.1707
17258W        W32389   0.044   9.426   3.143 -0.3081  0.1156 -0.1122
17259W        W32390   7.172  17.500   3.154  0.0976 -0.0508 -0.1459
17260W        W32391   8.241  12.132   1.142  0.0094 -0.0186  0.1161
17261W        W32392   0.945   0.131  13.089  0.0454  0.1472 -0.2374
17262W        W32393  13.757  17.006  14.128 -0.2665 -0.0373 -0.1097
17263W        W32394   1.601   6.531  15.646  0.0978  0.2530 -0.1217
17264W        W32395  12.992   6.396  11.220 -0.1335  0.3679 -0.1512
17265W        W32396   1.475   0.807  15.072  0.0562  0.0021 -0.1754
17266W        W32397   7.661   4.218   5.742 -0.1524 -0.1596  0.0062
17267W        W32398  16.870   1.418  13.441  0.0574  0.0787 -0.0556
17268W        W32399  17.423   7.349  10.339 -0.0154 -0.2976 -0.0390
17269W        W32400  10.952  12.328  15.457 -0.0216  0.0899 -0.1945
17270W        W32401  17.228   0.243   0.294 -0.1410  0.2646 -0.2879
17271W        W32402   1.637  13.864   1.335 -0.2427 -0.0330  0.0624
17272W        W32403   9.778  17.069  13.603 -0.0554 -0.1163 -0.2217
17273W        W32404   9.431  11.179  11.814 -0.0207  0.0333 -0.1915
17274W        W32405   3.868  15.131   2.932 -0.0479 -0.1040  0.0237
17275W        W32406   3.307   1.924  15.768 -0.3892  0.0295  0.2253
17276W        W32407   9.234  13.300   1.156  0.1418  0.2584  0.1626
17277W        W32408  10.070   2.480   5.918  0.3244  0.0585 -0.0112
17278W        W32409  15.181  11.562  13.462 -0.2353  0.0244  0.0539
17279W        W32410  15.074   3.843  13.379  0.0130 -0.0515 -0.1147
17280W        W32411   8.132  15.883  15.167 -0.0979  0.2639  0.0753
17281W        W32412  11.091  10.414   5.546 -0.2267  0.3095 -0.1832
17282W        W32413   5.945   3.670  15.646 -0.3011  0.0386 -0.2761
17283W        W32414  17.156  11.868   4.336 -0.1664  0.0875  0.2168
17284W        W32415   6.437  15.887   4.302 -0.1572 -0.1644 -0.0948
17285W        W32416   8.174  13.790  15.517 -0.3479  0.0606 -0.1839
17286W        W32417   0.126   5.148  13.662  0.1898  0.1233  0.2916
17287W        W32418   6.027   8.076  13.337 -0.3743  0.2077 -0.1211
17288W        W32419  12.655  15.841   1.432  0.2261 -0.2306 -0.0939
17289W        W32420   8.183   1.262  10.440 -0.1079 -0.0665  0.1169
17290W        W32421  17.437   6.796  14.872 -0.0825 -0.0892  0.0241
17291W        W32422   6.175   7.543   3.399 -0.2235 -0.0815  0.2521
17292W        W32423   7.427  14.192   2.008  0.0378  0.0087  0.0735
17293W        W32424   0.456   1.739  13.077 -0.1577 -0.1172 -0.0197
17294W        W32425   1.029   9.035   5.021 -0.0477 -0.0299 -0.1420
17295W        W32426   6.057   8.335  11.682 -0.2589  0.1928 -0.3182
17296W        W32427  12.641  15.707  13.802  0.4093 -0.1397  0.1856
17297W        W32428  11.323   0.338   3.076  0.0672 -0.0481  0.0979
17298W        W32429  14.361   1.597   0.745  0.0803  0.0809 -0.3968
17299W        W32430   3.431   6.698   4.868  0.2333 -0.1645 -0.1008
17300W        W32431   1.835   9.951  13.806 -0.2254 -0.1080  0.1326
17301W        W32432   3.979  11.837  15.930 -0.1746  0.3966 -0.4252
17302W        W32433   8.572  16.779  11.547  0.2328 -0.1329  0.1815
17303W        W32434   0.446   9.604  12.757  0.1484 -0.1030  0.4301
17304W        W32435  13.845   8.152  16.012  0.0596  0.2255  0.2124
17305W        W32436  15.530  10.461   4.582  0.0346 -0.0372 -0.1754
17306W        W32437  10.029  11.061   4.366 -0.2536  0.2912 -0.2070
17307W        W32438   2.835  10.759  12.772 -0.1655 -0.1451 -0.0378
17308W        W32439  13.169   5.591   0.092 -0.1822 -0.0293 -0.0363
17309W        W32440  15.557   8.027   2.544 -0.1337 -0.4498 -0.2084
17310W        W32441  10.276   0.452  14.343  0.0020  0.0299  0.2835
17311W        W32442   5.602  13.987  15.246  0.2253 -0.0428 -0.1178
17312W        W32443   9.365   5.305   3.171  0.1409  0.0768 -0.0902
17313W        W32444  10.726   3.185   2.955  0.1186 -0.1333 -0.0606
17314W        W32445   4.658  10.912  10.311  0.1079  0.1055 -0.1294
17315W        W32446  11.105   7.575   3.878 -0.1891 -0.0253 -0.0143
17316W        W32447  16.649   5.966  15.049  0.0072  0.0555  0.1771
17317W        W32448   8.577  11.545   3.270  0.0150  0.3228 -0.1734
17318W        W32449  14.330  17.614  15.571  0.0479 -0.4477 -0.0681
17319W        W32450  17.744   4.940   0.271  0.1256 -0.1490 -0.2482
17320W        W32451  13.537   8.125  12.198  0.1307 -0.0327  0.1428
17321W        W32452  17.864  16.262   2.926 -0.1263 -0.0416 -0.0682
17322W        W32453   7.846   4.744   0.743  0.3844 -0.1648  0.0032
17323W        W32454  17.885  12.641  14.874 -0.0079  0.1618 -0.0529
17324W        W32455  15.791   4.534  16.017 -0.0834  0.0761 -0.0485
17325W        W32456  16.611   6.170   2.650  0.1863  0.0421  0.0883
17326W        W32457   2.184   9.629   3.534 -0.0255  0.1244 -0.1798
17327W        W32458   7.220   0.812  12.083  0.2118 -0.2794 -0.0775
17328W        W32459   7.830  15.046  14.292  0.0353  0.3822  0.1224
17329W        W32460   7.267   7.554   2.981 -0.3433 -0.1303  0.0596
17330W        W32461   3.271   7.548   5.635  0.2319  0.1665  0.0057
17331W        W32462  13.519  15.776  14.359 -0.0218 -0.0258  0.1118
17332W        W32463  13.890   2.065  11.596 -0.1213 -0.3100 -0.0726
17333W        W32464  13.775   0.680  15.040  0.2100  0.1548  0.3307
17334W        W32465  13.870   3.306  12.586 -0.1382 -0.1770  0.3020
17335W        W32466  16.567  11.532  14.912  0.2158  0.0240  0.2960
17336W        W32467   1.740   7.395  13.836  0.0326  0.2102  0.1541
17337W        W32468  13.631   1.374   1.051  0.1014  0.0180  0.0238
17338W        W32469  10.299  16.970  13.701 -0.0571 -0.0213 -0.2020
17339W        W32470   8.050   2.541   3.882  0.1985  0.0241 -0.1580
17340W        W32471  15.628  13.653  12.264  0.2511 -0.3143  0.0071
17341W        W32472   2.016  17.590  13.421  0.0502 -0.2380 -0.1874
17342W        W32473  11.915  13.225  14.636 -0.0115  0.0939 -0.1149
17343W        W32474   6.261  16.134   3.926  0.1589 -0.2514 -0.1258
17344W        W32475  10.331   0.461   6.670  0.1437 -0.0212 -0.0920
17345W        W32476  17.208  13.867  15.216 -0.1069 -0.0808 -0.0985
17346W        W32477  11.960  11.649   4.664 -0.1428  0.1136  0.0068
17347W        W32478  16.928  14.919  13.645  0.1920 -0.2312 -0.1750
17348W        W32479  17.808  15.003   1.726 -0.0872 -0.3603  0.3552
17349W        W32480   1.983   3.955   3.789 -0.2714  0.2866  0.0883
17350W        W32481  14.518  10.881   4.446 -0.2418  0.0275 -0.3333
17351W        W32482  15.515   8.858  12.768 -0.0442 -0.0062 -0.1809
17352W        W32483   2.922  10.253   5.374 -0.2968 -0.2691 -0.0774
17353W        W32484  11.727  14.156  12.608  0.0307 -0.2239  0.0990
17354W        W32485   8.764   0.966   3.280 -0.1688  0.3081 -0.0726
17355W        W32486  18.100   8.722  12.753 -0.1044 -0.0930 -0.0858
17356W        W32487  12.398   3.326  11.089  0.0276  0.2514 -0.4973
17357W        W32488  13.234   3.424  13.488 -0.0192  0.4433  0.3602
17358W        W32489  11.370   6.802   5.489  0.0691 -0.0024 -0.2433
17359W        W32490  14.456   2.466  10.775 -0.0963 -0.0971 -0.1675
17360W        W32491  10.948  14.315  15.409  0.0469  0.3088 -0.1569
17361W        W32492  16.625  12.901  15.506  0.5248  0.0139  0.0553
17362W        W32493   6.750  10.688  13.376  0.2576  0.1624 -0.0879
17363W        W32494   0.883  10.012  14.549  0.2217  0.2344  0.0515
17364W        W32495   7.566   6.726  11.809  0.0370  0.0469  0.1161
17365W        W32496  14.957   6.517   3.383  0.1039  0.0569 -0.1028
17366W        W32497  12.236  15.682  15.818 -0.0940 -0.1182  0.2172
17367W        W32498   8.108  11.982  13.081  0.1795  0.1365  0.0052
17368W        W32499   1.417  16.976  14.977  0.2923  0.1108  0.1618
17369W        W32500   4.486  10.381   3.584  0.1299  0.1437  0.1421
17370W        W32501   3.608   7.135   2.223  0.0847 -0.1309 -0.2374
17371W        W32502  11.150  14.793  10.831  0.0274  0.0395 -0.1944
17372W        W32503  17.641  11.780  14.604 -0.1166  0.0864  0.1834
17373W        W32504  17.695  13.777  16.208 -0.3052 -0.1609 -0.0471
17374W        W32505   2.845  16.487  10.285 -0.1741 -0.0249 -0.4081
17375W        W32506   6.178   8.295   2.893  0.2101  0.1031 -0.0737
17376W        W32507   2.209   7.356  13.956  0.2720  0.0575  0.3322
17377W        W32508   0.327  11.689  12.226 -0.0670  0.1496 -0.1528
17378W        W32509   3.474  15.454  13.735 -0.0508  0.3160  0.5571
17379W        W32510  15.955   9.924  12.537 -0.2438 -0.0291 -0.1860
17380W        W32511   7.332   5.889  15.216 -0.1553  0.0130 -0.0183
17381W        W32512   2.225   2.914  15.090  0.3697 -0.0143  0.1705
17382W        W32513   7.808   4.078   4.071  0.0146 -0.0532  0.0237
17383W        W32514   6.030  15.838   3.614  0.1169 -0.2436 -0.3073
17384W        W32515   8.700  15.092  13.852  0.0035 -0.1162  0.0781
17385W        W32516   4.156  17.497  14.918  0.0350  0.1696  0.1165
17386W        W32517  13.012   9.008   0.799 -0.1560 -0.0051 -0.0181
17387W        W32518  13.398  14.399   3.144  0.1054 -0.0735 -0.2643
17388W        W32519  17.479   2.969  13.892 -0.1116 -0.1369  0.1252
17389W        W32520  15.776  15.785   0.638 -0.2739 -0.0031 -0.3197
17390W        W32521   1.047  15.381  13.356  0.0481  0.1469  0.3202
17391W        W32522  13.315  13.921  15.645  0.0167 -0.1903 -0.0827
17392W        W32523   1.773  14.621   1.485 -0.1947  0.1315 -0.1589
17393W        W32524  15.471  12.983   5.674  0.3529 -0.0469  0.3127
17394W        W32525  16.662  10.932   5.324  0.2346  0.1617  0.0707
17395W        W32526  12.751  13.432  12.546  0.0269  0.1125  0.1180
17396W        W32527   9.154   7.882   3.332 -0.2822  0.2097  0.2647
17397W        W32528   2.577   2.430   2.044 -0.0024  0.1771  0.1206
17398W        W32529   4.700   4.814  14.449 -0.0129 -0.1727  0.0583
17399W        W32530  13.236  11.992  12.691  0.1882 -0.0232 -0.3830
17400W        W32531   8.529   5.571  11.175 -0.3251 -0.2447 -0.0132
17401W        W32532   8.922   5.139  15.213 -0.2460 -0.0504  0.0168
17402W        W32533   7.525   5.208   3.537  0.0749  0.2337 -0.1656
17403W        W32534  13.408  17.314  11.674 -0.0357  0.0777 -0.1240
17404W        W32535  16.046  17.260  15.913 -0.2445 -0.0934  0.3254
17405W        W32536  14.455   9.606   4.555  0.0164 -0.0609  0.0961
17406W        W32537  17.440  15.189  13.192  0.1415  0.0483  0.3270
17407W        W32538   2.008  16.093  13.078  0.1314  0.0760 -0.2083
17408W        W32539   7.009  16.741  15.354 -0.1522 -0.1292 -0.2522
17409W        W32540   4.920   6.846  12.778  0.0222  0.2078 -0.0112
17410W        W32541   7.289  10.277  11.975 -0.0042  0.1938  0.1514
17411W        W32542   0.521  13.452   0.582  0.1383 -0.0000  0.0641
17412W        W32543   4.322  11.721   4.853  0.0894  0.1984 -0.0047
17413W        W32544  14.592   5.391  14.983 -0.3141 -0.0018 -0.2412
17414W        W32545   6.299  14.245  15.436  0.1722 -0.0487  0.1387
17415W        W32546   2.325  14.125  13.832  0.1343 -0.0177 -0.3314
17416W        W32547   4.767  13.026   3.469 -0.0408 -0.1257 -0.2354
17417W        W32548  12.012   5.837  15.464  0.0669 -0.0617  0.0794
17418W        W32549  12.161  16.131   2.372  0.0091  0.0475  0.1059
17419W        W32550  15.398   6.887   3.881 -0.0750 -0.2291  0.0413
17420W        W32551   4.606   1.275   3.656 -0.1864  0.0118  0.0205
17421W        W32552   8.307  10.507  14.652  0.0720  0.2080 -0.0605
17422W        W32553   1.839   2.433  13.835  0.0422  0.0347 -0.2606
17423W        W32554  17.648   9.641  14.201  0.1016 -0.0013 -0.2887
17424W        W32555  12.012   1.615   1.049  0.1602 -0.0895  0.1401
17425W        W32556  11.978  17.132   4.451 -0.0001 -0.0432 -0.1455
17426W        W32557  15.269   2.245   2.372 -0.0891  0.0632 -0.0302
17427W        W32558  10.959  10.656   4.267 -0.0544 -0.0965 -0.1901
17428W        W32559  17.024  17.183   2.541  0.0047 -0.1913  0.4833
17429W        W32560  10.280   0.079   6.127 -0.1206  0.0144 -0.0710
17430W        W32561   6.530   7.155   2.826  0.1731 -0.0673  0.0472
17431W        W32562   5.341  15.077  12.769  0.0042 -0.1104 -0.1511
17432W        W32563  11.263  16.527   4.765 -0.1445  0.0263 -0.3037
17433W        W32564   1.595  14.709  12.741 -0.0876 -0.1413 -0.0472
17434W        W32565  10.942  10.879   3.543  0.0298 -0.1428 -0.0666
17435W        W32566  15.495   1.574  12.961 -0.2256  0.0188  0.0405
17436W        W32567   5.491   7.622   1.173  0.0938  0.0446 -0.1204
17437W        W32568  17.144  11.504   0.244  0.0082  0.0390 -0.0834
17438W        W32569  13.230  17.322   5.317  0.0384  0.0415 -0.2939
17439W        W32570  11.088   0.769   3.216  0.0176  0.1146  0.0542
17440W        W32571   1.607  11.319  16.105  0.0919 -0.2438 -0.3059
17441W        W32572  10.811   2.457  10.649 -0.0021  0.0768  0.0920
17442W        W32573   9.177   1.360  11.106 -0.2116 -0.0546  0.0989
17443W        W32574   6.217   1.964  11.209 -0.0736  0.0208 -0.2118
17444W        W32575  14.519  11.911   2.872 -0.3967  0.1626 -0.1747
17445W        W32576   9.712   2.457   0.758  0.0160 -0.3635  0.3833
17446W        W32577  13.042   5.013   2.883 -0.0302  0.0002 -0.0735
17447W        W32578  14.886   0.730   2.756 -0.0773 -0.1096  0.1631
17448W        W32579  13.741   7.035   5.949 -0.0548  0.1064 -0.0162
17449W        W32580  12.493   8.320  15.259  0.0575 -0.2722  0.0819
17450W        W32581  14.728   2.366   3.329  0.0329  0.3251  0.0837
17451W        W32582   4.111   2.580   5.501  0.2227 -0.0163  0.0440
17452W        W32583   1.731   0.093  12.566 -0.3477 -0.0471 -0.1154
17453W        W32584  16.681   6.296   3.177  0.0954  0.1395 -0.0175
17454W        W32585  11.020  16.877   0.553 -0.2069 -0.0353  0.0345
17455W        W32586   3.785  11.476   1.630 -0.0916  0.2944  0.2585
17456W        W32587  13.440   5.091  12.238 -0.0768  0.0649  0.3092
17457W        W32588   1.254   7.138  14.313 -0.0749  0.1244  0.0376
17458W        W32589   6.376   7.170   3.978  0.0479  0.0776  0.0523
17459W        W32590  17.059  10.520  12.035 -0.1810  0.1063 -0.0766
17460W        W32591   2.553  13.941   1.252  0.1756 -0.0137 -0.4381
17461W        W32592  10.512  12.084  15.258  0.0083  0.0239  0.1655
17462W        W32593   3.351  14.308  16.039  0.1189 -0.1520 -0.0238
17463W        W32594  13.135  14.940   4.060 -0.2781 -0.1466  0.0052
17464W        W32595   7.637   4.724   5.458  0.2196  0.0806  0.0156
17465W        W32596   2.718  15.623  11.233 -0.3697 -0.3081  0.2663
17466W        W32597  17.007  16.159  14.133  0.0313  0.1282 -0.0996
17467W        W32598   4.596   7.123  15.887 -0.3328 -0.0275 -0.0467
17468W        W32599  12.422  11.123   1.015  0.1482  0.2572 -0.0016
17469W        W32600   5.872   2.634  14.753  0.2184  0.0538  0.1946
17470W        W32601  15.446   2.237   2.879  0.0137 -0.1100  0.0563
17471W        W32602   0.714  11.467  11.980  0.1246 -0.1041 -0.1828
17472W        W32603  14.835  10.382  12.908 -0.0989  0.5074  0.1649
17473W        W32604   5.268   6.506   5.121  0.1602  0.0528  0.0134
17474W        W32605  14.004   3.188  14.789 -0.1795 -0.2803 -0.1860
17475W        W32606  18.068  14.686   0.338  0.3776 -0.5615  0.1515
17476W        W32607   6.559   2.136  13.086  0.0464  0.0077 -0.2590
17477W        W32608   7.929  16.386  15.186  0.2081 -0.4310 -0.0359
17478W        W32609  11.395  12.573  11.791  0.1651 -0.1896 -0.0074
17479W        W32610  13.667  16.429  15.233  0.3055  0.1901  0.0771
17480W        W32611  15.990   3.821   2.135 -0.3619 -0.2260  0.0697
17481W        W32612  14.727  11.366  13.615  0.1910 -0.0932 -0.2147
17482W        W32613  11.494   9.842  12.077  0.1486  0.1120  0.0581
17483W        W32614   1.669  12.477   5.565 -0.2731 -0.2269 -0.0605
17484W        W32615  15.103   1.512   1.615 -0.1374  0.0610 -0.0423
17485W        W32616  10.522  11.136   1.135 -0.2139 -0.2249  0.2353
17486W        W32617   6.763   8.943  11.312  0.1051 -0.1562 -0.0795
17487W        W32618   3.874  12.365   4.829  0.1586 -0.1566  0.1465
17488W        W32619  15.573   9.151   5.005  0.1530  0.1519  0.0687
17489W        W32620  13.128  13.604   0.970 -0.0238 -0.0828  0.2789
17490W        W32621  16.758  17.331  13.455 -0.0978  0.0407 -0.0540
17491W        W32622   2.420  14.916  12.189  0.0146  0.0787  0.0297
17492W        W32623   8.880   7.029  13.512 -0.2234  0.1448 -0.1641
17493W        W32624   6.074   5.948   1.187  0.0308  0.0938  0.0433
17494W        W32625  12.337  12.964   1.375  0.0239  0.2300  0.1106
17495W        W32626   7.892  13.655  10.611 -0.3820  0.0820 -0.4034
17496W        W32627  15.599   8.169  14.876  0.1181  0.2718  0.0891
17497W        W32628   7.876   0.128  14.162 -0.0484 -0.0816 -0.1603
17498W        W32629  16.802  10.036   2.568 -0.1172 -0.0040 -0.0896
17499W        W32630   9.955  16.618   2.245 -0.1794  0.0255 -0.1271
17500W        W32631  11.420  13.617   1.261  0.1135  0.2273 -0.2781
17501W        W32632   1.520  15.878   0.202  0.0169 -0.1482  0.1026
17502W        W32633  12.473   8.094  12.679  0.1945  0.1999 -0.1130
17503W        W32634  14.130   4.050  15.002 -0.0357  0.1892  0.0031
17504W        W32635  12.238  11.549  13.524  0.3279  0.1903 -0.3671
17505W        W32636   6.018  12.046   4.613 -0.0829  0.0420  0.3673
17506W        W32637  15.196   1.866   0.144 -0.1751  0.0209  0.1248
17507W        W32638   6.541  17.135  13.997 -0.0102 -0.1490 -0.3239
17508W        W32639   5.824  16.544  13.345  0.2053 -0.1238  0.0234
17509W        W32640   5.235   2.167  11.635 -0.2643  0.0512 -0.0488
17510W        W32641   2.874  15.270  11.523 -0.1044 -0.4427 -0.1611
17511W        W32642   8.049   6.559   5.402 -0.1267 -0.3734 -0.1151
17512W        W32643   7.952   6.647   4.512  0.3167  0.2431  0.0976
17513W        W32644  10.033   5.333  10.838  0.2344 -0.0825 -0.0466
17514W        W32645  13.707   7.548   3.461 -0.1287 -0.1701 -0.0438
17515W        W32646  15.893   0.856   4.154  0.0858  0.1191  0.0152
17516W        W32647   1.748   6.689   0.041  0.0245  0.1078  0.1393
17517W        W32648  13.951   7.961   1.689  0.3601  0.0111 -0.0571
17518W        W32649  10.147   4.085   1.469  0.3579 -0.0513  0.1193
17519W        W32650  16.597   3.034  14.647  0.1994  0.0480 -0.0331
17520W        W32651   7.208   1.702  15.912 -0.0305 -0.1681  0.0639
17521W        W32652   0.447  11.748   2.668 -0.0466  0.0383  0.1193
17522W        W32653  13.208   0.178   4.849 -0.0099 -0.0968 -0.2092
17523W        W32654  11.077   8.022  11.056 -0.0469  0.0052 -0.1144
17524W        W32655   2.285   0.913  14.659 -0.1160 -0.0879 -0.4239
17525W        W32656  18.010   0.545   1.398 -0.2799  0.5241 -0.0077
17526W        W32657   7.362   4.571  12.591 -0.2942  0.1871 -0.3094
17527W        W32658  14.191   6.216   3.847 -0.0840 -0.1157  0.0635
17528W        W32659   2.475   3.580  15.658  0.1106  0.3765 -0.1159
17529W        W32660   1.910   5.295  15.373 -0.1595  0.2822  0.1434
17530W        W32661   0.890  17.754  11.032 -0.0551  0.4421  0.2204
17531W        W32662   2.736   2.259   2.544 -0.1008 -0.1641  0.3412
17532W        W32663   2.103   0.272  12.881  0.0673 -0.2715  0.1023
17533W        W32664   7.587   2.449   0.942 -0.0557 -0.0096  0.0637
17534W        W32665  16.674   8.819  14.738  0.1431  0.1255 -0.0975
17535W        W32666  11.320  14.384  10.519  0.3495  0.3048  0.3723
17536W        W32667  17.359   6.185   0.948 -0.3093  0.1036 -0.1966
17537W        W32668   2.008  11.551   0.140 -0.0894 -0.2082  0.2485
17538W        W32669   2.621   6.628   4.788 -0.0417  0.5325  0.2483
17539W        W32670  11.725   1.047  15.973  0.1568  0.0053 -0.1061
17540W        W32671   0.605  17.880  14.703  0.1886 -0.1909 -0.0414
17541W        W32672   7.114  17.154   2.777  0.2401 -0.0129  0.2064
17542W        W32673  12.812  16.193  13.554  0.0748 -0.1510 -0.1205
17543W        W32674   9.140  14.823  12.092  0.0548  0.3652  0.1726
17544W        W32675   2.839   3.196   4.468 -0.0344  0.0015  0.0399
17545W        W32676   3.285  10.301  11.816 -0.3610 -0.0910 -0.0305
17546W        W32677  14.327  14.392   2.801  0.1803  0.1135  0.2169
17547W        W32678   9.936  13.589  16.173 -0.0629 -0.0086  0.2650
17548W        W32679  16.292   6.528   4.936 -0.1351  0.1266 -0.1558
17549W        W32680   2.397   1.928  16.044 -0.1202  0.1242 -0.0222
17550W        W32681  11.496  15.381   0.953  0.0770 -0.1444 -0.2760
17551W        W32682  10.540   6.195  12.742  0.1142 -0.0130 -0.1380
17552W        W32683  11.359   7.560   5.980 -0.0129  0.1746 -0.0861
17553W        W32684   4.203   7.711  13.478  0.0408  0.0290 -0.2131
17554W        W32685  16.520   1.996   0.562 -0.4785 -0.3615 -0.1347
17555W        W32686  12.000   5.553  14.176 -0.0914 -0.0023  0.0163
17556W        W32687   0.680  10.147  12.783 -0.0146 -0.3080  0.1760
17557W        W32688   0.043  14.015  11.826  0.3771 -0.3900 -0.2309
17558W        W32689  12.922   2.337  12.792  0.1152 -0.0277  0.1406
17559W        W32690  13.177  16.646  13.472  0.1464  0.0471 -0.3855
17560W        W32691  16.160   3.830  15.636 -0.2950 -0.0931 -0.2887
17561W        W32692  16.679   8.663  15.425  0.1319 -0.2055  0.0040
17562W        W32693  10.952   8.262  13.263  0.0468  0.1392 -0.1182
17563W        W32694  16.381  13.182   3.417 -0.0487  0.2488 -0.1286
17564W        W32695   6.753   1.275  12.182  0.0486 -0.2491 -0.0229
17565W        W32696   9.234   7.297   4.211 -0.2409  0.1863 -0.0819
17566W        W32697   0.252   7.699  14.534 -0.0419  0.1728  0.0971
17567W        W32698   6.233   9.531   2.412  0.0903  0.0977 -0.2893
17568W        W32699  11.462   5.983   1.329 -0.0231  0.0981  0.1513
17569W        W32700  16.201   8.455   6.022  0.0190  0.2609 -0.0825
17570W        W32701  17.502  12.370   1.427  0.0679  0.0223  0.0220
17571W        W32702   6.521   5.194   3.640 -0.0220  0.2036  0.0677
17572W        W32703  18.066   6.717   4.724  0.1116 -0.3303  0.2894
17573W        W32704  15.623  15.595  11.133 -0.0377  0.2504  0.1695
17574W        W32705   3.358  13.991  11.661 -0.1361  0.0346  0.0809
17575W        W32706   6.356   8.931   0.605  0.1447 -0.0709  0.1025
17576W        W32707   7.524   6.817   4.638 -0.1103  0.0685  0.1434
17577W        W32708  11.207   7.173   2.632  0.2830  0.1755  0.0696
17578W        W32709   6.854  17.052  15.740  0.5371  0.0449 -0.1803
17579W        W32710  17.437   6.342   3.391 -0.1964 -0.0863 -0.2180
17580W        W32711   1.058   6.987   1.256  0.3660 -0.3505  0.2399
17581W        W32712   8.705   3.222  12.995  0.1081 -0.2615 -0.2012
17582W        W32713  16.783   8.703   6.405 -0.0843 -0.0079  0.1405
17583W        W32714   6.938  11.110  15.108 -0.1976 -0.2026 -0.1231
17584W        W32715  11.235  15.733  13.173  0.0423  0.1176 -0.0374
17585W        W32716  10.771   4.336  13.838 -0.1908 -0.1231 -0.2034
17586W        W32717  15.178   9.179  13.637  0.2723 -0.1322  0.0879
17587W        W32718   6.514   5.371   4.090 -0.1707  0.3235  0.0814
17588W        W32719  10.695  13.447   0.478 -0.0335 -0.2606 -0.1626
17589W        W32720  13.986  12.619   3.122  0.0623  0.3431 -0.1652
17590W        W32721  12.024  12.860   1.002 -0.1079 -0.2012 -0.3149
17591W        W32722   6.888  16.630  11.846  0.1947 -0.0039 -0.3227
17592W        W32723  13.063  11.884   0.093 -0.1056 -0.1487 -0.3455
17593W        W32724  10.621   4.143   3.858  0.0200 -0.3873 -0.2896
17594W        W32725  17.762   4.110   3.041  0.0710  0.1069 -0.1162
17595W        W32726  16.872  13.533   1.572 -0.0134  0.0107 -0.0775
17596W        W32727  10.643   5.342  15.991  0.0711 -0.1650  0.1243
17597W        W32728  15.291  12.505   6.255  0.1109 -0.3953 -0.0180
17598W        W32729   1.429  12.457  10.912  0.2705 -0.0888  0.1728
17599W        W32730  13.012   0.112  15.242 -0.0599 -0.0329  0.1737
17600W        W32731  10.970   4.267  10.319  0.0492 -0.1196 -0.2428
17601W        W32732   6.914  15.167  14.081  0.1771 -0.0635 -0.0219
17602W        W32733  12.856   5.042   1.286 -0.3915  0.0820 -0.1356
17603W        W32734   4.803  16.390   1.852 -0.2825 -0.2955  0.0010
17604W        W32735   5.536  10.186  10.629 -0.0376 -0.0261 -0.3217
17605W        W32736  16.530   7.010   4.906  0.0746  0.0944 -0.2293
17606W        W32737   3.096   4.000  14.838 -0.3291  0.0537  0.0441
17607W        W32738  16.593  14.776  13.047 -0.2239 -0.1123 -0.1081
17608W        W32739   5.056  12.530  13.119 -0.1155 -0.0719  0.0430
17609W        W32740   9.386  11.860  16.032 -0.1470  0.2789 -0.0463
17610W        W32741  11.870   8.253   3.488  0.2038 -0.0938  0.2280
17611W        W32742   9.906   0.689  13.992  0.0898  0.1605 -0.5505
17612W        W32743   4.838   6.414   2.507 -0.0460  0.0456 -0.0268
17613W        W32744   5.876   2.656  11.626  0.0701  0.2119 -0.0074
17614W        W32745   8.780  10.528   3.440 -0.1567 -0.1289 -0.0962
17615W        W32746   9.828   2.854   5.643  0.1150 -0.0831  0.1994
17616W        W32747  17.648   9.890  12.548  0.3056  0.2427  0.1214
17617W        W32748  12.281   6.857  11.353  0.2328  0.5216 -0.1707
17618W        W32749  12.548   2.754   1.880 -0.3935 -0.1402  0.0511
17619W        W32750  13.506   6.486   1.856 -0.0988  0.0226 -0.2742
17620W        W32751   3.224   6.559  14.884 -0.0194 -0.1591 -0.3311
17621W        W32752   6.810  12.599   2.823  0.4310  0.3665 -0.2689
17622W        W32753   9.169   3.182   4.347 -0.0158  0.0215 -0.0775
17623W        W32754   0.196  16.124   4.038  0.0699 -0.0384 -0.0539
17624W        W32755  12.283   2.104  14.326  0.0815  0.1952 -0.0528
17625W        W32756  17.128  14.421   1.839 -0.2954  0.0402 -0.0298
17626W        W32757   2.612  12.261   1.918  0.0780  0.0752 -0.0112
17627W        W32758   2.880  16.961   1.978  0.1070  0.2117  0.0243
17628W        W32759  12.090  12.738  11.704 -0.0024 -0.3112  0.0240
17629W        W32760  13.775   8.755   0.549  0.0459  0.3330  0.0574
17630W        W32761   8.133  10.944  14.519  0.0079  0.1597 -0.0436
17631W        W32762  13.558  12.387   0.669 -0.2719  0.2952 -0.0024
17632W        W32763   4.724  15.691  15.226  0.0325 -0.1060 -0.3143
17633W        W32764   0.564   2.305   0.596 -0.3238 -0.0626  0.0101
17634W        W32765   7.731   7.301  13.047 -0.0526  0.0781 -0.1300
17635W        W32766   6.590   9.066  11.858  0.2832 -0.2609 -0.2550
17636W        W32767   6.126  15.747   2.262  0.1612  0.1515  0.0549
17637W        W32768   4.867  11.871   0.219  0.0819 -0.1906 -0.1874
17638W        W32769   1.867   3.604   2.025 -0.1927 -0.3235  0.1165
17639W        W32770   1.108   9.136   5.547 -0.0647  0.1112  0.2794
17640W        W32771  12.757   5.774   3.711 -0.0809  0.2990 -0.3199
17641W        W32772   4.364   2.494   6.094 -0.1546  0.3607  0.0704
17642W        W32773   3.704   5.547  14.796 -0.1106 -0.3383  0.0382
17643W        W32774   5.627   3.056  15.599  0.3451 -0.3832  0.1263
17644W        W32775   6.718   1.117  11.257  0.1286 -0.0050 -0.2043
17645W        W32776   8.895  15.261   2.727  0.2507 -0.0063 -0.0400
17646W        W32777   9.121   1.403  16.062  0.2634 -0.0813 -0.2385
17647W        W32778   3.448   6.157  14.647  0.0133 -0.4191  0.2327
17648W        W32779   4.093   4.468   0.020  0.0406 -0.1911 -0.2655
17649W        W32780  10.197   8.247  11.255  0.3014  0.0841 -0.1132
17650W        W32781   5.382  10.570  14.091 -0.0093 -0.0650 -0.1987
17651W        W32782  17.430   7.539   4.157 -0.2931  0.1311 -0.1638
17652W        W32783   6.835  16.291  14.311  0.0552 -0.0927  0.3778
17653W        W32784  14.956   5.145  15.172  0.1344  0.2222  0.0594
17654W        W32785  11.334   8.967   3.557  0.0138 -0.0309  0.2811
17655W        W32786  10.579  11.789   3.705 -0.2139 -0.3955 -0.0009
17656W        W32787   6.437  11.733  13.477  0.3139  0.3264  0.0933
17657W        W32788   3.852  15.673   0.831 -0.0349 -0.2779  0.0122
17658W        W32789   4.411  15.656  13.982  0.1452 -0.1396  0.0794
17659W        W32790   3.086   4.508  15.586 -0.1532  0.0266 -0.1926
17660W        W32791  16.247   6.617   4.132 -0.0148  0.0589 -0.2008
17661W        W32792   7.318  15.650   5.082  0.1082  0.0714 -0.2613
17662W        W32793  16.245   2.007  16.047  0.1480 -0.0147  0.0884
17663W        W32794  14.205   9.412   1.532  0.5146  0.0706  0.1004
17664W        W32795   5.164  11.257  13.607  0.0070 -0.1303 -0.3130
17665W        W32796   4.889   7.540  15.944 -0.2630  0.0417 -0.2629
17666W        W32797   1.890  13.282  13.949  0.0814 -0.0958  0.1265
17667W        W32798  10.594   4.515   1.777 -0.1245  0.1666  0.1074
17668W        W32799   5.756   3.198   0.182  0.1593  0.0094  0.2951
17669W        W32800  11.825   9.682   4.669  0.0295  0.0965  0.3468
17670W        W32801  13.320  17.893   2.703  0.1517  0.1272  0.1252
17671W        W32802  13.857   5.713  14.275 -0.1148  0.1819  0.0866
17672W        W32803   4.634   9.024   0.317  0.2032  0.0233  0.1088
17673W        W32804  14.637   4.462  11.160  0.3882  0.0078  0.0781
17674W        W32805  15.025  12.866  10.879 -0.0788  0.6662 -0.4317
17675W        W32806   6.955   2.048  14.095  0.3491 -0.3035  0.3172
17676W        W32807   1.621  17.122  12.449 -0.1647 -0.0327  0.1975
17677W        W32808   5.904  15.305  11.938  0.3094  0.1444 -0.1932
17678W        W32809   6.036   2.679   0.473  0.1283  0.0908 -0.1447
17679W        W32810   3.269  13.115   2.756  0.1075  0.0228 -0.2117
17680W        W32811   8.172   1.096   4.541 -0.2795 -0.0873 -0.3365
17681W        W32812   4.549   1.413  11.398 -0.1322 -0.2345  0.1909
17682W        W32813  15.166   0.458  11.640  0.1359 -0.3219  0.1096
17683W        W32814   7.415   7.728  13.999 -0.1769  0.0222 -0.1139
17684W        W32815   8.551   9.245   3.882 -0.1011 -0.0076  0.0739
17685W        W32816   5.580   8.606   3.867  0.0779 -0.1666 -0.0890
17686W        W32817   1.590   7.380  16.154 -0.1807 -0.0443  0.0833
17687W        W32818  12.830   5.509  10.905 -0.1396 -0.0251 -0.0715
17688W        W32819   9.985   0.680  13.412 -0.1083 -0.0187 -0.0728
17689W        W32820  15.452  15.914  11.939  0.1881  0.0996  0.0531
17690W        W32821  10.434  14.723   2.184 -0.1589 -0.0283 -0.0215
17691W        W32822  17.561   7.315   0.909 -0.1015  0.2484  0.2675
17692W        W32823   7.177  11.557  11.978  0.1739 -0.2836  0.0102
17693W        W32824   9.014  13.971   3.494  0.1266  0.1807 -0.0003
17694W        W32825   5.782   5.248  15.433 -0.2115  0.2476  0.3980
17695W        W32826  15.887   6.586  12.640  0.2594  0.4896 -0.1288
17696W        W32827   0.189   0.312   5.358  0.1383 -0.1028  0.2583
17697W        W32828   7.449   0.638   3.942  0.1555 -0.0598  0.0377
17698W        W32829   2.735  13.339   1.860  0.2503 -0.2141  0.1575
17699W        W32830  15.173   0.211  13.252 -0.3205  0.2911 -0.1197
17700W        W32831   8.202  14.719  12.093 -0.0453  0.0966  0.2166
17701W        W32832   0.649  14.792  13.425 -0.2028  0.0662 -0.1762
17702W        W32833   7.193   1.163   5.645  0.0542 -0.0884 -0.0320
17703W        W32834   5.418   9.885   0.406  0.0249  0.0627  0.2118
17704W        W32835  14.246  15.726  14.865 -0.1690 -0.2434 -0.0644
17705W        W32836  14.799  10.357  11.240 -0.0298 -0.0852  0.1919
17706W        W32837  15.203   4.026   0.163  0.1485  0.0133 -0.0093
17707W        W32838   3.291  15.871   4.405 -0.1095  0.3542  0.2045
17708W        W32839  11.732   2.696   2.283 -0.3549 -0.0417 -0.1242
17709W        W32840   6.570   3.556   4.564  0.0034  0.0041  0.1689
17710W        W32841  10.027   8.128   2.371  0.2688  0.0094 -0.0569
17711W        W32842   4.447  16.944   2.500  0.2393  0.1005 -0.0595
17712W        W32843   8.057  11.905   5.876 -0.0430  0.1297  0.3373
17713W        W32844  13.048   4.562  14.767  0.1138 -0.1987  0.2812
17714W        W32845  15.953   2.001   3.672 -0.1409 -0.1693 -0.1047
17715W        W32846  14.207   4.681  15.732 -0.0450 -0.0329  0.1833
17716W        W32847   4.749  16.692   0.847 -0.0346  0.0855  0.4098
17717W        W32848   8.775   1.220   4.193 -0.3101 -0.4917  0.0122
17718W        W32849   9.178  16.519  14.736 -0.1154 -0.1002 -0.0140
17719W        W32850  13.273   1.839  12.424  0.0647  0.2528 -0.2864
17720W        W32851   4.922   0.009  15.554 -0.0249 -0.2550 -0.2296
17721W        W32852   2.486   0.533  12.593  0.1086  0.0032 -0.0241
17722W        W32853   7.328   6.154   3.871 -0.0450  0.2063  0.2339
17723W        W32854   7.146   9.718  16.019  0.2728  0.0505 -0.0097
17724W        W32855  10.310  13.479   4.758 -0.1206 -0.1316 -0.1311
17725W        W32856   3.577   4.725   5.277 -0.1396 -0.1499 -0.2773
17726W        W32857   6.627   2.275   0.099  0.0330  0.0630  0.0650
17727W        W32858   7.377  10.869   1.130 -0.1775 -0.1268 -0.0855
17728W        W32859  14.480  18.063   0.400  0.2257  0.0587 -0.0113
17729W        W32860   7.019  18.067  14.512 -0.2385  0.3025 -0.0543
17730W        W32861   5.851  13.348  11.488 -0.0596 -0.0623  0.0502
17731W        W32862   9.741  15.245  15.532  0.0653 -0.1230 -0.0498
17732W        W32863   7.176   0.651   4.756 -0.2561  0.1250 -0.1599
17733W        W32864   4.178   8.650   2.002  0.0111 -0.0359  0.1570
17734W        W32865  14.574   0.398  15.776 -0.1319  0.0423  0.1374
17735W        W32866  15.027   2.034  13.742  0.1561 -0.2234  0.1169
17736W        W32867  17.746   1.696   9.728 -0.2077  0.2763  0.0102
17737W        W32868  15.844   5.306  15.316  0.1297 -0.1024  0.0868
17738W        W32869   2.198  10.402   6.762  0.2805 -0.0000  0.0241
17739W        W32870  12.969   5.387  15.841 -0.1211  0.1269 -0.2454
17740W        W32871   6.468  13.555  12.373 -0.0035 -0.0756  0.1233
17741W        W32872  12.408   6.692   5.381 -0.1873  0.3497  0.3356
17742W        W32873  15.370   3.487  13.077  0.1440 -0.0391  0.1420
17743W        W32874  17.667   9.405   1.111  0.1394 -0.2246 -0.1818
17744W        W32875   3.460   0.171  14.841 -0.0039 -0.0821  0.1676
17745W        W32876   2.304  16.758  13.966 -0.1269 -0.1058 -0.0360
17746W        W32877  11.978   3.770  12.031 -0.1008 -0.0628 -0.0655
17747W        W32878  11.179   3.840  11.858  0.1575 -0.0266  0.1813
17748W        W32879  13.167  11.827  15.214 -0.0982 -0.1465 -0.1832
17749W        W32880   0.527  14.349   5.719 -0.2070 -0.2042 -0.0983
17750W        W32881   5.971  13.841   2.226 -0.1478  0.2355 -0.1593
17751W        W32882   6.534  17.916   1.483 -0.2191  0.2786  0.1890
17752W        W32883  11.140  17.925   3.050 -0.0993  0.1736  0.0415
17753W        W32884   2.830   6.739   0.079  0.1535  0.1043  0.0835
17754W        W32885   9.029  15.387   3.567 -0.1720  0.1230 -0.1033
17755W        W32886  13.472  14.141  12.699 -0.0072 -0.0332  0.0089
17756W        W32887   8.638   4.090  13.919  0.0009 -0.4193  0.2678
17757W        W32888   2.602  12.508  15.720  0.2113 -0.0686  0.3354
17758W        W32889   6.058   6.875   4.722 -0.1630 -0.1597  0.0796
17759W        W32890  14.590   5.473   1.038  0.2925 -0.0720 -0.1391
17760W        W32891   9.758   8.556  11.477  0.0476  0.2994  0.1264
17761W        W32892  14.951   5.492  12.123  0.3886  0.0897 -0.0827
17762W        W32893   1.926   6.510  14.022 -0.0672  0.1226 -0.1030
17763W        W32894   6.504   1.794  14.035 -0.0454  0.2125  0.1309
17764W        W32895   1.646  15.344  13.541  0.1341 -0.2251  0.0740
17765W        W32896   3.736   6.013  15.050  0.0719  0.2523  0.0421
17766W        W32897  12.691   7.482   4.710 -0.3161  0.1393  0.1103
17767W        W32898  10.410  15.185   9.928  0.1415  0.1996 -0.1871
17768W        W32899   7.321  11.869   0.140 -0.2128  0.0073  0.0117
17769W        W32900  13.221   4.157   3.426 -0.2763  0.1825 -0.0050
17770W        W32901  10.691   8.090  12.535 -0.2001  0.0821  0.2101
17771W        W32902   3.457   2.012   4.585 -0.1764  0.2014 -0.1470
17772W        W32903   6.026   0.500  12.890 -0.2457  0.3893  0.0136
17773W        W32904   8.774   9.707  13.201  0.0913  0.3498 -0.1594
17774W        W32905   8.899  10.581  12.249  0.0971  0.3381  0.1486
17775W        W32906  10.916   0.943   4.835 -0.1240 -0.0801 -0.0424
17776W        W32907   8.457   7.431   3.879 -0.1242  0.0572  0.0685
17777W        W32908   0.313  10.713   5.327 -0.1665  0.1727 -0.1043
17778W        W32909  16.056   2.170  14.545  0.1199 -0.0942  0.0443
17779W        W32910   4.018   5.622  13.027 -0.2185 -0.0435  0.1860
17780W        W32911   2.287   7.717   0.359 -0.1331  0.0465  0.1809
17781W        W32912   1.297   7.701   4.309 -0.2553  0.1766 -0.1223
17782W        W32913   6.073  17.347   1.806 -0.0122 -0.2225 -0.0646
17783W        W32914  16.652  14.856  11.631  0.0374  0.0480  0.0851
17784W        W32915  11.286  13.217  11.012 -0.3476 -0.0485  0.2694
17785W        W32916  14.194   1.379  13.970  0.1175 -0.2506  0.1271
17786W        W32917  10.639   6.897  11.926  0.0062  0.1147 -0.1436
17787W        W32918   7.689   2.794   4.115 -0.4109  0.1770  0.2930
17788W        W32919   3.302  15.268   1.752 -0.0574  0.0994  0.3103
17789W        W32920  13.870  15.842  12.026  0.1111 -0.2703  0.3672
17790W        W32921   5.846  17.359  10.842 -0.2850  0.1704  0.0702
17791W        W32922  17.271   0.981  14.049  0.0717 -0.1588  0.0934
17792W        W32923  11.864  13.711  11.399 -0.0488 -0.0744  0.3299
17793W        W32924   9.462  12.362   0.442  0.1412 -0.0735  0.2591
17794W        W32925  16.555  15.553   5.427 -0.4781  0.1915 -0.4012
17795W        W32926  15.640   3.216   4.091  0.0540  0.3465 -0.0114
17796W        W32927  12.273  12.882  13.434 -0.0767  0.0738 -0.2596
17797W        W32928   9.211   9.971   5.271 -0.2589  0.0473  0.0305
17798W        W32929  15.308   5.897   4.431  0.0214  0.0874 -0.1994
17799W        W32930   6.031   9.676  13.379  0.1359 -0.0394  0.1648
17800W        W32931  10.421   3.008  13.221  0.2135 -0.3176  0.0205
17801W        W32932  17.754   1.937  13.993 -0.1468  0.1305 -0.0892
17802W        W32933   0.726   9.915   0.716  0.0258 -0.0947  0.1416
17803W        W32934  17.939  10.292  15.236  0.1575 -0.1120 -0.2709
17804W        W32935   1.337  12.335   4.602  0.2119  0.2604  0.2531
17805W        W32936   2.828   3.521   1.293  0.2249  0.1091  0.0098
17806W        W32937  10.650   9.558   2.163 -0.0853 -0.1238 -0.0316
17807W        W32938  11.039  10.345   3.800  0.3263  0.0067  0.0489
17808W        W32939   2.780   0.165   1.530 -0.0333  0.0704  0.0915
17809W        W32940  10.484   9.591  11.517 -0.1860 -0.0407  0.2622
17810W        W32941   0.891   6.326  12.907  0.2606  0.0724  0.0596
17811W        W32942  10.318  15.191   0.382  0.1142  0.1127  0.1775
17812W        W32943   6.514  18.079  13.508  0.0291 -0.2909 -0.0731
17813W        W32944  12.176   1.150   0.112 -0.2137  0.1535  0.3185
17814W        W32945  17.504   9.254  14.450  0.2638 -0.0831  0.1301
17815W        W32946  14.990   6.186   2.667 -0.1978 -0.1540  0.0066
17816W        W32947   5.197  17.139  15.903 -0.1521  0.1015 -0.4026
17817W        W32948   7.130   4.395   1.112  0.1578 -0.0335 -0.1158
17818W        W32949   4.079  17.655  12.552  0.1780 -0.0545 -0.3234
17819W        W32950   3.276   7.045  15.828 -0.2010 -0.2448  0.4058
17820W        W32951  17.748   6.669   2.500 -0.0882  0.1030  0.2307
17821W        W32952   2.935   8.327   0.937  0.2259  0.0253 -0.0963
17822W        W32953  12.572   1.739   3.355  0.0900 -0.2438  0.0919
17823W        W32954  16.252   2.929   9.807  0.0864 -0.2208  0.1056
17824W        W32955   1.184  14.119  10.343 -0.2743  0.1964  0.3005
17825W        W32956   3.749   8.129  15.222 -0.0599  0.1441  0.1112
17826W        W32957   6.557   8.635  15.255 -0.0938  0.1158 -0.0240
17827W        W32958   6.082   5.003   4.788  0.0645  0.0730 -0.1923
17828W        W32959   4.237   6.917   1.203 -0.1311  0.4269  0.1950
17829W        W32960   9.321   0.430   4.012  0.0666  0.2087  0.1317
17830W        W32961  14.795  13.216  15.458 -0.2667 -0.0453 -0.0525
17831W        W32962  15.298  12.338  11.541 -0.1566 -0.3677  0.0909
17832W        W32963   1.599  10.824   1.514 -0.3005 -0.1304 -0.0954
17833W        W32964   7.081  10.611  15.167 -0.0661 -0.2238 -0.0011
17834W        W32965   3.631  15.515   2.086  0.0953  0.2530 -0.2814
17835W        W32966  13.282  17.950  13.060  0.2467 -0.0691 -0.0616
17836W        W32967  16.304  15.805  10.994  0.0202 -0.0932 -0.1847
17837W        W32968  14.321   4.689   5.262  0.0727 -0.1906 -0.0388
17838W        W32969   0.460  15.388   0.664 -0.1143  0.1275  0.2153
17839W        W32970   9.415  11.388   2.829  0.1579 -0.0846  0.2386
17840W        W32971  11.802  12.445   0.823 -0.0151  0.0425 -0.2275
17841W        W32972  16.648  11.236   4.670  0.4846 -0.2160  0.3708
17842W        W32973  11.883   4.530   3.318  0.1648  0.2470 -0.0354
17843W        W32974   1.632   2.804   1.676  0.0771 -0.1518  0.0453
17844W        W32975  17.303   3.433   3.456 -0.0147  0.3694 -0.0333
17845W        W32976   7.833   6.141  12.530  0.3249 -0.0437  0.0629
17846W        W32977   7.814  10.105   4.223 -0.4242 -0.0420 -0.0881
17847W        W32978   3.392   0.199   5.262  0.2664  0.2804 -0.1817
17848W        W32979   0.551  12.193  14.644  0.0320  0.0798  0.0452
17849W        W32980  12.616  10.537  11.009 -0.0395  0.1842  0.0804
17850W        W32981  14.755   0.158  13.929  0.2251 -0.1181  0.1855
17851W        W32982   8.947   0.719   3.718  0.0401  0.0088  0.0065
17852W        W32983   1.791   7.731  12.338  0.1719 -0.0446 -0.1221
17853W        W32984  17.060  10.684  12.784  0.1228  0.0764  0.0080
17854W        W32985   0.475   4.682   0.076 -0.0529 -0.1466  0.0824
17855W        W32986   1.806   1.571  13.375  0.0603 -0.1137  0.0065
17856W        W32987   0.436  11.712   6.591  0.4707  0.3217  0.0619
17857W        W32988  17.820   2.036   2.342 -0.1429  0.1396 -0.1536
17858W        W32989   6.370   0.556  16.178  0.0018  0.1515 -0.0768
17859W        W32990   2.791  10.006   6.243 -0.1953 -0.3539  0.1448
17860W        W32991   5.770  17.750   5.155  0.0802  0.1549  0.0453
17861W        W32992   3.893  18.002  12.894 -0.1425  0.0290  0.3110
17862W        W32993   4.454   8.476  14.167 -0.1081  0.0542  0.2231
17863W        W32994   3.703   2.484  10.726 -0.1828  0.0740 -0.0410
17864W        W32995  13.360   0.387  12.305  0.1888 -0.2168  0.0064
17865W        W32996   2.381   1.023  11.721  0.1404  0.2105  0.1770
17866W        W32997  11.490  11.534   4.519 -0.2666 -0.2426  0.1863
17867W        W32998   2.895   4.563  13.520  0.0546 -0.0563 -0.0421
17868W        W32999  14.666  10.906  13.109 -0.3530 -0.2212 -0.0215
17869W        W33000   0.837  17.224   0.552 -0.2096  0.1217  0.0157
17870W        W33001  14.935  10.513   2.204 -0.0742  0.1447  0.0904
17871W        W33002   8.451   2.135  12.555  0.0546 -0.0398 -0.1293
17872W        W33003   5.973   3.160   1.460 -0.0504 -0.2578  0.1655
17873W        W33004  11.032   9.549   0.098 -0.1135 -0.1109  0.3220
17874W        W33005   0.954   3.831   0.955  0.0603 -0.1227 -0.2110
17875W        W33006   8.448   8.464  12.542  0.0137 -0.1175  0.6464
17876W        W33007  12.189   6.485  11.795  0.1782 -0.1352  0.1232
17877W        W33008  11.004   4.732  11.687 -0.0354 -0.3237  0.4816
17878W        W33009  11.333  14.876   3.230 -0.1342 -0.0813  0.0052
17879W        W33010   1.291   0.048   1.670 -0.0172  0.2144  0.0180
17880W        W33011   9.589   7.662   0.997  0.0560 -0.1008  0.1935
17881W        W33012   4.349   9.426  11.905 -0.1492 -0.0894 -0.1071
17882W        W33013  12.662   4.899   2.536 -0.3682 -0.0344  0.2854
17883W        W33014  10.852   5.209  14.441 -0.2538  0.1057 -0.0875
17884W        W33015   0.810  16.250   1.111 -0.2174 -0.1958  0.2196
17885W        W33016   9.918   0.864   1.985 -0.3542 -0.1121  0.0109
17886W        W33017  18.081   9.281  16.127 -0.0402  0.1372  0.3493
17887W        W33018  14.363  14.033  10.375 -0.3603  0.0647  0.1510
17888W        W33019   4.494  16.949   3.014  0.1020 -0.0065 -0.2851
17889W        W33020  16.195   2.580   4.466 -0.0315  0.2017 -0.1493
17890W        W33021   2.747   5.674  12.397 -0.2198  0.5222 -0.0668
17891W        W33022  17.859   1.872   4.689  0.1625  0.0324 -0.1271
17892W        W33023   6.712  16.464   1.732  0.1703  0.0628  0.1517
17893W        W33024  14.654  16.376  11.895  0.2990 -0.1497 -0.3229
17894W        W33025  14.621   2.949  11.560  0.0154 -0.0042  0.3028
17895W        W33026   4.816   5.169  11.365  0.0110  0.1181  0.0489
17896W        W33027  17.891   3.241   9.893  0.0739 -0.0532 -0.0892
17897W        W33028   6.066  15.569  12.368 -0.1964 -0.0610  0.0395
17898W        W33029   4.393  11.631   3.622  0.1239 -0.0180  0.0767
17899W        W33030   1.901   9.879  11.090  0.0974  0.0293  0.0595
17900W        W33031  10.358   3.713   0.591  0.1894 -0.1914  0.1202
17901W        W33032  10.912  14.243  13.424  0.0913 -0.2727  0.2323
17902W        W33033   1.877  16.772  14.802 -0.2283  0.5313 -0.1928
17903W        W33034  17.315   0.123  10.728  0.0049  0.2604 -0.0246
17904W        W33035   8.635  11.003   2.745 -0.2956 -0.1963  0.0119
17905W        W33036  15.210  12.974   6.136  0.2461  0.3677 -0.2484
17906W        W33037  15.032  13.542  14.717 -0.0155  0.0972  0.2698
17907W        W33038  17.626  10.415   2.049  0.1133  0.2938  0.3263
17908W        W33039   6.777  10.001  16.206  0.0516 -0.2482 -0.0610
17909W        W33040  16.257  12.527   4.205  0.1077 -0.1076 -0.3203
17910W        W33041  17.909   3.058   0.900 -0.1115 -0.1010 -0.3603
17911W        W33042  16.546  17.827  12.080  0.0621 -0.0350 -0.3866
17912W        W33043  15.917   9.275   3.040  0.2006  0.0141 -0.0200
17913W        W33044  10.243   0.995  12.080 -0.0118  0.3283  0.0502
17914W        W33045  12.097  14.756   3.566 -0.0332  0.0687 -0.1615
17915W        W33046   5.815   8.903  12.357  0.1265 -0.1402 -0.0325
17916W        W33047   8.945   6.600   5.386 -0.1788 -0.1296  0.0323
17917W        W33048  13.275   0.849  15.046  0.0793  0.1392  0.0201
17918W        W33049  17.536   9.762   6.313  0.0517 -0.1132  0.3290
17919W        W33050  14.670   3.593  13.249  0.0947 -0.1386 -0.2046
17920W        W33051   7.207   7.198  15.198 -0.1065 -0.1449  0.0375
17921W        W33052  15.181  11.413   3.424 -0.0168 -0.0199  0.2577
17922W        W33053  12.541   5.863  11.188  0.0065  0.0040 -0.0387
17923W        W33054  16.577   8.002   0.735 -0.1796 -0.0634 -0.0247
17924W        W33055  12.861   8.925  12.331 -0.1450  0.0601 -0.1171
17925W        W33056  17.142   8.323  11.869  0.3404  0.1123  0.1424
17926W        W33057   7.622   8.175  12.952 -0.0292 -0.0415  0.0608
17927W        W33058  14.736  15.793  12.606 -0.3223  0.1421  0.4181
17928W        W33059   9.169   1.271   3.646 -0.1756  0.0446  0.1400
17929W        W33060   9.564  15.498  11.841  0.0441  0.0109 -0.3847
17930W        W33061  15.355  11.183   4.000 -0.2551 -0.2984 -0.0451
17931W        W33062   4.718   7.329   5.157 -0.2341 -0.1243  0.1649
17932W        W33063   3.496  16.665   1.392 -0.2504  0.1133  0.1176
17933W        W33064  15.433  16.878  11.817  0.1439 -0.2354  0.2629
17934W        W33065  12.791   0.450  12.670  0.0761 -0.1561 -0.0998
17935W        W33066   8.265  16.155   5.772 -0.1492  0.0387 -0.0375
17936W        W33067   1.025   3.212   0.939 -0.1013 -0.1739  0.1669
17937W        W33068   1.482  11.522   0.319  0.2002  0.1199 -0.0880
17938W        W33069   2.934  10.265  15.390  0.0853 -0.1436 -0.0431
17939W        W33070   9.094  11.041   2.976 -0.0797 -0.0325  0.1497
17940W        W33071   5.940   9.490  11.510  0.1922 -0.1780 -0.0988
17941W        W33072  17.499  11.017   3.430 -0.1355 -0.0998 -0.2139
17942W        W33073  12.556   5.530   4.558  0.5635  0.1064  0.3685
17943W        W33074   8.403   9.576  11.187  0.1280 -0.1974  0.0251
17944W        W33075   3.734   9.804  13.014 -0.0800  0.0079  0.0677
17945W        W33076   6.885  17.547  16.097  0.0836 -0.0691  0.0441
17946W        W33077  15.153  17.184  11.421  0.0283  0.0777  0.2726
17947W        W33078  10.544  16.555   3.277  0.0451 -0.2634  0.2873
17948W        W33079  17.924   6.673  14.799  0.3325  0.0809 -0.4288
17949W        W33080   0.265   7.560   1.055 -0.1715  0.0504 -0.3166
17950W        W33081   0.690  15.096  15.511 -0.1500  0.0231 -0.1813
17951W        W33082  13.323   1.098  16.072 -0.1634 -0.0310  0.0325
17952W        W33083  12.478   9.289   5.280 -0.2690 -0.1494 -0.1030
17953W        W33084  15.744  16.255   2.171  0.1691 -0.0995  0.1158
17954W        W33085   5.490   5.311   0.967  0.2465  0.0042  0.0750
17955W        W33086   4.924   3.121   3.884 -0.2336  0.1875  0.0083
17956W        W33087   3.881   4.588   4.906 -0.0700  0.2123 -0.0112
17957W        W33088   3.500   9.726   3.169  0.0085  0.0189  0.3479
17958W        W33089  10.091  11.234  13.352 -0.0541 -0.3026 -0.0399
17959W        W33090  13.486   6.531  14.586  0.2305  0.5421 -0.3139
17960W        W33091   1.566   8.891   2.313  0.2460  0.2261 -0.1295
17961W        W33092   5.666  12.200  15.501  0.2037 -0.0151  0.0874
17962W        W33093   3.619   4.548  13.392 -0.2899 -0.3930  0.0576
17963W        W33094   9.635   2.030   1.106  0.0884 -0.0068 -0.1250
17964W        W33095  11.017  13.707   2.693  0.1031 -0.3113  0.0555
17965W        W33096  10.129  10.349   1.308  0.4759 -0.1040 -0.0012
17966W        W33097   9.780  15.390   2.162 -0.0480 -0.0130  0.0175
17967W        W33098   5.082   6.158  16.139  0.3198  0.2026  0.0553
17968W        W33099   1.547   6.730   4.834  0.0166  0.1384  0.0407
17969W        W33100  15.673   9.948  14.865  0.1699  0.1795  0.0186
17970W        W33101  13.351   7.526   4.251  0.0756  0.1322  0.1368
17971W        W33102   7.863   6.130  14.084  0.1182 -0.0451 -0.1650
17972W        W33103  16.524  11.182  12.037  0.2510  0.0904 -0.0540
17973W        W33104   8.587  14.387  12.788  0.0726  0.4425 -0.2867
17974W        W33105   9.691   7.323   1.433  0.0737 -0.1288 -0.1665
17975W        W33106   2.955  17.823   4.870 -0.1574  0.2340  0.1669
17976W        W33107  17.359   5.368   1.108 -0.0606  0.2976 -0.1404
17977W        W33108   4.125  11.115  15.206  0.0730 -0.0214  0.1693
17978W        W33109  15.134   5.208   2.766  0.0683  0.0566 -0.2945
17979W        W33110  12.035   0.684   1.899 -0.0275 -0.2211  0.0277
17980W        W33111   7.953   4.063  14.906 -0.0512 -0.1460  0.1418
17981W        W33112  13.357   1.024   4.938  0.1031 -0.2821 -0.0450
17982W        W33113   1.830  10.753   0.573 -0.2185  0.2114 -0.1827
17983W        W33114   8.956   8.883   5.341  0.0834  0.2030  0.2222
17984W        W33115  10.539  16.997  15.281  0.0730 -0.3966  0.1450
17985W        W33116   5.420   8.285   1.696 -0.3238  0.2323 -0.2770
17986W        W33117  10.500  15.884  16.004  0.1103  0.1417  0.1774
17987W        W33118   1.340  15.602   0.643 -0.2224  0.2895  0.1092
17988W        W33119   6.632   5.584  10.862 -0.0588 -0.1410  0.0322
17989W        W33120  12.686   3.704  10.291 -0.3482  0.2334  0.3028
17990W        W33121   0.309   3.039  13.134 -0.0201 -0.0590  0.0434
17991W        W33122  14.595   5.703   4.976 -0.2400  0.3033 -0.3855
17992W        W33123   6.090  12.007  16.051  0.1174  0.0491  0.0161
17993W        W33124  11.267  10.792   0.795  0.0076 -0.1785  0.2052
17994W        W33125  13.480   5.689   0.604  0.1141 -0.1683 -0.0267
17995W        W33126  10.685  14.759  11.812  0.0223 -0.1623  0.1237
17996W        W33127  13.219   8.388   0.430  0.0009 -0.1445  0.0065
17997W        W33128  10.693   2.021  15.971  0.0002  0.0613  0.0223
17998W        W33129  15.064   2.235  11.828  0.1271  0.0859 -0.0128
17999W        W33130   4.001   8.815  14.375 -0.1865  0.0705 -0.1821
18000W        W33131  13.118  17.095   3.971  0.0273 -0.0373  0.2141
18001W        W33132   9.688  15.957   1.310 -0.1407 -0.0951  0.0652
18002W        W33133  13.108  11.013  14.492  0.0505  0.4332 -0.1874
18003W        W33134   0.907   7.769   3.041  0.0693  0.1008  0.0438
18004W        W33135   3.919  13.347   5.193 -0.1318  0.1675  0.1048
18005W        W33136   3.854   9.568  13.608  0.2294  0.2008  0.2210
18006W        W33137   4.716   8.253   1.225 -0.0940  0.0926 -0.1644
18007W        W33138   1.373   0.290   4.195 -0.0296 -0.1259 -0.0909
18008W        W33139   9.255   8.488  11.101  0.0379 -0.1786  0.1466
18009W        W33140   4.701   0.955   2.927 -0.1292  0.1536  0.2283
18010W        W33141  17.074  14.093   3.904  0.0490 -0.0464  0.0124
18011W        W33142   0.239   1.623   1.074 -0.0765 -0.2502 -0.0964
18012W        W33143  12.373   6.278  13.880  0.5970 -0.0950  0.1834
18013W        W33144   0.345   5.492  15.933 -0.4166 -0.1301 -0.1432
18014W        W33145  15.525  15.810  12.701  0.0884 -0.0054  0.1753
18015W        W33146  14.728  17.893  15.543  0.0186  0.0331 -0.1721
18016W        W33147   7.333   6.674   1.697 -0.0602 -0.1833  0.1971
18017W        W33148  14.492  11.343  15.048 -0.2708  0.0883  0.0222
18018W        W33149  17.981   3.047  14.642  0.2577 -0.0788 -0.1118
18019W        W33150   2.310  12.604   4.907 -0.0762  0.0930  0.1891
18020W        W33151  14.060  16.907  12.423  0.3044 -0.1485 -0.2673
18021W        W33152   2.744  14.770   3.861  0.2519 -0.3000 -0.0741
18022W        W33153   8.823   2.739  14.123 -0.1415 -0.0169 -0.5323
18023W        W33154   4.069   4.353   0.520  0.0751  0.0550  0.0308
18024W        W33155  11.014  12.856  14.731 -0.1827 -0.1389 -0.1092
18025W        W33156  17.486  17.987   1.041 -0.2022  0.2107 -0.0805
18026W        W33157  17.075   7.824  12.091 -0.1077  0.0616 -0.1581
18027W        W33158  12.535   9.900  11.209 -0.1206  0.1030 -0.0789
18028W        W33159   9.785   2.127  15.928 -0.2881 -0.3500 -0.0818
18029W        W33160  15.428  12.996   3.885 -0.0567 -0.0584 -0.1633
18030W        W33161   2.304  13.034  12.232  0.1510  0.4606  0.0069
18031W        W33162  11.320  13.949  14.729  0.2371 -0.2471 -0.0330
18032W        W33163   0.149   6.516   2.255  0.1218  0.2073  0.1628
18033W        W33164  11.067   7.173   5.787 -0.0646  0.0735  0.1945
18034W        W33165  16.367   3.030  11.876 -0.0725 -0.0958 -0.1003
18035W        W33166   3.515  15.519   1.310  0.0170  0.0427 -0.0178
18036W        W33167   8.368  14.567   2.309  0.0073 -0.0170 -0.1012
18037W        W33168   2.996   9.127   2.735  0.0112 -0.1388  0.1418
18038W        W33169   1.755  10.012   1.625  0.2238 -0.0506  0.1524
18039W        W33170  12.535   4.268   1.721 -0.0649  0.1053 -0.0272
18040W        W33171   3.074   9.200   3.515 -0.0658  0.1198 -0.2657
18041W        W33172  17.217   8.474  11.381 -0.2305 -0.2690 -0.0429
18042W        W33173   7.375   0.155   5.592  0.0848 -0.1007  0.0598
18043W        W33174   2.175  15.381   5.058 -0.0348 -0.1044  0.1843
18044W        W33175  17.573   1.748   1.040 -0.2456 -0.1914  0.0114
18045W        W33176   7.833   0.488   1.251  0.0276 -0.2469  0.0148
18046W        W33177   7.850   3.523  12.465  0.0729 -0.1439  0.0535
18047W        W33178   7.600  13.281   0.466 -0.2223  0.1791 -0.2750
18048W        W33179   3.182  17.786   2.814 -0.1108  0.0014 -0.1134
18049W        W33180   9.774   6.965  13.463  0.0706  0.1092  0.2145
18050W        W33181   0.202   6.892   1.781  0.1996 -0.0733 -0.0914
18051W        W33182  15.708  15.704  15.737 -0.0295  0.0476  0.0557
18052W        W33183  11.058   4.041  12.418 -0.0433 -0.3514 -0.0738
18053W        W33184   2.244   0.412  14.506  0.3245  0.2714 -0.1573
18054W        W33185  13.648  14.020   0.463 -0.3847  0.2715  0.0476
18055W        W33186   4.172  15.035  15.579 -0.0985  0.1290  0.0002
18056W        W33187  17.460  16.072   3.374 -0.0147 -0.2156 -0.1178
18057W        W33188  15.011   2.899  15.699 -0.0103 -0.1371 -0.2801
18058W        W33189   2.661   9.704  11.588 -0.1902 -0.0185  0.2123
18059W        W33190  17.705   8.456  12.114  0.1191 -0.0265  0.1172
18060W        W33191   1.518  10.537  12.717  0.0844  0.0766  0.3080
18061W        W33192  12.016  11.485  15.286  0.1581 -0.3534  0.0654
18062W        W33193   6.354  10.872  12.103 -0.3657  0.0050 -0.1010
18063W        W33194  17.551   8.708  10.883 -0.0950  0.3223  0.4564
18064W        W33195  16.892   1.741   4.639 -0.0398 -0.0493 -0.0373
18065W        W33196   7.771  15.550   5.286  0.2485 -0.1559 -0.0590
18066W        W33197   4.516   7.597   0.644  0.1954  0.2317 -0.3444
18067W        W33198  11.660  17.004   4.101  0.1809 -0.4613  0.0111
18068W        W33199   2.777   4.659   3.604  0.0236  0.1192  0.0745
18069W        W33200   1.051   1.678  15.749 -0.3644  0.2007 -0.0821
18070W        W33201   1.457   0.736  13.554 -0.1571 -0.2027  0.0526
18071W        W33202   4.510   1.672   1.623 -0.1388 -0.0185 -0.2367
18072W        W33203   3.174  13.568  14.876 -0.1014  0.0087 -0.3095
18073W        W33204   5.544  12.605   4.037 -0.0328 -0.1361  0.0716
18074W        W33205   5.737  16.083   2.390 -0.3452  0.1372  0.1119
18075W        W33206   5.468  12.299  12.267  0.3786  0.0532  0.2976
18076W        W33207   0.860  16.260  10.269  0.1701 -0.0360 -0.1668
18077W        W33208  12.341   0.903   1.435  0.1381 -0.2216 -0.0836
18078W        W33209  16.314   9.448  15.588 -0.0247 -0.0466  0.0142
18079W        W33210  17.940  13.790  13.098  0.2287  0.0114 -0.0639
18080W        W33211   3.556  12.531   2.245 -0.0304 -0.1156  0.1236
18081W        W33212   0.421  13.170   2.451 -0.0165  0.2567 -0.1900
18082W        W33213   9.050  15.861  12.949  0.0560 -0.0102  0.0226
18083W        W33214   6.918  15.672   2.941  0.0484 -0.0439 -0.2839
18084W        W33215   7.021   6.198   0.279 -0.1147 -0.0408  0.0829
18085W        W33216   1.939   0.066  13.364  0.0453  0.0492  0.1831
18086W        W33217   4.687  12.084   5.210 -0.1607 -0.2896  0.0488
18087W        W33218   2.776   7.830  12.666  0.0558 -0.1174 -0.1120
18088W        W33219  12.712   2.483   2.295  0.0400 -0.1022 -0.0939
18089W        W33220   9.679   4.810   5.712 -0.2529 -0.0386 -0.1287
18090W        W33221  18.004  12.854   1.821 -0.0260 -0.2661  0.1809
18091W        W33222   8.345   4.019   0.896  0.0568 -0.0165 -0.1596
18092W        W33223  11.628   0.930  14.544 -0.2451  0.0991  0.2332
18093W        W33224   6.779   5.176  11.207 -0.5085 -0.0961  0.3617
18094W        W33225  12.887  14.774  12.982  0.0831 -0.2038  0.1126
18095W        W33226   1.813  17.149  15.698 -0.0048 -0.1406 -0.0344
18096W        W33227   7.681   2.225   1.388  0.1042 -0.1625 -0.1312
18097W        W33228   5.074  14.951   3.267  0.1415  0.2350  0.0302
18098W        W33229  16.727  15.379  14.470 -0.1097  0.0353  0.1879
18099W        W33230  11.711  12.492   3.955 -0.0956 -0.3238  0.0079
18100W        W33231   7.952  13.474  11.086  0.2593 -0.0630 -0.1740
18101W        W33232   5.996  17.507   5.554 -0.3665  0.2412 -0.0181
18102W        W33233  11.558  15.295   2.245 -0.1309 -0.0391 -0.0928
18103W        W33234  13.165   9.709   6.242  0.2282  0.2636 -0.0897
18104W        W33235   7.569   7.363   4.505 -0.2110  0.1722 -0.0177
18105W        W33236  15.903  17.538  12.926  0.1393  0.0429  0.3211
18106W        W33237  12.783   1.826  15.659  0.0335 -0.0115 -0.1550
18107W        W33238  10.332   4.027   4.685  0.0482  0.1049 -0.1043
18108W        W33239   7.649   9.526   3.078 -0.0198 -0.2530  0.0532
18109W        W33240  12.708  16.758  13.621 -0.2156  0.1751  0.0033
18110W        W33241   0.907   9.774   1.501 -0.1455 -0.1737 -0.1868
18111W        W33242   0.332   0.843   2.629  0.0072 -0.1980  0.0039
18112W        W33243   7.306   6.313  14.077  0.2084  0.1639  0.1720
18113W        W33244   8.252   2.902   4.872  0.2386 -0.0446 -0.0818
18114W        W33245   9.247   3.443  14.405  0.0926 -0.1179  0.2347
18115W        W33246  13.462  14.334   5.172  0.6178  0.0741 -0.1543
18116W        W33247   2.694  15.277   2.976 -0.2112 -0.3269  0.2338
18117W        W33248  10.324   1.390   4.960  0.0715  0.0570  0.1523
18118W        W33249  10.783  11.543   2.663  0.0669  0.1291  0.0433
18119W        W33250   7.144  12.199   0.982 -0.2812 -0.1275 -0.1263
18120W        W33251  14.991   7.801   3.872 -0.1184  0.3826  0.3001
18121W        W33252  17.941  14.536  14.457 -0.2010 -0.4063  0.0570
18122W        W33253   0.271  12.930  15.665  0.1850 -0.2897 -0.0182
18123W        W33254   5.441   1.736   1.070  0.1567  0.1710 -0.0794
18124W        W33255  15.228   4.727  14.290  0.1598  0.1467  0.0666
18125W        W33256   8.051   7.050  14.041 -0.2065  0.1985 -0.0823
18126W        W33257  13.698   7.770  14.195 -0.0183 -0.0501 -0.0501
18127W        W33258  16.881   3.699   1.797  0.0371 -0.2790  0.2081
18128W        W33259   1.451   6.106  15.190 -0.0560 -0.1805 -0.0149
18129W        W33260   9.328   7.371  15.849 -0.0267 -0.1760  0.0897
18130W        W33261   6.242   2.353  16.054 -0.0432  0.0075  0.1698
18131W        W33262  11.497   7.558  16.142 -0.2490  0.0375  0.0964
18132W        W33263   7.069   5.023  13.710  0.0406 -0.1205 -0.1525
18133W        W33264  16.138  14.624  15.709 -0.2296  0.0101  0.0375
18134W        W33265   0.363  15.748   3.344  0.1847  0.0642 -0.2306
18135W        W33266  11.090   0.965   3.715 -0.2687  0.0847 -0.1674
18136W        W33267   6.481  14.274  13.388 -0.0540  0.0724  0.3869
18137W        W33268   1.616  16.677   5.433 -0.0909  0.1250 -0.0472
18138W        W33269  11.783   1.043  12.026 -0.1169 -0.1824 -0.1247
18139W        W33270   7.109  12.492   1.872  0.2590 -0.3263  0.0455
18140W        W33271  14.373   2.745   4.129  0.0419  0.0400  0.3060
18141W        W33272   1.158  12.348  12.000 -0.4237  0.0656 -0.3429
18142W        W33273   1.832   2.964   2.715  0.1352  0.1745  0.1801
18143W        W33274  12.653  14.269   4.976  0.1065 -0.0828  0.0329
18144W        W33275   1.814  14.266   1.850  0.1973 -0.3955  0.0359
18145W        W33276   9.390   1.497   0.256 -0.0546  0.1900  0.2189
18146W        W33277   9.306   8.535   1.601  0.2347 -0.0904 -0.1600
18147W        W33278   2.079  17.846  13.910 -0.1215 -0.0251  0.3121
18148W        W33279  16.349  16.081   1.500 -0.0022  0.0627 -0.2015
18149W        W33280  13.721   2.048  13.449  0.1987 -0.3021  0.3256
18150W        W33281   2.361   3.952   1.158  0.3183 -0.0185 -0.2528
18151W        W33282  15.902  15.789   2.358  0.0948  0.1729  0.3485
18152W        W33283   2.601  11.163   2.559 -0.1798 -0.2896 -0.1618
18153W        W33284  17.360  17.091   9.751 -0.0479 -0.2205 -0.2248
18154W        W33285   7.280  10.246   4.358  0.1514  0.1134 -0.1495
18155W        W33286   8.641  15.378  14.708 -0.1492 -0.2002  0.0698
18156W        W33287   3.614  12.040  10.543 -0.1161 -0.1493 -0.0731
18157W        W33288   7.265   0.338  14.137 -0.2106  0.0811  0.1866
18158W        W33289  15.183   2.705   2.389 -0.0359 -0.1569 -0.0918
18159W        W33290   2.262  15.314  14.944 -0.3200  0.0503  0.1669
18160W        W33291  12.056   9.500   3.010 -0.0364 -0.0407 -0.1239
18161W        W33292   2.190   5.816   2.167  0.0588  0.1427  0.0528
18162W        W33293   9.241   2.207   1.451 -0.1203  0.2486  0.0860
18163W        W33294   5.763   7.248  12.238  0.1940  0.0257  0.0500
18164W        W33295   8.571  14.051   5.506  0.0736 -0.0361  0.2961
18165W        W33296   3.292  15.947   5.693  0.1392 -0.0244  0.1232
18166W        W33297   1.924   7.623   1.523  0.3577 -0.2781  0.1616
18167W        W33298   7.705   9.426  14.052 -0.0419  0.1878 -0.0737
18168W        W33299   0.697  10.678   2.462 -0.0179 -0.0848  0.5621
18169W        W33300   9.732   7.758  14.176  0.0801 -0.1377 -0.1430
18170W        W33301  14.398   9.343   5.812 -0.2198  0.3594  0.2686
18171W        W33302   5.130   2.028  12.616  0.0615 -0.2601  0.2589
18172W        W33303  15.259  11.711   3.937 -0.1223 -0.0174 -0.0250
18173W        W33304   0.603   7.928   1.237  0.1948  0.0303  0.0059
18174W        W33305   0.530   6.407   1.963  0.0104 -0.3527 -0.1653
18175W        W33306   2.592  15.400  15.742  0.1611  0.0012  0.0735
18176W        W33307   4.353  12.374  11.401  0.0645  0.1334 -0.1773
18177W        W33308  16.264  14.030  12.728  0.0856  0.1026  0.0725
18178W        W33309   2.928   5.355   5.730  0.0319 -0.0509  0.0118
18179W        W33310   2.291   1.484   3.373  0.3378  0.1448 -0.0110
18180W        W33311   0.689   3.911  12.355 -0.3243 -0.2578  0.2456
18181W        W33312  14.012   6.293   0.028  0.2140  0.0157 -0.0793
18182W        W33313  17.937   9.424   5.399  0.0616 -0.0257 -0.1800
18183W        W33314  15.776   5.700  14.977  0.2116  0.1111 -0.2304
18184W        W33315   9.731   3.847  11.181  0.2964  0.3109 -0.0100
18185W        W33316   9.165  15.232  11.753 -0.0846 -0.0035 -0.0439
18186W        W33317   0.023  10.273   5.247  0.1830  0.1371  0.0472
18187W        W33318  10.039   4.252  15.330 -0.1813  0.0431  0.0407
18188W        W33319   9.379  15.443  13.410 -0.1644  0.0215  0.0409
18189W        W33320   5.847  15.251  12.928  0.0627  0.0718  0.3299
18190W        W33321  16.594   0.001   5.820  0.2568  0.1361 -0.2487
18191W        W33322  15.936  16.848  14.895 -0.2940  0.1856 -0.2835
18192W        W33323   7.644   5.905  14.830 -0.0525  0.1613  0.0526
18193W        W33324  10.538   5.217   5.761  0.1599  0.1266  0.2535
18194W        W33325  12.118  15.985  12.622  0.1453 -0.1208  0.1140
18195W        W33326   3.275   3.869   2.103  0.2404  0.2105  0.0871
18196W        W33327  13.595  11.493  15.170  0.3355 -0.0927 -0.2493
18197W        W33328   3.572   3.152   2.625  0.0720  0.1507  0.2861
18198W        W33329  11.459   0.106  13.167  0.5474 -0.1690  0.0890
18199W        W33330   0.588   6.244  11.673  0.3608  0.2488 -0.0209
18200W        W33331  12.458   3.887   2.647  0.1177 -0.1145 -0.3698
18201W        W33332  15.619   4.760   2.214  0.5489 -0.0209  0.0316
18202W        W33333   2.586   7.851   6.169  0.0997  0.1600  0.2942
18203W        W33334   2.404  13.440  13.224 -0.0079  0.0623  0.0702
18204W        W33335   2.969   8.329  11.766  0.2792 -0.2387 -0.0502
18205W        W33336   2.614  14.102   2.136 -0.0874  0.2308  0.1522
18206W        W33337  15.309  10.881  14.695 -0.0522  0.0437  0.0425
18207W        W33338  15.270  17.495  15.482  0.0743  0.2383  0.4439
18208W        W33339  11.869  10.034   5.187 -0.3000  0.0037 -0.1598
18209W        W33340  11.236   4.519   5.637  0.0371 -0.0099  0.2608
18210W        W33341   7.761   0.624  14.492 -0.0122 -0.0064 -0.0646
18211W        W33342   8.855  10.010   5.648  0.0308 -0.1048  0.0226
18212W        W33343  16.076   3.469   1.352  0.0096  0.0016  0.0874
18213W        W33344  14.458   0.704  15.341  0.1928 -0.2254 -0.2203
18214W        W33345  13.329   7.203   3.290  0.1488 -0.1805 -0.1883
18215W        W33346   6.999   6.717   2.089 -0.2038  0.1326  0.0796
18216W        W33347   5.125  15.017  14.128  0.1332 -0.2780 -0.3711
18217W        W33348   3.360  17.274   2.840  0.0686  0.2838 -0.0893
18218W        W33349  17.278  14.537   3.347  0.3570 -0.1843 -0.0092
18219W        W33350   3.012   0.908  14.371  0.3169  0.0699  0.1887
18220W        W33351  16.439   9.999  12.528  0.1160 -0.1567 -0.0044
18221W        W33352  10.004   0.460  12.660 -0.2025 -0.0678  0.1351
18222W        W33353  12.443  13.665  11.300 -0.1530 -0.1053  0.1842
18223W        W33354  16.033  14.275   3.023 -0.0994 -0.2121 -0.1755
18224W        W33355  13.392   9.538   4.340 -0.0101  0.4467  0.0667
18225W        W33356   3.829  15.416   1.698 -0.0792  0.0538  0.0716
18226W        W33357  12.521  11.343  12.214 -0.4566  0.5925 -0.0797
18227W        W33358  14.383   6.947  11.256 -0.1448  0.0251 -0.2436
18228W        W33359  13.386   2.199   4.234 -0.0324 -0.0252 -0.0609
18229W        W33360  12.013   1.329  15.671  0.1895 -0.1458 -0.1041
18230W        W33361   2.749  15.268  12.059 -0.0948 -0.2484 -0.1063
18231W        W33362  10.704  13.433   1.771  0.3445 -0.0652  0.0139
18232W        W33363   8.764  10.484  15.017  0.1826  0.1459  0.0522
18233W        W33364  10.855  17.607  13.386 -0.0905  0.0136  0.1830
18234W        W33365   4.429  11.253  11.657  0.1626  0.0091  0.0376
18235W        W33366   4.493   7.348  14.228  0.1741  0.0218  0.1080
18236W        W33367  14.327  14.766  13.675 -0.2768  0.2094  0.0182
18237W        W33368  10.039   5.857   0.826  0.1814  0.1339  0.2502
18238W        W33369   5.665   8.754  13.920 -0.2663  0.0390  0.0786
18239W        W33370  10.264   9.419   3.323 -0.2454 -0.0017  0.3296
18240W        W33371   4.656  15.334  11.179  0.0980  0.0830  0.0685
18241W        W33372  17.122   6.660   1.271  0.0702 -0.1449 -0.2443
18242W        W33373   5.575  14.336  14.835 -0.1028  0.0247  0.2310
18243W        W33374  16.530  14.410   4.993  0.0863 -0.0835  0.3739
18244W        W33375  10.611   3.998  12.133 -0.3346  0.0144 -0.0811
18245W        W33376   7.838   0.172   1.641  0.2409 -0.0543 -0.0290
18246W        W33377   1.396   2.720   3.927 -0.2976  0.1966 -0.0489
18247W        W33378  16.545  17.893  16.028  0.4672  0.2592  0.3138
18248W        W33379   4.304   3.098   2.168 -0.0695 -0.3776 -0.4343
18249W        W33380   7.211   8.447   5.748  0.1902 -0.0763  0.1558
18250W        W33381   6.877   9.672  10.574  0.2650  0.0209 -0.0849
18251W        W33382   3.869   9.624   0.122  0.1680  0.2708 -0.0723
18252W        W33383   2.979   8.878   5.306  0.1546  0.2517 -0.2294
18253W        W33384  13.069  11.354  16.055  0.1327  0.2857  0.0957
18254W        W33385   0.384   3.431  11.585 -0.1800 -0.0729 -0.0745
18255W        W33386  17.339  17.591  15.034 -0.1111  0.0192 -0.1820
18256W        W33387  16.837  14.544   5.706 -0.2843 -0.0103  0.0957
18257W        W33388  16.444  14.117  14.397  0.0065  0.0113  0.2325
18258W        W33389   9.606  12.179   3.746 -0.0005 -0.0251 -0.0630
18259W        W33390  13.725  10.235   1.754  0.0069  0.0171 -0.0859
18260W        W33391   0.166   7.482  14.971 -0.1560 -0.1675 -0.0515
18261W        W33392   5.224   0.442   0.482 -0.2261 -0.0849 -0.0013
18262W        W33393   7.006   3.001  12.599  0.1303 -0.1641 -0.2360
18263W        W33394   5.382   3.476  15.581 -0.1479 -0.1319  0.3535
18264W        W33395  16.628  18.096   3.254  0.1663  0.0462 -0.3288
18265W        W33396  14.247  10.691  11.613 -0.0312 -0.1477  0.0152
18266W        W33397  16.389  17.537  15.684  0.0145  0.1027  0.1358
18267W        W33398  10.403   0.801  13.694 -0.2467 -0.0706  0.4755
18268W        W33399   5.414   3.797   1.887 -0.1669 -0.1374 -0.0227
18269W        W33400  11.119  17.083  13.738  0.0210  0.0214 -0.0050
18270W        W33401   4.242  17.747   9.993 -0.1501  0.1104 -0.0585
18271W        W33402  11.623  18.022   0.340  0.0492 -0.0613 -0.1690
18272W        W33403   0.435   7.267   4.097 -0.1075  0.3220 -0.2308
18273W        W33404   7.012  14.448   0.661 -0.1234 -0.2317 -0.0389
18274W        W33405  14.507  16.177  13.500  0.1470  0.6024  0.0141
18275W        W33406   5.167  11.138   1.444  0.2618 -0.2891  0.2264
18276W        W33407  12.750   1.840  11.312  0.0299  0.0209  0.0312
18277W        W33408  17.646  10.850   0.018  0.0676 -0.0624 -0.0920
18278W        W33409  15.392   8.209   5.090 -0.0505  0.2069  0.2016
18279W        W33410  16.996   4.113   0.657 -0.0172  0.0717  0.1306
18280W        W33411   4.421   5.792   5.278  0.1846 -0.0915  0.2748
18281W        W33412  11.744   0.927  11.577  0.0772 -0.0826 -0.2444
18282W        W33413   9.361   3.758  15.401 -0.0111 -0.0057  0.0367
18283W        W33414   0.354   8.389  16.193  0.0997 -0.1150  0.2203
18284W        W33415   1.237  15.991  12.703 -0.0146  0.1830  0.1507
18285W        W33416  11.254   7.419  10.066 -0.2063  0.1887  0.1946
18286W        W33417  14.780   3.740  12.256  0.2260 -0.1474 -0.1350
18287W        W33418   5.553   1.127  15.867  0.1650  0.0822  0.0292
18288W        W33419   2.650   8.705  12.123  0.4179  0.1258 -0.1855
18289W        W33420  10.964  13.860  13.780 -0.2365  0.3563  0.0168
18290W        W33421   1.075   2.684   5.281 -0.3065  0.2903 -0.1579
18291W        W33422   6.103   7.174  13.692 -0.1198 -0.0696  0.0134
18292W        W33423   9.500  14.060   5.637 -0.1175 -0.2352  0.3680
18293W        W33424  10.677   2.739   2.136 -0.1042  0.1987  0.0269
18294W        W33425  11.558   2.923  13.721 -0.3948  0.0122 -0.2987
18295W        W33426  14.559   1.033  10.951  0.0986 -0.0960  0.0645
18296W        W33427  18.018  15.995   5.824  0.1733 -0.3604  0.0277
18297W        W33428   8.079  13.261  15.434 -0.1603 -0.2947  0.1921
18298W        W33429   5.689   5.083  12.967  0.1235 -0.4546  0.0132
18299W        W33430  11.586   2.417  13.640 -0.6401 -0.0878 -0.1940
18300W        W33431  15.675  14.448   2.733 -0.0538  0.2435 -0.0468
18301W        W33432   8.821  17.936  14.265  0.0722  0.0928 -0.1652
18302W        W33433   8.741  10.672  15.969 -0.0578 -0.0674 -0.1840
18303W        W33434  10.941   5.847  13.219  0.2616  0.2186  0.1429
18304W        W33435  16.978  15.907   3.411  0.0770 -0.0579  0.1997
18305W        W33436  16.887   1.287  11.230  0.1464 -0.1320 -0.0916
18306W        W33437  12.465   0.241   1.216  0.2079  0.1179 -0.2930
18307W        W33438  11.840   6.160   1.005  0.0419 -0.0965 -0.3694
18308W        W33439   1.293  16.812   3.636  0.0651  0.1762  0.0325
18309W        W33440   0.065   0.141  15.237  0.0295  0.0408 -0.0395
18310W        W33441  13.637   7.798  13.595 -0.0935  0.2365  0.0566
18311W        W33442  13.278   7.993  11.289 -0.0904 -0.0210 -0.0206
18312W        W33443   3.610  17.735  11.667  0.0888 -0.4313 -0.1073
18313W        W33444   4.016  13.817  13.210  0.0260 -0.0296  0.1497
18314W        W33445   1.920  15.571  15.374 -0.0099  0.0465 -0.0306
18315W        W33446  11.068   5.247  13.951  0.4687 -0.1617  0.2278
18316W        W33447   2.651   7.563  13.990 -0.1642 -0.0901  0.0722
18317W        W33448   8.658   1.877   3.078 -0.0347  0.1785 -0.0214
18318W        W33449  17.619  17.240   2.541 -0.2972 -0.3042  0.0477
18319W        W33450  14.280  12.437   6.091 -0.1265 -0.0188 -0.1504
18320W        W33451   8.917  10.545   4.742  0.1590 -0.2094 -0.0777
18321W        W33452  12.076   9.438   4.279  0.0721  0.0972 -0.1397
18322W        W33453  14.514   0.552  12.172  0.0154 -0.0897  0.0315
18323W        W33454   0.793  11.599  15.737  0.1928  0.0120 -0.1142
18324W        W33455  14.226   1.421   4.861  0.0511  0.0944  0.0858
18325W        W33456   3.510  16.421   2.445 -0.0124 -0.0590 -0.3288
18326W        W33457   4.964   7.081  11.056  0.0922  0.1551  0.1331
18327W        W33458   1.558  10.378  12.202  0.0663  0.1657  0.2148
18328W        W33459   9.488   0.730   0.924 -0.1136 -0.0490  0.4235
18329W        W33460   3.215  12.229   1.164 -0.0330 -0.1764 -0.1013
18330W        W33461   7.864  14.801   4.837 -0.1419  0.0113  0.0826
18331W        W33462   7.440   5.279  10.224  0.0554 -0.4409  0.0194
18332W        W33463  11.927  10.771  12.963 -0.1803  0.2687 -0.0184
18333W        W33464  13.250   8.230   5.689  0.1269 -0.3100 -0.1206
18334W        W33465   1.385   4.556  14.763  0.0114 -0.1223 -0.2170
18335W        W33466  10.246  12.608  11.275 -0.2757 -0.0798  0.2201
18336W        W33467  14.149   8.994   4.619 -0.0550 -0.0840 -0.0825
18337W        W33468   7.514  16.088   4.998 -0.2325  0.0398  0.2543
18338W        W33469   4.307  15.160  12.610 -0.0481 -0.0033  0.1826
18339W        W33470   8.105  10.767  13.736 -0.2235  0.1057  0.0037
18340W        W33471   6.815  11.474  10.582  0.0203 -0.3501 -0.0963
18341W        W33472   5.169  14.765  12.410 -0.1760 -0.2156  0.0734
18342W        W33473   8.776  16.829  12.630 -0.1461 -0.1183  0.0366
18343W        W33474   6.824  18.034  15.792  0.0680 -0.2453  0.1154
18344W        W33475   0.593   7.404  14.735 -0.0462  0.2330 -0.0843
18345W        W33476   3.421   4.559  11.982  0.0569  0.1075  0.0937
18346W        W33477   5.390  13.759   0.617  0.0131  0.2869 -0.0111
18347W        W33478   9.903   2.296   2.100  0.1287 -0.1345 -0.1879
18348W        W33479  14.221   2.188  11.190 -0.0344  0.3885 -0.0918
18349W        W33480  13.957   4.402   0.416  0.0425 -0.2097  0.1483
18350W        W33481  17.320   7.837   5.457 -0.1559  0.2932 -0.1576
18351W        W33482  10.800  16.099   0.129 -0.3422  0.0479 -0.1273
18352W        W33483   5.758  11.130   4.547  0.3129 -0.1234  0.2329
18353W        W33484  12.646  15.105  14.312 -0.5678 -0.1124 -0.2558
18354W        W33485  12.343  12.842   5.038 -0.2818  0.3460 -0.1267
18355W        W33486   7.392   0.872   3.505 -0.0377 -0.1089  0.1742
18356W        W33487   1.630  17.577   0.154 -0.0595  0.3152  0.1469
18357W        W33488   6.836  12.402  10.459  0.0023 -0.0775  0.0880
18358W        W33489  14.568  17.306  11.841 -0.1401 -0.1424  0.1471
18359W        W33490  11.543   4.906  12.787 -0.1600 -0.1771  0.2784
18360W        W33491   2.244   7.404  11.072 -0.2504  0.0588 -0.2391
18361W        W33492   8.846  10.253   2.030 -0.3281  0.0869 -0.1206
18362W        W33493   0.016  14.810   3.403  0.0972  0.0652  0.1063
18363W        W33494   4.339   8.216  14.623  0.0494 -0.2467 -0.1624
18364W        W33495  13.401  10.020  11.310 -0.2248  0.0522  0.0737
18365W        W33496   6.883   5.831  16.203  0.1011 -0.1400  0.2309
18366W        W33497  11.858  15.398  15.678  0.0986  0.2210  0.2322
18367W        W33498   6.298  16.619  15.170  0.1913 -0.2076  0.0952
18368W        W33499   2.631  17.768   2.743 -0.0820  0.0309  0.1312
18369W        W33500   3.131   3.582  14.440  0.0071 -0.0580  0.0312
18370W        W33501  14.152   2.797  11.050  0.0700 -0.0211 -0.3688
18371W        W33502   0.625  14.823  14.791 -0.0481  0.1879  0.0169
18372W        W33503  12.846  15.730  15.058  0.0675  0.0314  0.0610
18373W        W33504   8.913   0.690  11.673 -0.0823 -0.1717  0.2112
18374W        W33505   2.944   5.369  10.716 -0.0418  0.1468 -0.1067
18375W        W33506  17.403  15.528  15.007 -0.0219 -0.2272  0.2562
18376W        W33507  13.083  12.108   4.469  0.1796 -0.2301 -0.1651
18377W        W33508   6.766   3.498   0.165  0.0869  0.0426 -0.2274
18378W        W33509   0.271   6.053  14.108 -0.1341 -0.2616  0.0122
18379W        W33510   4.898  13.724   3.256  0.3474  0.0942  0.0518
18380W        W33511   7.051   3.696   2.967  0.0423 -0.0950  0.2446
18381W        W33512   4.997   1.804   1.831  0.0238 -0.2545  0.0756
18382W        W33513  12.020  11.033  13.402 -0.2147  0.1176 -0.1008
18383W        W33514   4.814  10.879  13.873 -0.0679  0.1561  0.1872
18384W        W33515  16.660   5.797  12.135  0.0168  0.1110 -0.1570
18385W        W33516   5.836  15.994  12.522  0.2300 -0.1630  0.0041
18386W        W33517  12.421  15.932   0.638 -0.1976 -0.0234  0.3357
18387W        W33518  12.063   2.184  13.370  0.0653  0.0038 -0.0686
18388W        W33519   4.768  17.806   5.534  0.0926 -0.1723  0.0776
18389W        W33520   3.382  12.963   0.224  0.2042 -0.1687 -0.1054
18390W        W33521   4.771   6.576   4.008 -0.2570 -0.4604 -0.2997
18391W        W33522   8.957   0.229   0.517  0.0281  0.3253 -0.0583
18392W        W33523  11.071  17.661   4.702 -0.0520 -0.1890 -0.2261
18393W        W33524   9.092  15.986   3.626  0.1034  0.3470 -0.2048
18394W        W33525  11.741   6.498  11.981  0.2165 -0.0446 -0.1722
18395W        W33526  10.402   4.392  13.079 -0.3975  0.0284 -0.2493
18396W        W33527   0.460  15.565   1.210 -0.0069  0.2114  0.1824
18397W        W33528   8.863  16.176   1.575  0.1075  0.1055  0.1846
18398W        W33529  11.764   4.686  14.309 -0.2025  0.0101 -0.3203
18399W        W33530   7.837  10.577  15.888  0.1649  0.0155 -0.1433
18400W        W33531   3.246   3.947   0.088  0.0276  0.2456 -0.2774
18401W        W33532  13.897  17.167  11.670 -0.0866 -0.0165 -0.1612
18402W        W33533   9.184   5.734  13.568 -0.3128  0.0745 -0.1941
18403W        W33534  14.595  15.419  11.685  0.3178 -0.1285  0.0330
18404W        W33535  12.444  13.508  13.016  0.2411  0.1980  0.1031
18405W        W33536  14.318  12.403  15.728 -0.0230  0.0466  0.0997
18406W        W33537  15.827   9.513   1.766  0.3251 -0.0308 -0.0057
18407W        W33538   5.163  12.274   0.018 -0.0420  0.0659  0.2654
18408W        W33539  11.990   9.803  13.914 -0.0993 -0.0912  0.0144
18409W        W33540  11.109  17.206   1.913 -0.2929 -0.1383 -0.1160
18410W        W33541   7.954  16.081  11.343 -0.3617  0.3445 -0.1665
18411W        W33542   7.111   1.353  11.187  0.1007  0.2619  0.0365
18412W        W33543  14.234   7.518  10.920 -0.0678  0.0661  0.2186
18413W        W33544   6.822   8.688   2.591  0.0215  0.2510  0.4557
18414W        W33545   6.413   0.907   3.918  0.0603 -0.1553 -0.0252
18415W        W33546  10.357  12.338   4.847 -0.1968 -0.1850 -0.1351
18416W        W33547   6.314   0.126  12.506 -0.0651  0.1521 -0.4397
18417W        W33548  14.322  10.411  12.761  0.2298 -0.4814  0.0464
18418W        W33549   3.701  14.634  16.210 -0.1240  0.0600 -0.1293
18419W        W33550  17.239  14.919   5.663  0.1099 -0.1952 -0.0639
18420W        W33551  14.600   4.240   1.756 -0.3141 -0.1192  0.2204
18421W        W33552  13.878  11.253   0.073 -0.2721  0.0020  0.3289
18422W        W33553   8.408   7.959  14.997  0.1558 -0.0441  0.3820
18423W        W33554   5.723  12.050   5.160 -0.1155  0.2144 -0.0556
18424W        W33555   2.813   4.129  13.842 -0.1672 -0.0871  0.0621
18425W        W33556   1.200   6.445   1.959 -0.0296 -0.1473 -0.0474
18426W        W33557  12.687   2.168   4.778  0.2038 -0.1238 -0.0016
18427W        W33558  16.834   4.346   4.889 -0.2828  0.4024  0.2632
18428W        W33559  15.169  11.202  15.774  0.0671 -0.1135  0.1135
18429W        W33560  13.490   7.855   3.845  0.0194  0.0109 -0.0089
18430W        W33561   2.181  12.171   4.704 -0.0719  0.3805  0.0179
18431W        W33562   3.720  14.435  15.570 -0.2698  0.1017 -0.1158
18432W        W33563   5.443  10.796   3.433 -0.1503 -0.1275 -0.3376
18433W        W33564  10.510  11.201  14.575  0.1507 -0.2673 -0.0446
18434W        W33565  18.078   6.389  14.424  0.0682 -0.0463 -0.0147
18435W        W33566  10.891  10.955  13.945  0.1979 -0.0671 -0.0858
18436W        W33567  15.550   6.811   1.871  0.0996  0.2605  0.1331
18437W        W33568  13.249  17.537  13.773 -0.2816 -0.0420  0.2272
18438W        W33569   5.718   9.426   0.369  0.4387 -0.0412  0.1119
18439W        W33570  15.702   4.453   4.052  0.0546 -0.2796  0.0572
18440W        W33571   3.399   3.185  11.863 -0.1582 -0.1239 -0.0262
18441W        W33572   2.917  11.388   4.030 -0.1625 -0.0055 -0.0146
18442W        W33573   6.745   4.874   1.564  0.1043 -0.0387 -0.1787
18443W        W33574   0.331   7.813   2.616  0.0391 -0.0493 -0.1472
18444W        W33575   4.584   8.581  13.607 -0.0604  0.3924 -0.1060
18445W        W33576  12.592   9.290  15.455  0.2635 -0.0659  0.3061
18446W        W33577  17.430   5.081  11.931  0.1615  0.1121 -0.0399
18447W        W33578   9.551  14.822  10.996  0.0126  0.1960 -0.1412
18448W        W33579  14.956  11.537   2.954 -0.1116  0.1572 -0.0953
18449W        W33580   3.662   4.201   5.131  0.2408  0.0367 -0.1288
18450W        W33581   8.245  16.648  13.966  0.0173  0.1128  0.0484
18451W        W33582   5.092   0.101   1.827  0.1331 -0.0293  0.0352
18452W        W33583  14.881  15.736   3.741  0.1895  0.0123  0.2265
18453W        W33584   1.891  11.803  10.981  0.0380  0.0291  0.2289
18454W        W33585  12.230  11.994  11.073 -0.0104 -0.2404 -0.0785
18455W        W33586   3.860   5.570   1.147  0.2747  0.0201  0.1014
18456W        W33587  17.447   3.723   2.995  0.0395 -0.0466 -0.2367
18457W        W33588   7.070  10.674  12.994  0.0089 -0.0439  0.0332
18458W        W33589  12.099   8.634   2.258 -0.0003  0.3048  0.0770
18459W        W33590  16.896   8.760  10.375  0.1094  0.2672  0.1064
18460W        W33591   0.902  15.777   1.376 -0.0137  0.1978 -0.1012
18461W        W33592   7.515  16.543   1.047  0.0081  0.1968  0.1443
18462W        W33593   2.165  16.575   9.883  0.1839  0.0812  0.2341
18463W        W33594   1.592  13.646  13.383 -0.2180  0.1162 -0.1493
18464W        W33595   1.843  16.033  12.143  0.0124 -0.1000 -0.2586
18465W        W33596   9.706  10.534   1.098  0.0756 -0.1077  0.2716
18466W        W33597   0.100   6.499  13.810 -0.2632 -0.0758 -0.0333
18467W        W33598  15.008  10.058  11.584 -0.2552  0.1692  0.0232
18468W        W33599  10.530   7.717  15.450  0.1037  0.1647  0.1944
18469W        W33600   8.095   2.929   1.945  0.0247  0.0092 -0.1687
18470W        W33601  11.054   2.858   2.794 -0.0535  0.1601 -0.2057
18471W        W33602  10.495   9.121   5.720  0.1231 -0.1401 -0.0012
18472W        W33603  11.064  12.629  13.733 -0.0753  0.1726 -0.2107
18473W        W33604  11.584   1.688  12.175  0.4798 -0.1766  0.2845
18474W        W33605  17.254  15.519   2.571 -0.0464 -0.0752 -0.0779
18475W        W33606  10.856  14.772  11.339  0.0547  0.2109  0.1945
18476W        W33607   5.768  18.006  15.910 -0.0758 -0.0763  0.0089
18477W        W33608   1.848  17.021   1.964  0.2398 -0.1348  0.0894
18478W        W33609  12.101  16.799   4.877  0.2254 -0.1746  0.1382
18479W        W33610   0.903  16.307  12.258 -0.0520  0.0582 -0.2067
18480W        W33611  15.373   0.389  14.414 -0.0529 -0.1274  0.3246
18481W        W33612   7.759   0.591  13.944  0.1333 -0.3661 -0.3913
18482W        W33613  17.739   0.892  14.094 -0.1026  0.1260  0.1761
18483W        W33614  17.799  15.964   0.458 -0.1151 -0.3409 -0.1667
18484W        W33615   6.877   8.377  15.641  0.1879  0.1381  0.0779
18485W        W33616  13.891  11.175   2.252  0.0342  0.0052  0.2755
18486W        W33617   2.014  14.274  15.823 -0.1542  0.0032 -0.1927
18487W        W33618  11.742   7.274  15.257  0.1838 -0.0851  0.0940
18488W        W33619  10.429   4.644   4.027 -0.1062  0.1587 -0.0627
18489W        W33620  11.415   6.691   2.718  0.2982  0.1553  0.0166
18490W        W33621   1.914  10.220   5.373 -0.2428  0.5029  0.0734
18491W        W33622   1.759   6.486   5.357 -0.2319 -0.0652 -0.1393
18492W        W33623  14.657   2.828   1.188 -0.3133 -0.1475  0.1357
18493W        W33624  13.192   6.117   0.496 -0.0305  0.3858  0.1388
18494W        W33625   5.725   5.838  15.262  0.2433 -0.1954  0.3286
18495W        W33626  13.015  14.767   1.372  0.0462  0.0365 -0.1117
18496W        W33627  15.009   5.109  11.798 -0.0209 -0.2879  0.2093
18497W        W33628   9.973  11.143   3.671  0.3459  0.1298  0.0408
18498W        W33629   7.642  12.485   2.715  0.0134 -0.1401 -0.0510
18499W        W33630  10.309  16.082  11.702 -0.0484  0.0384  0.1994
18500W        W33631  13.366   1.852  14.025  0.0065 -0.4144  0.0234
18501W        W33632  13.397   0.254  11.130  0.0446 -0.0950 -0.4472
18502W        W33633   7.625  17.847  11.220 -0.0881 -0.0962  0.0772
18503W        W33634   4.242  11.170  13.849  0.0756  0.3462  0.0884
18504W        W33635   5.758   6.110   2.854 -0.1544 -0.2974  0.1425
18505W        W33636  11.073   2.254  15.760  0.0519 -0.2460 -0.0077
18506W        W33637   7.658   6.947  14.875 -0.0163 -0.4667 -0.2032
18507W        W33638  13.776   0.505   3.477  0.1668 -0.1172  0.0573
18508W        W33639   7.767   6.343   0.486 -0.1400 -0.0254  0.0020
18509W        W33640  10.511  13.582  11.256  0.2068  0.0682  0.0884
18510W        W33641  17.269   2.492   5.119 -0.2574  0.3239 -0.0080
18511W        W33642  15.979   6.927   3.237  0.0767 -0.1087  0.1204
18512W        W33643   9.029  16.389   1.195 -0.3737 -0.0552  0.0455
18513W        W33644   0.053   5.599   3.340  0.0641  0.1548  0.0491
18514W        W33645  11.042   7.834   1.217  0.0841 -0.0243  0.1130
18515W        W33646  14.298  14.244   3.847  0.0508 -0.1548  0.2638
18516W        W33647   9.462   5.659  13.997 -0.1179  0.2023 -0.0230
18517W        W33648  13.333  14.088  10.956 -0.0385 -0.1134  0.1814
18518W        W33649   9.991  15.477   4.602 -0.1765 -0.3380 -0.1537
18519W        W33650  14.353  17.042  15.181  0.4159 -0.0398 -0.2437
18520W        W33651  13.671  16.556   6.036  0.0522  0.1359 -0.1804
18521W        W33652  16.589   6.633   5.535 -0.3715 -0.2036 -0.0613
18522W        W33653   6.669  15.961  12.425  0.1672  0.1456 -0.0350
18523W        W33654   0.956  13.320   2.470 -0.2945  0.1334  0.2291
18524W        W33655  15.817   6.825  16.099  0.1286  0.2531 -0.2699
18525W        W33656   3.957  17.199  12.319  0.0441 -0.0957  0.2403
18526W        W33657   4.130   8.839   3.756 -0.0321  0.1919  0.0694
18527W        W33658  13.677   5.271   2.904  0.0926 -0.0911 -0.1128
18528W        W33659   9.370   7.253  13.633 -0.0355 -0.0444 -0.2443
18529W        W33660   3.711  13.190  10.759  0.4115  0.2765  0.0571
18530W        W33661  12.193   1.727  11.290  0.0243 -0.0068 -0.2384
18531W        W33662   3.936  14.495  13.336 -0.0525 -0.1118 -0.0167
18532W        W33663  10.632   9.242   3.008  0.0674 -0.2626  0.1337
18533W        W33664  15.521   5.728   3.379  0.0981 -0.0371 -0.1082
18534W        W33665   4.612   9.021   3.684  0.0540 -0.1057 -0.2092
18535W        W33666  17.919  18.017   1.409  0.1862  0.1740 -0.0621
18536W        W33667   5.830  12.771  12.798 -0.0321 -0.2754 -0.0459
18537W        W33668  15.711   7.844  15.270  0.1684 -0.2478 -0.1536
18538W        W33669   6.482  11.806   1.728  0.2002 -0.2869  0.1726
18539W        W33670   3.612  16.642  13.458 -0.0629 -0.2683  0.3086
18540W        W33671   2.211  13.577   4.191 -0.1175  0.0523  0.1839
18541W        W33672   8.261  16.799  12.047 -0.2165  0.0462 -0.1333
18542W        W33673  13.261  18.086  13.566  0.0440 -0.0624  0.1972
18543W        W33674   1.287   8.568  12.334  0.0850 -0.1639  0.0810
18544W        W33675   1.211  11.820  13.512 -0.1256  0.0517 -0.1342
18545W        W33676   3.614   9.135  14.416  0.1981 -0.0648 -0.2644
18546W        W33677  10.801   0.315  14.503 -0.1312 -0.1025  0.0285
18547W        W33678  16.420   2.176  13.385 -0.0815  0.0949  0.0619
18548W        W33679   6.162   1.272   4.158 -0.0445  0.2120  0.2978
18549W        W33680   9.019  11.154   2.482 -0.0050 -0.1595  0.0497
18550W        W33681   1.600   7.602   2.558 -0.1628  0.2008  0.0258
18551W        W33682  14.963   0.266   3.926 -0.1451  0.2574 -0.0598
18552W        W33683   4.575  15.651   3.894 -0.2442  0.1085  0.0331
18553W        W33684   1.874  16.919  11.506 -0.2106 -0.1915 -0.0757
18554W        W33685   9.168   1.032   0.142  0.0120  0.1592 -0.1961
18555W        W33686   6.174  16.730   4.080 -0.1356 -0.2409 -0.3221
18556W        W33687   4.309  13.878   3.975 -0.0698  0.1445 -0.1834
18557W        W33688   1.249  15.091   3.698  0.2854  0.3256  0.0491
18558W        W33689   3.567   4.647   1.631 -0.0626 -0.2221  0.1934
18559W        W33690   5.039   2.797  13.007 -0.2537 -0.0885 -0.0193
18560W        W33691  14.071   4.959  16.206  0.0601 -0.0659 -0.0484
18561W        W33692   5.954   6.105  15.789 -0.2087 -0.0064  0.3066
18562W        W33693   1.092  17.323   2.428 -0.1260  0.1639  0.3207
18563W        W33694   1.759   9.676  16.124 -0.0794  0.0462 -0.0385
18564W        W33695   1.325   4.555   5.174  0.1091 -0.2821  0.2449
18565W        W33696  17.211  17.321   2.088 -0.0266 -0.0106 -0.0421
18566W        W33697   9.290  14.987  13.062 -0.0960  0.1957  0.2223
18567W        W33698   0.036  15.185   0.491  0.1141 -0.0633 -0.1791
18568W        W33699   2.447  11.832   3.824  0.2861 -0.0467  0.1414
18569W        W33700   8.959  10.050   3.567 -0.0664  0.0587 -0.1909
18570W        W33701   4.947  11.602  15.494 -0.1628  0.1745 -0.1653
18571W        W33702   0.789  17.917   3.987 -0.1822 -0.2984  0.0854
18572W        W33703  17.499  16.386   2.098  0.0317  0.2844 -0.1094
18573W        W33704   0.258   7.080   4.538  0.2558  0.1709  0.0985
18574W        W33705  12.604   1.979   2.363  0.0027 -0.2084  0.1685
18575W        W33706   3.528  14.091   2.383 -0.0095  0.2352  0.1701
18576W        W33707   2.096   1.811   1.310 -0.0704 -0.0268 -0.0202
18577W        W33708  14.528  17.626   3.814 -0.3296  0.0473  0.2941
18578W        W33709   7.621   4.268  14.239  0.0435 -0.2159  0.1455
18579W        W33710  13.538  17.917  13.994  0.2131 -0.0387  0.0609
18580W        W33711   5.753   1.404  11.537 -0.0999 -0.1854 -0.0231
18581W        W33712  11.608   8.567  10.508  0.1144 -0.1379 -0.0451
18582W        W33713  11.654  10.543  13.312 -0.0109  0.1145 -0.0130
18583W        W33714   9.155   7.840   3.861  0.2515  0.1884  0.0382
18584W        W33715  16.519   1.348  13.094 -0.3188  0.0263 -0.0199
18585W        W33716  13.591  16.784   9.944 -0.1891 -0.0259  0.1274
18586W        W33717   5.184   0.585   3.619 -0.2506 -0.2047  0.2257
18587W        W33718   1.855   4.131  16.168 -0.2956 -0.2226 -0.2897
18588W        W33719   5.336  17.849   3.488  0.0325  0.1042 -0.0373
18589W        W33720  13.839  13.076   0.807 -0.0662 -0.0236 -0.2553
18590W        W33721   4.765   5.111   0.214 -0.0475 -0.2037  0.2202
18591W        W33722   7.280   3.822  15.823  0.1824  0.2117  0.0070
18592W        W33723   8.246  13.210   0.381  0.0489 -0.1395  0.2975
18593W        W33724  12.912  17.953  11.413  0.0665 -0.1368  0.1865
18594W        W33725   9.374   8.111  14.432 -0.3493  0.1245  0.0932
18595W        W33726   1.168   3.229  12.786 -0.1422 -0.3192 -0.3020
18596W        W33727  11.170  16.011   1.076  0.0461  0.0306  0.1487
18597W        W33728   6.600  16.154  11.931  0.2546  0.0164  0.2397
18598W        W33729   3.941  12.606  13.487 -0.1566 -0.0818  0.0208
18599W        W33730  13.784  15.045  16.231  0.0664 -0.3819  0.0216
18600W        W33731  14.151   3.105  11.478 -0.1868  0.0497 -0.2752
18601W        W33732  10.804  11.172   5.915  0.0289 -0.0286 -0.0212
18602W        W33733   2.981  17.851   0.326  0.1215 -0.1988  0.0582
18603W        W33734  16.011   5.329   4.878 -0.0250  0.3398 -0.0761
18604W        W33735  14.061   2.232   2.508 -0.0745  0.1096 -0.1141
18605W        W33736   1.142   6.449   2.751  0.0059 -0.2549  0.5541
18606W        W33737   3.662   1.520   4.789  0.1877 -0.0008 -0.0734
18607W        W33738   5.236  13.139  14.319 -0.2980  0.1236 -0.1020
18608W        W33739  15.197  18.001  10.635 -0.2845 -0.2191 -0.0262
18609W        W33740  12.579   8.679   3.761  0.3371  0.0024 -0.1229
18610W        W33741   7.334   3.854   4.904 -0.0367  0.0715  0.0344
18611W        W33742   2.221   3.315  11.123  0.1032  0.2233  0.1589
18612W        W33743  13.307  15.233  13.527 -0.3017 -0.2089 -0.0613
18613W        W33744   8.597   7.332  15.502 -0.0203  0.0855  0.1913
18614W        W33745  17.591  13.107  14.782  0.0817 -0.3299 -0.4053
18615W        W33746  15.712   9.371  12.824 -0.1291  0.1104 -0.0253
18616W        W33747  16.914  14.628  10.786 -0.0000  0.0877  0.0061
18617W        W33748   6.329   7.557  13.235 -0.1826 -0.1870 -0.0124
18618W        W33749   3.259  15.211  13.172  0.1589  0.0146  0.1793
18619W        W33750   5.282   6.193   1.902 -0.1165  0.0300  0.0346
18620W        W33751   5.098   1.404   0.646  0.0076 -0.0713  0.0645
18621W        W33752   1.847   1.637   2.815 -0.1389 -0.2738  0.0519
18622W        W33753  17.820  11.137   0.482  0.3678 -0.1938 -0.0185
18623W        W33754   0.780   3.544  14.034  0.0860 -0.0675  0.0364
18624W        W33755   7.869   3.135  14.837 -0.0326  0.1093 -0.0757
18625W        W33756   1.484   5.488   5.694 -0.2946  0.2626 -0.1198
18626W        W33757  14.503  17.827   5.036 -0.0885 -0.2892 -0.1768
18627W        W33758   7.903   5.254  14.244 -0.1229 -0.4843 -0.0833
18628W        W33759   9.726   0.418  14.385 -0.0135 -0.2292  0.1176
18629W        W33760  10.499   3.025  14.820 -0.0041 -0.1763  0.3019
18630W        W33761   1.664   2.443  14.361  0.3082 -0.0435 -0.3568
18631W        W33762   7.892   5.865   0.235 -0.0432  0.1114 -0.1213
18632W        W33763   7.514   2.223   4.703  0.0127 -0.1063 -0.0460
18633W        W33764   3.091  11.870  16.010  0.1322  0.4027 -0.2604
18634W        W33765  13.756  14.189  14.171  0.0014 -0.0213 -0.2037
18635W        W33766  17.762   7.838  11.528  0.1255 -0.0833 -0.3622
18636W        W33767  15.368   9.709  11.453 -0.1513 -0.1194 -0.1193
18637W        W33768  15.508   1.496  12.122 -0.1407 -0.0645  0.1728
18638W        W33769  10.845  12.366   1.840  0.0297  0.0269 -0.3769
18639W        W33770   9.216   7.349  12.677  0.1510 -0.0599 -0.0192
18640W        W33771  13.216   4.121  15.247  0.0583  0.2278  0.1950
18641W        W33772   5.542   6.058  11.843  0.1522 -0.2005  0.0565
18642W        W33773  13.426   2.460  14.438  0.2505  0.1525  0.1971
18643W        W33774   1.739   5.873   3.903  0.1324 -0.3092 -0.0115
18644W        W33775  12.164  13.676  15.503 -0.0750  0.1535 -0.4844
18645W        W33776  18.068  12.063  12.445  0.0229  0.0949 -0.3572
18646W        W33777  14.076  17.663   4.145 -0.0263  0.1133  0.1097
18647W        W33778  15.244   5.056   1.869  0.3636 -0.1877 -0.0394
18648W        W33779   9.722  13.618   2.531 -0.2199  0.0949  0.1678
18649W        W33780   4.733  10.539   4.540 -0.0417 -0.2690  0.0469
18650W        W33781   2.668  11.713  11.794 -0.2548 -0.1570  0.0745
18651W        W33782  11.353   8.618  14.364 -0.0664  0.0137  0.0380
18652W        W33783   5.808  13.447  14.574  0.0848  0.1541  0.1466
18653W        W33784   0.839   6.189   2.326  0.2779  0.0054 -0.1316
18654W        W33785  12.190  16.797  12.013  0.2990 -0.3701  0.1368
18655W        W33786   1.816  13.409  14.870 -0.3049 -0.2136 -0.2367
18656W        W33787  11.731   1.529   1.456  0.0063  0.3564 -0.0072
18657W        W33788  13.434  15.688  12.285 -0.1047 -0.0894  0.1681
18658W        W33789   4.497   5.539  12.766 -0.0331  0.0493 -0.1644
18659W        W33790  10.796  11.610   4.104 -0.1600  0.1677  0.0300
18660W        W33791   1.487   2.858  12.565  0.2493 -0.1036  0.1039
18661W        W33792  11.415   7.854   2.217  0.0428  0.0244 -0.1323
18662W        W33793  15.701   8.965  16.114  0.0894 -0.0347  0.0942
18663W        W33794  15.049   6.498   0.152 -0.2177 -0.1835 -0.2223
18664W        W33795  16.235  12.106  11.156  0.3512 -0.1670 -0.1888
18665W        W33796  17.130  14.004   1.002  0.1791  0.0559  0.2463
18666W        W33797   0.382   2.152  13.420 -0.0064  0.2634  0.3686
18667W        W33798   5.983  10.231  11.536  0.0871 -0.1023  0.0163
18668W        W33799  11.723  15.075  12.495  0.0402  0.2418 -0.1026
18669W        W33800  15.793  17.445  13.593  0.1147  0.2107 -0.0651
18670W        W33801  10.627   4.877  13.051 -0.2620 -0.0210  0.1363
18671W        W33802   8.869  11.846   4.152  0.2747 -0.0044 -0.0293
18672W        W33803   4.086  16.451  15.594  0.0490  0.1065 -0.0704
18673W        W33804   5.361   5.521  14.116 -0.0905 -0.2096 -0.0955
18674W        W33805  13.353  17.433  15.589  0.0397  0.1567 -0.0207
18675W        W33806   2.621   4.449  13.047 -0.1035  0.3361 -0.0882
18676W        W33807  15.047   8.687   4.248 -0.1851 -0.2979  0.3838
18677W        W33808   5.995   8.322   1.687 -0.0602  0.1355 -0.0936
18678W        W33809  11.267  12.623   1.548  0.1337 -0.0936 -0.1578
18679W        W33810   2.035  13.420  11.897  0.3825 -0.0899 -0.1055
18680W        W33811  17.585   5.023  13.915 -0.2411  0.2403 -0.2974
18681W        W33812  13.503   1.500  14.336 -0.1751 -0.0839  0.2382
18682W        W33813  14.497  15.954   1.045 -0.0907 -0.1544  0.0118
18683W        W33814  12.287   1.644   2.706 -0.0449 -0.0752 -0.1068
18684W        W33815  15.002   8.226   0.418  0.3151  0.3217  0.0623
18685W        W33816  14.372   2.049  13.076  0.5038 -0.0790  0.2222
18686W        W33817  12.052   6.484  12.403 -0.0317  0.0449  0.1268
18687W        W33818  16.771   6.172   5.714  0.0607 -0.1208 -0.2656
18688W        W33819  15.945   8.697   3.440 -0.1756  0.2037  0.0841
18689W        W33820  16.989  11.620   5.512  0.0704  0.1792  0.1257
18690W        W33821  10.758  11.880   0.645 -0.2450  0.1671 -0.2282
18691W        W33822  10.684   9.861  14.102  0.1843  0.1910  0.1188
18692W        W33823   3.619  13.611   1.270 -0.3773  0.2848 -0.0195
18693W        W33824   4.608  18.068   0.222  0.0283 -0.1254 -0.1960
18694W        W33825  12.805  17.040   5.301  0.0752  0.1698 -0.2580
18695W        W33826  10.769   9.968   3.958 -0.0145 -0.2148 -0.4933
18696W        W33827   6.274  13.085  10.295  0.0064  0.2956 -0.2782
18697W        W33828   7.365   1.313  12.160  0.0858  0.0383 -0.1035
18698W        W33829   6.907   0.034  13.942  0.2514 -0.0777  0.2344
18699W        W33830   6.222   8.208  14.921  0.0816 -0.2210  0.4178
18700W        W33831   4.810   2.313  12.868  0.1127 -0.0244 -0.2147
18701W        W33832  17.114   4.583   3.706 -0.1123  0.2457 -0.5068
18702W        W33833   8.305  13.753   1.991  0.1094 -0.1601 -0.3513
18703W        W33834  15.740   9.654  10.770 -0.1235 -0.3296  0.0466
18704W        W33835   8.351  12.717   5.744 -0.1272  0.3419  0.2785
18705W        W33836   3.021  18.005   1.126 -0.3163  0.1926 -0.0565
18706W        W33837   9.215   2.697   3.225  0.2189  0.3469 -0.3074
18707W        W33838   5.077  12.444  11.748 -0.1215 -0.0067  0.1077
18708W        W33839  12.343  11.557   5.107 -0.0353 -0.3450  0.0972
18709W        W33840   2.129   5.220   3.328  0.1614 -0.0915 -0.0081
18710W        W33841  11.898  11.823   2.587 -0.0566  0.2794 -0.2345
18711W        W33842   1.221  11.763   5.995  0.2068 -0.0818 -0.2282
18712W        W33843  11.423   9.475   6.516  0.0168  0.2109 -0.0978
18713W        W33844  10.652   1.269  14.316  0.1194 -0.0091  0.4369
18714W        W33845  12.698  12.744   3.118  0.1715 -0.0134  0.0868
18715W        W33846   5.170  16.167  13.268 -0.0579  0.0935 -0.0740
18716W        W33847   1.553   9.755  12.110 -0.0385  0.2708  0.2650
18717W        W33848   3.216  14.053   3.056 -0.0339 -0.1103 -0.1035
18718W        W33849   1.544  11.913  14.814  0.0978 -0.1084  0.0920
18719W        W33850  11.609   9.889  11.516 -0.0968  0.1782 -0.0457
18720W        W33851   8.422   0.510  12.388  0.0292  0.2267 -0.0125
18721W        W33852  13.120   9.083   3.513 -0.0718  0.1609  0.1119
18722W        W33853  12.774  17.914  10.924 -0.2778 -0.1048 -0.0156
18723W        W33854  11.222  11.708   0.930  0.1380 -0.0809 -0.0691
18724W        W33855   1.937   5.646   3.508  0.2394  0.0489  0.1740
18725W        W33856  16.875   9.358   0.704 -0.2295  0.3162 -0.0050
18726W        W33857  14.429  16.449  15.123  0.0836 -0.0032 -0.0897
18727W        W33858   6.177   9.650   1.823  0.0738  0.2212  0.2441
18728W        W33859   2.621   2.793   4.378 -0.1720 -0.1464  0.2920
18729W        W33860   7.171   5.592  12.341 -0.1582  0.0371 -0.1434
18730W        W33861  13.657   3.567   5.085  0.0807  0.1349 -0.0496
18731W        W33862   5.242   4.185   4.098  0.0105 -0.0584 -0.1948
18732W        W33863  17.262  13.529   1.288 -0.2628  0.2033 -0.0169
18733W        W33864  13.337  14.361  16.006 -0.1645  0.3662 -0.1139
18734W        W33865  16.791   9.522   2.871  0.0029 -0.2625  0.0314
18735W        W33866   9.108  11.433   3.287  0.0917  0.2667  0.2047
18736W        W33867  17.596   0.861  14.925 -0.1231 -0.0622 -0.1900
18737W        W33868   1.364  11.783   2.455  0.0155  0.0371 -0.2709
18738W        W33869  16.824  17.998   0.204 -0.0258  0.1539  0.3090
18739W        W33870   6.389  13.915  10.876 -0.0850  0.3352  0.1420
18740W        W33871  14.628  13.859  13.902  0.3287  0.1685  0.1413
18741W        W33872   5.196   8.254  15.088 -0.2053  0.0349 -0.0341
18742W        W33873   8.241   5.065   0.711 -0.0978  0.1547  0.1169
18743W        W33874  16.737   3.228   1.587 -0.1266 -0.3171  0.0294
18744W        W33875   8.879  12.980  15.567 -0.3277 -0.0766 -0.1089
18745W        W33876   3.976   5.813   4.158 -0.3211 -0.1519 -0.1513
18746W        W33877  13.294   7.781   3.369 -0.2773 -0.0960 -0.1527
18747W        W33878  17.656   2.386  13.082 -0.1210  0.1838 -0.1050
18748W        W33879  17.366   3.425  12.491  0.0355  0.1770 -0.0392
18749W        W33880   9.376   7.716  16.158  0.2067 -0.1074  0.2265
18750W        W33881   7.877  10.317  13.876  0.2574 -0.3049  0.2797
18751W        W33882   0.199  17.881   5.320 -0.0277 -0.4191  0.0728
18752W        W33883   6.202  11.745   4.176 -0.2247  0.1681 -0.0741
18753W        W33884   8.682   7.277  16.064  0.2944  0.1282  0.1388
18754W        W33885  17.741  13.466   3.842  0.1420 -0.3596 -0.2188
18755W        W33886  16.921  15.242  15.856  0.0219  0.0658 -0.2162
18756W        W33887   2.465  13.487   0.233  0.0590 -0.2047  0.0194
18757W        W33888   4.125   1.641   1.909  0.2371 -0.1915 -0.0716
18758W        W33889  14.213  10.059  11.832  0.1521 -0.0955  0.0516
18759W        W33890   7.374   7.255   1.723 -0.1593 -0.1555 -0.0967
18760W        W33891   0.373   8.412   4.824 -0.1044  0.2717 -0.0766
18761W        W33892   7.034   0.817   2.666  0.0854 -0.0466  0.1800
18762W        W33893   0.385  12.429  15.969  0.2512 -0.1078 -0.1959
18763W        W33894   5.442   7.821  14.862  0.1086  0.1136 -0.2602
18764W        W33895   6.101  13.800  12.631  0.1563  0.0897  0.1727
18765W        W33896   0.629  16.750   4.357 -0.3538 -0.0877 -0.0392
18766W        W33897   5.423   4.740   6.340  0.4787 -0.0214  0.0661
18767W        W33898   8.320   8.650  11.223  0.2200  0.0063 -0.0921
18768W        W33899  16.815  16.464  12.839  0.1658  0.0079 -0.0097
18769W        W33900   8.088   1.664  14.450  0.1339  0.2008  0.0631
18770W        W33901  11.219  17.968  12.710  0.2520  0.0393  0.2052
18771W        W33902  12.381  10.164   5.150 -0.2337  0.1878 -0.2436
18772W        W33903  16.661   4.858   1.132 -0.0656 -0.0014  0.0282
18773W        W33904  12.115  13.001   3.193 -0.0181  0.2749  0.1466
18774W        W33905  17.713  15.600  14.035  0.2036 -0.1610 -0.2584
18775W        W33906   7.082  15.734  12.324 -0.1838  0.2056  0.0851
18776W        W33907   6.858  10.203  12.974  0.0942 -0.0536  0.1319
18777W        W33908  16.813   7.022   4.441  0.0027  0.2233  0.4457
18778W        W33909   9.641  16.547   0.466  0.0557  0.0063  0.1286
18779W        W33910   0.129  11.599   0.177  0.1221 -0.0118 -0.0474
18780W        W33911   7.538  16.448   1.582 -0.1488  0.0136  0.2121
18781W        W33912   2.880   8.608  12.516 -0.3028  0.0911 -0.0819
18782W        W33913   2.921   7.109  11.451  0.0109 -0.0152  0.1140
18783W        W33914   9.222   0.760  12.347  0.0642  0.0446 -0.3108
18784W        W33915   5.581  12.903   5.000 -0.3527  0.0761 -0.1309
18785W        W33916  10.417   6.188   0.575 -0.1537 -0.1534  0.0598
18786W        W33917   0.598   8.086  10.368  0.0773 -0.2258 -0.1210
18787W        W33918  13.489  12.351   4.194  0.0787  0.1422  0.0570
18788W        W33919   1.737  14.649  12.221  0.0182 -0.1148 -0.2246
18789W        W33920   4.448   2.710  14.431 -0.0679  0.0256  0.1556
18790W        W33921   3.642  17.617   0.670  0.2883 -0.2630  0.2447
18791W        W33922  12.108   2.715  12.823 -0.1035 -0.3453 -0.2790
18792W        W33923   0.162   9.071  10.344  0.0330 -0.0077 -0.0228
18793W        W33924   6.135  11.056  13.806 -0.2393 -0.2253  0.1970
18794W        W33925  12.026   0.546   1.412 -0.1493  0.1399 -0.1026
18795W        W33926  11.966   3.301   2.324  0.3538 -0.0992  0.0505
18796W        W33927   5.382   6.563  13.399  0.1144  0.1511  0.0628
18797W        W33928  16.081  16.355   3.009  0.0180  0.1689 -0.0702
18798W        W33929   2.994   0.929  13.470 -0.0010  0.1950  0.2954
18799W        W33930   5.338  14.945   0.072 -0.1526 -0.0028  0.0564
18800W        W33931  13.820  16.279  11.262 -0.5048 -0.3726 -0.0145
18801W        W33932  11.957  11.233  13.833  0.0192 -0.1423  0.2480
18802W        W33933   2.533  13.217  11.698  0.3196 -0.2560 -0.2561
18803W        W33934  16.542   6.293  15.559 -0.0845 -0.2963  0.3875
18804W        W33935   8.383  16.835  13.478 -0.1436  0.1241  0.1002
18805W        W33936  14.451  14.400  13.127  0.0758 -0.1197 -0.2976
18806W        W33937   5.013  16.388  13.759 -0.1183  0.2344 -0.0092
18807W        W33938   3.626   4.856  12.822  0.2591  0.1894 -0.2179
18808W        W33939  16.493   5.235  14.511 -0.0509 -0.0805  0.3052
18809W        W33940  15.299  15.185   0.450  0.0157 -0.1749 -0.0543
18810W        W33941   1.480  15.571   4.742 -0.1429  0.2557  0.1384
18811W        W33942  14.108   9.303  12.628  0.2048  0.1098  0.0653
18812W        W33943   2.456   6.500  12.888  0.3850 -0.0504  0.2789
18813W        W33944  14.677   5.708   0.111  0.1045  0.0200 -0.1916
18814W        W33945   9.574   7.723  13.169 -0.0473 -0.1308 -0.1390
18815W        W33946   3.489  11.676  11.280  0.0955  0.0336  0.1768
18816W        W33947   2.874  10.842  14.634  0.0191  0.1148  0.1328
18817W        W33948   7.908  11.866   3.707  0.1603  0.0896 -0.2315
18818W        W33949   8.108   5.951   3.570  0.2253  0.3828 -0.1845
18819W        W33950   8.263   3.384   5.014 -0.0981  0.0025 -0.0163
18820W        W33951   3.279  15.502  11.251 -0.0516  0.1437  0.1796
18821W        W33952   3.897   6.197  11.097 -0.2368 -0.0681  0.0028
18822W        W33953   0.182  11.058   1.678 -0.0505  0.0806 -0.2606
18823W        W33954   1.090  11.470  16.123  0.2819 -0.0356 -0.0135
18824W        W33955   6.933  11.503  11.064 -0.0194  0.1560 -0.0089
18825W        W33956   4.903  10.809  11.795 -0.1002 -0.2608 -0.2863
18826W        W33957  17.616   4.512  14.073 -0.2170  0.0751 -0.2320
18827W        W33958   5.645  13.730  12.844 -0.0895 -0.0820  0.0283
18828W        W33959   7.554   3.614   1.490 -0.2285  0.5023 -0.0691
18829W        W33960   7.313   1.786  11.380 -0.2931 -0.0518 -0.0916
18830W        W33961  12.291   8.762  11.112 -0.0135  0.0726  0.0656
18831W        W33962   6.965   2.537  15.983  0.0754  0.3000 -0.0790
18832W        W33963  10.267  13.401   5.756  0.0444 -0.0740 -0.2126
18833W        W33964   2.808   8.022  13.707 -0.2005 -0.1323  0.1646
18834W        W33965   1.971  17.479   2.877 -0.0004 -0.1583  0.1619
18835W        W33966   0.032  17.317   1.476 -0.2898 -0.0448  0.1228
18836W        W33967   9.722  10.379   3.801 -0.0462 -0.4024 -0.1718
18837W        W33968  10.241  16.823   1.310  0.0950  0.1161 -0.2574
18838W        W33969   3.767   2.211   4.121  0.1262 -0.1635  0.0273
18839W        W33970   9.264   1.826   3.029  0.2175  0.1963  0.0592
18840W        W33971   1.598   3.848   0.807 -0.0995  0.1552  0.2479
18841W        W33972   8.745   4.428   0.183 -0.1214  0.4452  0.1912
18842W        W33973   1.876   9.824  15.071  0.0539  0.2125 -0.2968
18843W        W33974   5.718   0.396   4.037  0.0731  0.3004  0.0951
18844W        W33975   8.032  14.116   0.711 -0.2181  0.1396  0.0401
18845W        W33976  13.380   6.638   0.426  0.1771 -0.1775 -0.1420
18846W        W33977  11.497   7.846   2.714  0.0453 -0.3697  0.2502
18847W        W33978  10.772   2.383  12.499  0.1152  0.2783  0.2664
18848W        W33979   3.913  16.974   1.848 -0.1747  0.0804 -0.0293
18849W        W33980  16.151   6.755   1.035 -0.1015 -0.4653  0.1061
18850W        W33981  16.408   2.296  11.310  0.0208 -0.2701  0.0331
18851W        W33982  17.309  13.604   0.688  0.0862 -0.2674  0.1592
18852W        W33983   4.441  11.893  16.181 -0.0131  0.2882 -0.2716
18853W        W33984   0.420  16.204   4.868 -0.2127 -0.0837  0.2929
18854W        W33985  17.166  15.054   0.083  0.0289  0.1904  0.1820
18855W        W33986  13.586   5.356  14.499  0.0790 -0.1805  0.2373
18856W        W33987   1.371   3.328   2.991 -0.2192 -0.1722 -0.1724
18857W        W33988  16.623  15.841  14.765  0.2362  0.1944  0.4173
18858W        W33989  15.939   5.244   2.240  0.0490 -0.2280 -0.1568
18859W        W33990   0.070   7.685   5.281 -0.0793 -0.1726  0.2073
18860W        W33991   2.932  16.515   2.655 -0.0722  0.0611  0.1214
18861W        W33992  15.144   5.558   1.017 -0.1502  0.1523  0.2358
18862W        W33993  14.589  11.195  14.563 -0.2108  0.1220  0.0831
18863W        W33994  16.901   6.190   4.534  0.2323  0.1725  0.0879
18864W        W33995  16.742   0.202   5.344 -0.0844 -0.5183  0.0539
18865W        W33996   5.640   1.333   1.930 -0.2819 -0.1980  0.1796
18866W        W33997  14.387   2.949  12.070 -0.1812  0.2060  0.0221
18867W        W33998  11.862   3.200   4.246  0.0548 -0.0984  0.1604
18868W        W33999   2.576  14.296   2.740  0.4244 -0.3597  0.0228
18869W        W34000   6.170  12.814   2.827 -0.0931 -0.0399 -0.1990
18870W        W34001  10.819  13.293  11.507 -0.0121  0.0581  0.0648
18871W        W34002  11.783   9.195   4.907  0.1518  0.0946 -0.3618
18872W        W34003  15.564   2.914   0.844 -0.1389  0.0826 -0.0344
18873W        W34004  17.629  13.169  11.098  0.0035 -0.1988  0.0224
18874W        W34005   4.934  10.400   3.322  0.3312 -0.0818 -0.3138
18875W        W34006   6.679   4.632   5.284  0.2841 -0.2074 -0.1478
18876W        W34007  15.341   1.691   5.470 -0.4494  0.0912 -0.2344
18877W        W34008   0.871   8.773  11.262 -0.1245  0.0153  0.0714
18878W        W34009   0.674  15.170   2.965  0.0957 -0.1133 -0.2426
18879W        W34010  16.882   4.476  15.233  0.3957  0.2436  0.0144
18880W        W34011  16.946  16.951  15.768  0.1654  0.2861  0.2784
18881W        W34012  11.841   1.963   3.690 -0.3677 -0.1539 -0.2956
18882W        W34013   6.660  12.743  15.893  0.0649  0.2213 -0.2549
18883W        W34014  15.247   5.105   5.419  0.1423 -0.4301  0.0968
18884W        W34015   1.437  11.807  11.952 -0.0748  0.0635 -0.0323
18885W        W34016  13.556   9.712   5.187  0.1113 -0.1232 -0.0710
18886W        W34017  11.760  16.579   5.115  0.1131  0.3250 -0.2576
18887W        W34018  11.302   7.275   5.338 -0.0545  0.2979 -0.0508
18888W        W34019  10.986   5.898   5.345 -0.1103  0.1014 -0.0611
18889W        W34020  14.360  12.175   0.092  0.0218  0.0862 -0.3482
18890W        W34021   7.999   0.719  11.142 -0.0037  0.0774  0.3218
18891W        W34022   6.621   9.075  14.785  0.0427 -0.0935 -0.4580
18892W        W34023   2.454   7.223   2.892 -0.2109  0.3049  0.1325
18893W        W34024  11.810   0.484   6.633  0.0643 -0.4621 -0.0861
18894W        W34025  15.741  13.317  11.413  0.3426  0.0094  0.3523
18895W        W34026  10.978  12.794  14.203 -0.0101  0.2316  0.1701
18896W        W34027  16.843   6.126  11.494  0.1890  0.0568 -0.2176
18897W        W34028   6.488   6.504   4.731  0.0405 -0.2238  0.0242
18898W        W34029   1.812   7.264   5.788 -0.1643  0.1571 -0.0004
18899W        W34030   6.592   9.409   0.694  0.0826  0.1583 -0.1937
18900W        W34031   0.732   6.976   4.471 -0.0493 -0.0914 -0.2654
18901W        W34032   4.239   4.942   4.028 -0.0205 -0.0142 -0.0730
18902W        W34033  14.686  14.721   5.350 -0.0848 -0.3321  0.0769
18903W        W34034   3.272  16.278  13.276  0.1852 -0.1814  0.0856
18904W        W34035  14.248  14.428  12.628  0.0585  0.1034  0.0652
18905W        W34036   3.100   1.538   2.793 -0.0839 -0.2381 -0.0729
18906W        W34037   4.840  12.700   1.644  0.0075 -0.0435  0.1713
18907W        W34038  11.307  16.675  13.378  0.1852 -0.1390 -0.0057
18908W        W34039   0.198   5.308   4.853  0.1327  0.1507  0.0981
18909W        W34040  16.802   6.653  11.380  0.0381  0.0825  0.0900
18910W        W34041  17.765   2.009  15.473  0.0216 -0.0755 -0.1423
18911W        W34042  17.944  16.132  15.161 -0.1377  0.0486 -0.0624
18912W        W34043  17.060  10.527  15.590 -0.0704 -0.2783  0.0186
18913W        W34044   2.487  11.398   3.582 -0.0498  0.0904  0.0373
18914W        W34045   6.253   7.373  14.134  0.2458  0.0697 -0.0090
18915W        W34046   2.640  16.336   2.185  0.0477  0.0079  0.1881
18916W        W34047  17.576   1.046   3.810 -0.0402  0.0811 -0.0476
18917W        W34048  15.191  17.148  14.472 -0.0946 -0.0464  0.1196
18918W        W34049   5.223   5.186  13.727  0.0508 -0.1813  0.2699
18919W        W34050  17.185  13.145  12.004 -0.1075  0.3481  0.2121
18920W        W34051   6.996   5.197  14.897  0.1173  0.0835  0.0623
18921W        W34052   1.865  17.003   2.952 -0.0388  0.0261  0.1211
18922W        W34053  11.521   5.808   4.559  0.2049 -0.1920 -0.0054
18923W        W34054  17.921  13.498  14.744  0.0947 -0.2637 -0.0112
18924W        W34055   6.336  17.231   4.130  0.2164  0.0285 -0.1443
18925W        W34056   8.942  16.102  15.539 -0.1132 -0.3214  0.2513
18926W        W34057   6.083  15.183  15.116  0.1484 -0.1195  0.1265
18927W        W34058  16.325  12.903  11.145  0.1457 -0.1819 -0.0686
18928W        W34059   5.502  15.433   5.349 -0.1662 -0.1361  0.0384
18929W        W34060   5.696   7.707   4.830  0.0080 -0.1170  0.0054
18930W        W34061   0.548   8.025  14.188  0.1226  0.1216 -0.0294
18931W        W34062   4.413  11.086   9.870 -0.0537  0.3477  0.0492
18932W        W34063   6.037   4.777   2.664 -0.0247 -0.2067  0.0606
18933W        W34064   9.181  11.284   5.429 -0.2021 -0.0675 -0.0717
18934W        W34065   1.801   2.699   0.932  0.2924 -0.1384 -0.2829
18935W        W34066  10.924  14.242   0.265  0.0664 -0.0020  0.0077
18936W        W34067   6.617   7.949  14.164 -0.0288 -0.1616  0.0424
18937W        W34068  12.940   3.990  11.700 -0.1053 -0.0076 -0.0404
18938W        W34069  11.668   5.946   0.556  0.0714 -0.0102 -0.1364
18939W        W34070   4.801   6.023   1.632  0.0500  0.0208 -0.4192
18940W        W34071   8.738   7.711   3.515  0.1026 -0.0288  0.0551
18941W        W34072  14.723   3.862  14.795  0.2883 -0.2358 -0.0771
18942W        W34073  14.845   5.014   4.623  0.0657  0.0733 -0.5305
18943W        W34074   0.536  15.558  11.026  0.1927 -0.1343  0.1047
18944W        W34075  11.259   8.407  12.865 -0.1213 -0.0387 -0.0507
18945W        W34076   0.525   4.550   4.528 -0.2741 -0.0166 -0.1503
18946W        W34077   5.130   5.711  15.548  0.0759  0.0685 -0.0907
18947W        W34078  13.440  16.992   1.587 -0.2437  0.1037  0.3006
18948W        W34079  10.236  13.781  12.760  0.1807 -0.3890  0.0574
18949W        W34080  10.417   4.364  14.607 -0.0662 -0.4506 -0.0934
18950W        W34081  11.298  15.772   0.137  0.2173  0.1204 -0.0311
18951W        W34082   0.215   8.523  15.325  0.0013  0.2086  0.1038
18952W        W34083   4.900   5.697  12.046  0.1603 -0.1561  0.1287
18953W        W34084   9.696  15.394   2.666  0.1056  0.3647  0.2263
18954W        W34085   3.427  14.440  15.035 -0.1009 -0.1500 -0.2514
18955W        W34086   2.641  16.884   2.539  0.2926 -0.1899 -0.2252
18956W        W34087   0.694   1.350  12.363  0.2203  0.1666  0.0449
18957W        W34088  11.467   2.381   3.876  0.4598 -0.1532 -0.1356
18958W        W34089   6.066   1.844   4.364 -0.0777 -0.1546  0.1593
18959W        W34090   3.828   7.566   3.572  0.0313  0.2224 -0.2368
18960W        W34091   1.008   2.203   0.933 -0.0731 -0.1614 -0.2499
18961W        W34092  16.535  10.910  10.610 -0.0087  0.0819  0.0041
18962W        W34093   3.152  14.404  10.430  0.0131  0.4539 -0.1602
18963W        W34094   7.414   6.508  13.380  0.0253 -0.2616  0.1762
18964W        W34095   5.234   8.196  14.036  0.1789  0.1487 -0.0769
18965W        W34096   8.667   5.753   2.037 -0.0123 -0.2350  0.0136
18966W        W34097   5.716   2.981  11.978  0.0127 -0.1013  0.1404
18967W        W34098  15.525   8.294  12.745 -0.1907  0.0070  0.1807
18968W        W34099  17.953   0.909   3.494  0.4411 -0.0621  0.3687
18969W        W34100   4.060   4.113  12.596  0.1149 -0.1898 -0.0057
18970W        W34101   3.821  12.313   3.246  0.0331 -0.1399  0.0968
18971W        W34102   5.751   5.936   4.799  0.2075  0.2179 -0.1302
18972W        W34103   0.153   9.485   5.878 -0.0082 -0.1317  0.2198
18973W        W34104   4.698  12.537  15.552  0.0173 -0.1242  0.0717
18974W        W34105   2.399  14.769   0.702 -0.1267 -0.0433 -0.3029
18975W        W34106  14.788   8.882  13.618  0.2113  0.0764 -0.0677
18976W        W34107   2.601   3.136  15.514 -0.1990  0.1481  0.1536
18977W        W34108   8.000  10.498  11.215 -0.0252 -0.1841 -0.0748
18978W        W34109  16.737  13.062  13.545 -0.1461  0.1228 -0.0302
18979W        W34110   0.343  13.027  10.945  0.0936 -0.0312 -0.0932
18980W        W34111   0.599   3.879  11.390  0.0109 -0.0790  0.0777
18981W        W34112  16.492   0.777   3.607 -0.0260 -0.1410 -0.0399
18982W        W34113   1.450  12.952   3.310  0.2004 -0.1637  0.0961
18983W        W34114   7.469  15.018   3.632 -0.0100 -0.3413 -0.0557
18984W        W34115  12.809   7.920  11.555 -0.2242  0.0761 -0.2088
18985W        W34116   7.931   1.572  15.676  0.0909  0.0774  0.0789
18986W        W34117   0.677  10.947  14.251  0.2276  0.0969 -0.1150
18987W        W34118   3.834  16.327   1.469 -0.0102 -0.3159  0.4977
18988W        W34119   9.879  10.085   2.417 -0.1073 -0.0406 -0.1020
18989W        W34120  16.183   4.903   1.519  0.0352  0.2025 -0.0279
18990W        W34121  13.386  13.474   3.200 -0.0549 -0.0999 -0.0749
18991W        W34122   1.861   3.274   1.102  0.0638  0.1095  0.2082
18992W        W34123   0.207  17.803  11.664  0.2492  0.3665 -0.0175
18993W        W34124  13.290   9.507  11.446  0.2136  0.0142 -0.1319
18994W        W34125   9.915  17.663   0.767 -0.2733  0.1173  0.1761
18995W        W34126  17.476  17.277   5.242  0.1230 -0.2243 -0.0236
18996W        W34127  10.564  13.762  14.434 -0.0319  0.0532  0.0665
18997W        W34128  13.667   5.175   5.532 -0.0609  0.1852 -0.1540
18998W        W34129   4.676  14.795  13.802  0.1637 -0.0608 -0.2494
18999W        W34130   3.831  12.624   0.067 -0.0178 -0.0112 -0.1031
19000W        W34131   1.700  14.982   4.686  0.0726  0.1089  0.2184
19001W        W34132  16.929   7.790   2.324 -0.0977  0.3011 -0.0042
19002W        W34133  14.322  16.082  13.968 -0.0152  0.3482  0.0625
19003W        W34134   5.221   3.662   4.355 -0.3298  0.2818 -0.1148
19004W        W34135   3.940   7.475   2.487 -0.0655 -0.3397  0.1519
19005W        W34136   4.559  16.386   4.219  0.2073  0.0274  0.2400
19006W        W34137   4.174   3.459   1.253 -0.1816  0.0274 -0.0199
19007W        W34138  10.437   2.829   4.665  0.3043 -0.1982 -0.2429
19008W        W34139  17.068   0.727   0.344 -0.2840  0.1589 -0.1102
19009W        W34140  15.537  12.088  15.360 -0.0383  0.3359  0.0632
19010W        W34141   5.629   3.885  13.546  0.0849  0.1675  0.0109
19011W        W34142   3.728   0.379   2.464 -0.1889  0.0828 -0.1293
19012W        W34143  17.252   4.369  12.565  0.3290  0.1457  0.1247
19013W        W34144   7.325   5.298   2.257  0.1276  0.1720  0.2302
19014W        W34145   2.274   0.825  16.015 -0.2598 -0.0232  0.2004
19015W        W34146  11.033  11.181   1.810 -0.0923  0.3462 -0.1202
19016W        W34147  16.522   9.135  14.272  0.2228 -0.0706  0.0559
19017W        W34148  13.573   2.706   0.288  0.1797 -0.2514 -0.1085
19018W        W34149   7.925   2.980   5.202  0.0628 -0.1006 -0.1413
19019W        W34150   6.462   7.789  15.039  0.0207 -0.0451 -0.6306
19020W        W34151   2.492  16.485  15.309 -0.1351 -0.0405  0.1142
19021W        W34152   5.184  16.575  10.149 -0.2923 -0.5154 -0.2539
19022W        W34153   6.764  17.160   4.381 -0.0489 -0.0039 -0.1576
19023W        W34154   9.311  13.172   0.602 -0.0288 -0.1693  0.0043
19024W        W34155   1.212   0.578   1.075 -0.1980 -0.0535  0.2259
19025W        W34156  10.003   1.300  15.957  0.2583  0.0426  0.0219
19026W        W34157  13.474  15.192  12.118  0.0265 -0.2894 -0.1791
19027W        W34158  15.649  11.229   3.335  0.0124 -0.0944  0.0010
19028W        W34159   3.321   9.588   5.648 -0.0966 -0.1885 -0.1367
19029W        W34160   6.500  10.401  10.174 -0.1886  0.1961 -0.1677
19030W        W34161  16.271  12.208   2.350 -0.0958  0.0654 -0.0622
19031W        W34162   9.078   9.447  14.627  0.1732 -0.2478 -0.1214
19032W        W34163  13.053  16.841   2.411 -0.1977 -0.0202  0.0623
19033W        W34164   6.573   8.293   4.114  0.0144  0.2621  0.0043
19034W        W34165   8.518  14.281   2.832  0.3560 -0.0847 -0.1894
19035W        W34166   5.394   1.809  11.313  0.1025  0.3356  0.0502
19036W        W34167  12.420  16.849  15.743  0.1723 -0.0488 -0.2208
19037W        W34168   0.767   2.993   4.175 -0.0705 -0.2017  0.0561
19038W        W34169   7.713  15.391  16.096  0.0266 -0.1047 -0.4781
19039W        W34170   5.303   3.312  14.488 -0.3028  0.0395 -0.3599
19040W        W34171   5.746  13.132   1.505  0.1938 -0.0635  0.0730
19041W        W34172  13.182   0.673  15.912 -0.0979 -0.0718 -0.2362
19042W        W34173   9.932  17.668  15.521  0.0940 -0.1807  0.0832
19043W        W34174   4.304   6.348  12.069 -0.0586  0.1887  0.0186
19044W        W34175  17.540  15.321  16.044 -0.1068  0.1940 -0.2260
19045W        W34176  13.787   6.365  13.588 -0.2211 -0.1255  0.5204
19046W        W34177  16.219  13.509  11.398 -0.1333  0.0999  0.3935
19047W        W34178  12.722   2.192   1.886 -0.0111  0.0243  0.4271
19048W        W34179   1.839   2.095  13.152 -0.0130 -0.2328 -0.2294
19049W        W34180   0.254   3.222  12.625 -0.2596  0.0682 -0.1208
19050W        W34181  13.750   3.082  15.201 -0.0396 -0.1658 -0.0564
19051W        W34182   6.437   2.058   2.157 -0.0826  0.1268 -0.0969
19052W        W34183  11.687   3.914   0.502  0.0410 -0.1606 -0.1007
19053W        W34184   6.249   1.612  10.850  0.1173  0.1364 -0.0185
19054W        W34185  17.538  15.215   3.894  0.1690  0.1144  0.3882
19055W        W34186   5.205  17.295   1.419 -0.0159 -0.1934 -0.2234
19056W        W34187   7.587   6.175   5.223  0.0106 -0.0641  0.3550
19057W        W34188  12.392   5.057  11.292 -0.3402 -0.0196 -0.2947
19058W        W34189   1.616  10.534  15.590  0.1708 -0.1350  0.1155
19059W        W34190   5.400  10.879  11.663  0.0281  0.0256  0.3838
19060W        W34191   4.712   8.168   3.357 -0.2599 -0.0553  0.0679
19061W        W34192  14.912   1.220  11.241 -0.1443 -0.1584  0.0561
19062W        W34193  12.733  14.158  13.595 -0.0932 -0.1973  0.0338
19063W        W34194   0.627   6.910   6.612 -0.0734  0.2996 -0.0137
19064W        W34195  12.062  15.463  12.461 -0.2408 -0.1156 -0.0286
19065W        W34196  17.760  14.903   2.215 -0.0763 -0.0202  0.0404
19066W        W34197  15.415  14.362  14.512 -0.2628 -0.1127  0.1736
19067W        W34198  13.519  15.175  15.778  0.4763  0.0640  0.2569
19068W        W34199  10.634  10.494   4.836  0.1138  0.1290 -0.1395
19069W        W34200  17.726  15.625  10.828 -0.2329 -0.1825  0.1324
19070W        W34201   3.728   8.387   3.770  0.2921 -0.1063  0.0087
19071W        W34202  13.918   1.777   0.853  0.2814 -0.1500 -0.0592
19072W        W34203   1.940  15.095  12.005  0.1544 -0.0365  0.2174
19073W        W34204  16.042  16.368  13.672 -0.1111 -0.2616 -0.0441
19074W        W34205  15.896   7.050   2.172 -0.1934 -0.0098 -0.1263
19075W        W34206   0.154   5.646   2.577  0.0845  0.1745  0.0586
19076W        W34207   6.916   1.575  14.299 -0.0605  0.1131  0.2147
19077W        W34208  11.443  10.674  15.566  0.0299 -0.2235  0.1166
19078W        W34209   5.079  14.097  15.029  0.1855  0.2136  0.0930
19079W        W34210   3.401  11.550   2.690 -0.0522  0.2588  0.5597
19080W        W34211   2.267  17.505   4.949 -0.1179 -0.0814 -0.2853
19081W        W34212   9.909  17.874  11.045  0.2004  0.2118  0.0533
19082W        W34213  17.601  16.936   4.281 -0.0128 -0.1667 -0.0417
19083W        W34214   9.610   0.790  12.809  0.1129 -0.2125  0.0616
19084W        W34215   7.367  15.406  11.861  0.1587  0.2736 -0.2495
19085W        W34216   4.958  16.698   1.359 -0.0282  0.2185  0.1458
19086W        W34217   4.491   0.013  12.749  0.1328  0.0193 -0.1099
19087W        W34218   3.369  11.006   4.075  0.2203  0.2116  0.1696
19088W        W34219   2.322   9.591   2.449  0.0403 -0.1644  0.0818
19089W        W34220  17.928   8.887   5.383  0.0086 -0.1354  0.0330
19090W        W34221  15.236  10.994  13.488  0.1041  0.1023 -0.0561
19091W        W34222  13.098  11.342  12.336 -0.0961  0.2534 -0.2223
19092W        W34223   0.913   3.002   2.932 -0.2357 -0.0016 -0.1470
19093W        W34224   4.381   5.116  12.403  0.1798  0.0565 -0.0361
19094W        W34225  12.597   3.374   1.157 -0.1568  0.1207 -0.0916
19095W        W34226  16.802  16.989  12.681  0.1833  0.2565 -0.2617
19096W        W34227  16.010   4.514  12.198  0.3045  0.4732  0.0720
19097W        W34228   6.438  15.511   1.357  0.0243  0.1189 -0.0096
19098W        W34229   9.685   2.120  11.400  0.0137  0.1012  0.0055
19099W        W34230   9.853  16.289  11.758  0.1472  0.0800 -0.1762
19100W        W34231  15.337  16.734  15.860 -0.0259  0.0052  0.0410
19101W        W34232   4.030  10.346   2.141  0.0667 -0.0120 -0.3136
19102W        W34233  10.100   1.717   4.593  0.2509 -0.0482 -0.3031
19103W        W34234  13.799  16.239   0.593 -0.2482 -0.1613 -0.2718
19104W        W34235   5.826   0.188   4.571  0.0816  0.0144  0.2505
19105W        W34236   6.882   2.756  14.883 -0.0903  0.0655 -0.2299
19106W        W34237   1.430  16.207  16.028  0.0239 -0.0557 -0.1402
19107W        W34238   6.391  11.395   1.031 -0.1573  0.0920  0.0280
19108W        W34239   0.556  11.772   1.435 -0.0261  0.0333 -0.0627
19109W        W34240   4.885  12.100  15.256  0.1709  0.1229  0.1021
19110W        W34241   7.776  12.894   2.240  0.1380  0.0757  0.1662
19111W        W34242  16.307   7.871  10.700 -0.1835  0.2632  0.0246
19112W        W34243   2.834   8.300   2.224 -0.1103  0.2764 -0.0783
19113W        W34244  12.120   4.549   1.712  0.2136  0.0939  0.1480
19114W        W34245  10.640  12.644  12.102 -0.1334  0.0808 -0.2189
19115W        W34246  17.648  15.150   0.807  0.0392  0.0946 -0.0779
19116W        W34247  12.003   5.883   1.410  0.1848  0.0756 -0.0151
19117W        W34248  17.836   1.086   4.257  0.0893 -0.2167 -0.1219
19118W        W34249   7.619  11.135   2.576 -0.0033 -0.0630  0.1167
19119W        W34250   2.685   7.470  15.732 -0.1930  0.1934  0.1787
19120W        W34251   3.567   2.805  14.838 -0.1893  0.1049  0.0811
19121W        W34252   7.299  15.205   1.327  0.0486 -0.1228  0.1772
19122W        W34253  13.494  15.372   0.996 -0.1596  0.0243  0.2141
19123W        W34254  16.984  13.894  13.597 -0.3757  0.1141  0.0892
19124W        W34255   9.525  17.905  12.396  0.0603 -0.0860  0.0670
19125W        W34256  15.158   6.913   4.404 -0.0421  0.0266  0.0408
19126W        W34257  10.941   0.652   1.846  0.1649 -0.0748 -0.1649
19127W        W34258   6.239  14.084   3.853  0.1677  0.4372 -0.0820
19128W        W34259   0.126  15.262   1.541  0.1334  0.0293 -0.0726
19129W        W34260   6.609  16.364  12.975  0.0273 -0.0236  0.0115
19130W        W34261   6.055   7.665   3.879 -0.1865 -0.1333  0.0781
19131W        W34262   8.523   6.688  16.119  0.0151 -0.1782 -0.2943
19132W        W34263  10.593   9.526   4.150  0.1237 -0.0646  0.2556
19133W        W34264   3.646  14.388  10.878  0.0140 -0.0061  0.1412
19134W        W34265   5.559   2.139   5.356 -0.0682  0.0610  0.2561
19135W        W34266   9.223  10.605   3.258  0.1920 -0.0843  0.2626
19136W        W34267   6.567  13.985  12.779  0.0630 -0.0996 -0.0889
19137W        W34268   6.019   6.928  11.951 -0.3211  0.0237 -0.5693
19138W        W34269   8.951  12.447   3.272  0.0653  0.3494 -0.2145
19139W        W34270   2.289   1.064   4.944 -0.1502  0.1060 -0.0369
19140W        W34271   3.104   2.757  11.994 -0.2789 -0.1288  0.0255
19141W        W34272  12.633  13.032  16.001  0.0642 -0.1527 -0.0924
19142W        W34273   3.268   1.946   3.086  0.0086  0.0658 -0.1554
19143W        W34274   0.774   8.311  11.427 -0.2607  0.1884 -0.1192
19144W        W34275  11.898   5.913   3.919 -0.1237 -0.2292 -0.1144
19145W        W34276   0.407   2.806   2.144  0.1142  0.0125 -0.1407
19146W        W34277   6.300  13.152  11.555  0.1146 -0.1449  0.1406
19147W        W34278  10.090  15.030  14.440 -0.2668  0.1780 -0.0522
19148W        W34279   1.340  16.810   1.412 -0.0982  0.0848 -0.3828
19149W        W34280   2.106  11.722  13.680 -0.1378 -0.0780  0.0274
19150W        W34281  10.060   4.398   3.769 -0.1735  0.1327 -0.2566
19151W        W34282   1.916   5.746   5.695  0.0327 -0.0421  0.1085
19152W        W34283  11.463   7.574  13.294 -0.2208  0.3599 -0.0935
19153W        W34284   1.750   7.436  12.817 -0.1698  0.1436  0.1127
19154W        W34285   8.538  13.281   2.022 -0.1467 -0.0455  0.1600
19155W        W34286   4.888   2.342   2.181  0.0144 -0.0517  0.0506
19156W        W34287  12.474   1.552  10.896 -0.0413  0.3606 -0.3230
19157W        W34288  12.556  14.002  15.253 -0.0848 -0.1555  0.0218
19158W        W34289  13.658   1.804   3.975  0.0258 -0.1108 -0.1966
19159W        W34290   5.560  11.901   5.658 -0.2714  0.2810  0.0046
19160W        W34291   0.699  12.862  12.393 -0.1798 -0.0881  0.0051
19161W        W34292   8.885   4.458   6.070  0.0058  0.0351 -0.0690
19162W        W34293  17.438   5.546   5.350 -0.0957  0.2134 -0.1331
19163W        W34294   0.192   3.227   3.772 -0.2517  0.1451  0.0813
19164W        W34295   6.317   5.906  11.287 -0.1840  0.1560  0.1386
19165W        W34296  17.557  16.404   4.380  0.0479  0.0846  0.3700
19166W        W34297   5.863  14.294  13.974 -0.0609  0.1380 -0.1438
19167W        W34298   3.917   7.801   1.117 -0.2736 -0.1294  0.1854
19168W        W34299   4.713  15.691   2.910  0.1054 -0.1598 -0.2434
19169W        W34300   0.465  12.320  11.568  0.2687  0.0184 -0.2823
19170W        W34301   5.998  17.873   0.398 -0.0754  0.3699  0.0794
19171W        W34302   6.936  17.925   2.917  0.2264 -0.0105 -0.0636
19172W        W34303  17.762  14.350   0.137  0.0684  0.1098 -0.1080
19173W        W34304   9.284   6.831   2.068 -0.0986  0.2623  0.1231
19174W        W34305  18.021  18.098   2.900 -0.0351  0.2989  0.0549
19175W        W34306  10.239   5.365   0.832  0.3389  0.3293  0.2255
19176W        W34307   3.431   1.509  15.109  0.1606  0.2964 -0.0103
19177W        W34308   0.712  14.473  11.138  0.0388 -0.3007  0.0929
19178W        W34309  14.525  14.220  14.655 -0.1364 -0.1291 -0.1587
19179W        W34310  11.024  10.982   1.225 -0.2854  0.1496  0.0295
19180W        W34311  12.828  13.762   0.047  0.2197  0.2525 -0.2965
19181W        W34312   4.893   2.824  16.076  0.2920  0.3012 -0.1624
19182W        W34313   2.421   1.146   3.790 -0.3921 -0.1508 -0.0431
19183W        W34314   2.730  12.709  11.498 -0.2422 -0.0138  0.0532
19184W        W34315  11.111  10.636   2.139  0.2397  0.1175 -0.0635
19185W        W34316   7.310  11.297  12.955  0.3543  0.3709  0.3337
19186W        W34317   4.239   5.862   0.118  0.0270 -0.0020 -0.3376
19187W        W34318   1.020  17.761  13.414  0.0482  0.2549 -0.1221
19188W        W34319  15.018  14.752   3.501  0.0172 -0.4020 -0.2475
19189W        W34320   3.099   2.135  13.255 -0.0295 -0.1770 -0.4426
19190W        W34321   2.324  14.638  13.628  0.0262  0.4280 -0.3816
19191W        W34322   8.258   0.904   1.251  0.0646  0.0117 -0.1544
19192W        W34323   1.293   7.178   0.215 -0.1444 -0.1121 -0.1705
19193W        W34324  16.322  12.087   4.439  0.2134  0.2082 -0.1656
19194W        W34325   1.655  11.690   2.023 -0.2810 -0.0179  0.1674
19195W        W34326  11.304  18.058   2.624  0.2801 -0.0205 -0.1729
19196W        W34327   3.671  10.581  13.227  0.0348  0.2892 -0.1174
19197W        W34328   8.536   6.927  14.204 -0.1933 -0.0315 -0.1146
19198W        W34329   3.712   0.365  13.116  0.1441 -0.0280  0.1977
19199W        W34330  14.871   4.151   0.506 -0.0885 -0.1174  0.0033
19200W        W34331  12.828  12.214  15.044 -0.0914  0.3199  0.7072
19201W        W34332   4.490   0.173   2.059 -0.1508 -0.0266 -0.3880
19202W        W34333   5.601  10.602   0.502  0.2814  0.1983 -0.2682
19203W        W34334  10.942   2.026   0.496  0.3502  0.2250 -0.0316
19204W        W34335   6.558  16.692   0.747 -0.0502 -0.1494  0.0668
19205W        W34336   1.896   9.720  12.463  0.2182 -0.0438  0.0351
19206W        W34337  17.186  13.989   2.087 -0.1548  0.0232 -0.1648
19207W        W34338   3.969   6.686  11.940  0.0994 -0.2991 -0.0771
19208W        W34339   1.267   5.861  14.727  0.5524  0.1724  0.0589
19209W        W34340  10.245  16.467  10.908  0.2591  0.2330  0.0296
19210W        W34341  17.053  15.207   4.065 -0.2863  0.0127  0.1883
19211W        W34342  12.693  16.808  11.869  0.0273  0.4141  0.3667
19212W        W34343   9.874  12.987  11.114  0.1793  0.0344 -0.0208
19213W        W34344   6.864  10.554  13.911 -0.2031 -0.1055 -0.0601
19214W        W34345   9.624   5.458  13.570 -0.1304 -0.1057 -0.4412
19215W        W34346   2.321   4.996  11.963  0.2119  0.0286  0.3569
19216W        W34347   7.030   3.067  16.147 -0.0301 -0.0651 -0.0813
19217W        W34348  15.014   7.937   2.620 -0.0473  0.1871  0.3898
19218W        W34349  14.490   2.183  15.744 -0.0170  0.0751  0.1618
19219W        W34350   3.678   9.812  15.731  0.1766  0.1977  0.2210
19220W        W34351   7.531   1.656   1.372 -0.4751  0.1769  0.2004
19221W        W34352   3.599   2.634  14.298 -0.1875 -0.1641  0.0964
19222W        W34353   8.234   8.756   3.664  0.0176  0.0871 -0.0607
19223W        W34354   3.775  13.356  14.038 -0.1415  0.3046 -0.1400
19224W        W34355  15.292   3.871  11.795  0.1758 -0.1985 -0.0138
19225W        W34356   3.860   3.534   5.675 -0.0734  0.0489 -0.1387
19226W        W34357  16.473  10.147   5.610 -0.1061 -0.1475 -0.1239
19227W        W34358  14.306   9.174   3.631  0.1442  0.0176 -0.1981
19228W        W34359  10.071  17.071  13.113  0.2944  0.0607 -0.1275
19229W        W34360   8.336  11.769   1.496  0.1340 -0.0624 -0.1435
19230W        W34361  12.028   0.675   2.719  0.0125  0.1598  0.0098
19231W        W34362   5.723   8.238  14.890  0.0476  0.1075 -0.0444
19232W        W34363  15.932  10.720   0.550  0.4406 -0.1079 -0.2028
19233W        W34364   7.845   8.739   1.310 -0.3291 -0.0044  0.0046
19234W        W34365  17.570  15.669  12.956 -0.1622 -0.0027  0.2409
19235W        W34366  15.905  13.449   4.079 -0.1317  0.1997  0.0771
19236W        W34367   0.996  10.757   0.183 -0.1623 -0.0653  0.1500
19237W        W34368  12.564   8.692   2.958  0.2545 -0.1111 -0.2260
19238W        W34369   2.141  10.686   5.290 -0.0611 -0.1489  0.2043
19239W        W34370  13.518  13.628  12.700 -0.0904 -0.1808 -0.0129
19240W        W34371   7.047   8.377  11.898 -0.2074  0.1084  0.1286
19241W        W34372  15.700  10.877  13.620 -0.1183 -0.0438 -0.0177
19242W        W34373  16.332  17.723  11.215  0.3004 -0.0837 -0.0123
19243W        W34374  16.944  17.312   5.343 -0.1910 -0.2433  0.0681
19244W        W34375  10.536  12.100  16.189 -0.2673 -0.0626  0.1098
19245W        W34376  12.141   8.281   1.461  0.0042 -0.1943  0.0949
19246W        W34377  10.243   3.935  13.673 -0.1390 -0.0968 -0.1855
19247W        W34378  18.021  15.274  11.793 -0.2017 -0.2275 -0.2881
19248W        W34379   4.155  15.696   0.169 -0.1237  0.1377  0.0836
19249W        W34380   4.147  15.465   3.891 -0.0708  0.1331  0.0770
19250W        W34381  10.939  14.898  13.922  0.1715  0.2476  0.0601
19251W        W34382   7.596   9.760  10.752  0.1577  0.0341  0.0430
19252W        W34383   0.023  12.174  12.933  0.0286 -0.1568  0.0296
19253W        W34384   3.375  10.662   0.738  0.1628  0.0485 -0.1460
19254W        W34385  14.452  15.129   4.425  0.0900  0.1698 -0.1754
19255W        W34386  10.163   9.355   1.731  0.1156 -0.0962 -0.1361
19256W        W34387  15.497  18.103  11.535  0.1079  0.0814 -0.0622
19257W        W34388  16.078  15.982  15.489  0.0949  0.1589 -0.0515
19258W        W34389  10.645  13.233   0.897 -0.0686  0.0094  0.1530
19259W        W34390  12.435   2.525  11.708 -0.0333 -0.1430  0.1686
19260W        W34391   1.562   6.584  13.267 -0.0503  0.1792 -0.0028
19261W        W34392   7.653  17.224  15.754 -0.0441  0.2493  0.3145
19262W        W34393   7.536   4.509   4.216  0.1154 -0.1107  0.2247
19263W        W34394   2.544  15.645   3.298  0.0239  0.1126 -0.0188
19264W        W34395  10.960   7.357   0.950 -0.3336  0.2930  0.0494
19265W        W34396  11.853   6.312  10.381  0.0120  0.1941  0.1572
19266W        W34397   3.620  12.067  14.109 -0.1300  0.0133 -0.1102
19267W        W34398  17.164   6.494  14.151  0.0565  0.0429  0.0007
19268W        W34399  16.539   5.581  16.007 -0.3322  0.1076 -0.0075
19269W        W34400  15.894   4.480  11.702  0.1080 -0.2401  0.0730
19270W        W34401   1.677  16.198  14.057 -0.1624 -0.3764 -0.0427
19271W        W34402  17.850   2.818   4.519  0.0061 -0.0110 -0.0247
19272W        W34403   9.156  13.881   2.551 -0.1401  0.1179 -0.0918
19273W        W34404  16.222   2.683   2.771  0.1787 -0.2269  0.0194
19274W        W34405  13.081  12.363   2.331  0.2708  0.0582 -0.0059
19275W        W34406  12.346   7.681  13.047 -0.1918 -0.1329  0.0383
19276W        W34407  13.290  15.141  16.238  0.0873  0.0261 -0.0022
19277W        W34408  15.050   1.661  11.030 -0.1018 -0.0557 -0.3680
19278W        W34409   1.493   3.219   0.696  0.3101  0.2363 -0.0430
19279W        W34410  14.995   3.212   2.427 -0.0597 -0.1521  0.1198
19280W        W34411   3.122  10.696   5.232  0.4455 -0.0256 -0.0759
19281W        W34412   5.363  15.785  15.909  0.1196 -0.1534 -0.2010
19282W        W34413  10.658   3.859  16.054  0.0820  0.2909  0.0200
19283W        W34414  12.918   6.031   2.823  0.1002  0.0617  0.1365
19284W        W34415  10.280   0.773  12.937  0.1574 -0.0201  0.1722
19285W        W34416  13.127   9.490  13.251 -0.1264 -0.0703 -0.2868
19286W        W34417   2.542   2.323   0.701  0.0445 -0.2013  0.4800
19287W        W34418   1.853  15.663  13.224  0.0944  0.0133 -0.1015
19288W        W34419   0.785   5.176  11.624 -0.0918 -0.3225  0.1428
19289W        W34420  10.977  12.085  12.464  0.2387  0.1782 -0.3632
19290W        W34421  17.473  12.399   0.504  0.1538  0.0296  0.4250
19291W        W34422  15.458   3.071  11.996  0.1712 -0.1571 -0.2451
19292W        W34423  12.651   1.209   2.561  0.0028 -0.0665  0.0710
19293W        W34424  12.686   6.321  14.439 -0.3530 -0.0505 -0.3296
19294W        W34425  12.151   8.713  10.141 -0.0156 -0.0311  0.1819
19295W        W34426  14.369   5.918   3.451  0.2305 -0.1068 -0.2099
19296W        W34427  15.459  13.262   1.596  0.0396  0.0815  0.0396
19297W        W34428  15.133   3.608   6.340  0.2794 -0.1060  0.4221
19298W        W34429   4.727   5.110   4.156 -0.3043  0.2322 -0.1834
19299W        W34430   6.389   1.434   0.508  0.2030  0.0187  0.0513
19300W        W34431   7.694   9.322   2.259  0.0278 -0.1102 -0.0467
19301W        W34432   7.426   1.754  11.929 -0.1501 -0.2691  0.2822
19302W        W34433  12.810   8.278   2.870  0.1066  0.0358 -0.2666
19303W        W34434  15.821  16.784  12.892 -0.2530  0.0290  0.0659
19304W        W34435   7.317   6.855  11.319 -0.1345 -0.4361 -0.3701
19305W        W34436   6.672  14.947   3.382 -0.0442  0.1123  0.1071
19306W        W34437  10.102  13.809  14.260 -0.2856  0.2085 -0.0357
19307W        W34438   5.804  11.536   4.994 -0.1835 -0.0464 -0.0500
19308W        W34439  10.052   3.885  12.783 -0.0461 -0.0535 -0.2390
19309W        W34440  12.799  12.141  15.960  0.0103  0.0374  0.0851
19310W        W34441   0.908  13.174   0.707  0.0206 -0.1869  0.2308
19311W        W34442   4.971  10.434  13.300 -0.1770 -0.1496  0.1644
19312W        W34443  16.122  11.210   4.623 -0.1252  0.0515  0.1190
19313W        W34444  12.368  11.826  15.153  0.2089 -0.0466 -0.0551
19314W        W34445   6.538  10.018   2.122 -0.2178 -0.0467  0.0459
19315W        W34446   4.269  15.354  13.111 -0.0718 -0.1771  0.1406
19316W        W34447  15.115  15.886   5.097  0.0865 -0.0062 -0.0408
19317W        W34448   8.612   3.982   1.401  0.0436 -0.0100  0.2467
19318W        W34449   7.484  10.123  15.885 -0.0900  0.0163 -0.3789
19319W        W34450   0.465   8.430  12.081  0.0849 -0.0649  0.2838
19320W        W34451  16.457  14.968  14.460  0.1994  0.1936 -0.0826
19321W        W34452   4.574  14.485  15.790  0.0666  0.0055  0.0638
19322W        W34453   5.557   4.160   3.131  0.1955  0.2714 -0.1586
19323W        W34454  12.907  15.496   0.114 -0.0482  0.0647 -0.5249
19324W        W34455   2.808   0.179  11.356  0.1448  0.5725 -0.0290
19325W        W34456   0.558   4.535   2.068 -0.0243  0.1752  0.0396
19326W        W34457   7.323   2.044   3.810 -0.0919  0.0669 -0.4301
19327W        W34458   6.173   8.607  15.622  0.1624 -0.0685  0.0544
19328W        W34459   6.355   6.808   4.281 -0.0629 -0.2279 -0.1284
19329W        W34460  12.830   7.418  15.639  0.1886  0.0764 -0.1273
19330W        W34461   4.938   1.355  11.115  0.1348  0.0921 -0.1617
19331W        W34462  15.996   3.426  10.615  0.3938  0.0014  0.2006
19332W        W34463   6.275  11.263   2.785  0.2563 -0.1036  0.0456
19333W        W34464   5.921   6.372   4.649 -0.0816  0.1655  0.0105
19334W        W34465   8.999  17.422  13.227  0.0172 -0.0223 -0.1003
19335W        W34466   6.626  14.395   3.417 -0.2443 -0.3146  0.0907
19336W        W34467  11.665   0.120   0.805 -0.0634 -0.2395 -0.0922
19337W        W34468   8.082   8.192   0.533  0.4041  0.0860 -0.0965
19338W        W34469  17.982   2.816   0.495  0.0867  0.1151  0.4950
19339W        W34470   0.992   2.400  15.176  0.2103  0.3377 -0.0345
19340W        W34471   9.383  12.050   4.765  0.0949  0.0589  0.0096
19341W        W34472  16.353   6.846   1.491 -0.0586 -0.3903  0.2125
19342W        W34473   5.381   6.567   0.488 -0.3170 -0.0954  0.1484
19343W        W34474   9.071  15.683   4.443  0.0205  0.0166 -0.0274
19344W        W34475   6.490  10.048  11.737  0.0372 -0.1360  0.3937
19345W        W34476  12.083   7.951   0.496  0.0318  0.0114 -0.2158
19346W        W34477   4.382   9.585  14.030 -0.1837 -0.1926  0.0258
19347W        W34478  13.252  15.983   4.683  0.0712  0.4169  0.1635
19348W        W34479  13.991   2.689  14.850  0.0863  0.0982  0.2305
19349W        W34480   1.811  16.798   3.405  0.0664 -0.0567 -0.1786
19350W        W34481   0.226   3.829   4.897 -0.1211  0.1332 -0.1071
19351W        W34482  15.777   8.426   1.062  0.2035 -0.2491  0.1682
19352W        W34483   0.509  11.947   6.070 -0.1340  0.2091 -0.0011
19353W        W34484   2.410   5.111   2.926 -0.0133  0.2706  0.0239
19354W        W34485  14.356   0.303  10.358  0.1902  0.0199 -0.0090
19355W        W34486  12.334   4.615   2.230 -0.2677 -0.1321 -0.2559
19356W        W34487   1.902   3.739  12.702 -0.3353  0.2434  0.0344
19357W        W34488   3.739  11.429   3.296  0.3249 -0.1384  0.2559
19358W        W34489   7.926   5.300  13.194  0.2082  0.0092  0.1147
19359W        W34490  14.172  15.057   2.209  0.0907  0.0444  0.1300
19360W        W34491   4.864   5.669  14.092  0.1184 -0.0154  0.2272
19361W        W34492   8.296   4.611   1.041 -0.1138 -0.4557  0.2845
19362W        W34493   5.950  16.687  13.971 -0.0693  0.0782 -0.1114
19363W        W34494   6.459  17.403   6.338  0.0544  0.0882  0.0898
19364W        W34495   5.560  17.824   0.091 -0.2650  0.1790 -0.0779
19365W        W34496   8.496   1.613   3.466 -0.0931  0.2096  0.0857
19366W        W34497  15.205  11.293   0.403 -0.1481 -0.0349  0.1873
19367W        W34498   7.018   3.007   0.411 -0.2402  0.0377  0.0506
19368W        W34499  12.537   4.258  10.898  0.0568  0.1105 -0.0596
19369W        W34500   9.585   2.757  11.246 -0.0515  0.4104 -0.1083
19370W        W34501   3.400  11.273  13.442 -0.1170  0.0357  0.0789
19371W        W34502  13.833  17.801  15.603  0.0532  0.2090  0.1884
19372W        W34503  14.767  14.837  13.917  0.1212  0.2417  0.5704
19373W        W34504   6.725   7.448  10.549 -0.0572  0.2483 -0.0276
19374W        W34505  17.697  12.248  12.148  0.0407 -0.0764  0.1751
19375W        W34506   3.874  13.462  13.581 -0.1945 -0.3741  0.1892
19376W        W34507  16.297   1.279   0.573  0.0080 -0.0707  0.0674
19377W        W34508   6.983  12.784   4.977 -0.2828  0.0507  0.2116
19378W        W34509  12.919   2.449  10.092  0.0343  0.0631 -0.1021
19379W        W34510   3.708   9.821  12.512 -0.2271  0.0508  0.0480
19380W        W34511   9.770   6.441  13.820  0.0834  0.1611  0.0103
19381W        W34512  16.697   9.580  12.361  0.1558 -0.1289 -0.0293
19382W        W34513  15.042   3.905   2.191 -0.0177 -0.0063  0.0540
19383W        W34514  11.177  12.389  11.320 -0.1970  0.0206 -0.3749
19384W        W34515  16.673   9.162   5.707  0.1164  0.1581 -0.0643
19385W        W34516   5.702   0.419   2.974 -0.0494  0.1328 -0.0749
19386W        W34517   0.536  11.945  15.095  0.1620  0.0908  0.1862
19387W        W34518   9.469   2.293   2.330 -0.1217 -0.1194 -0.0730
19388W        W34519  15.939   4.270   5.460 -0.2219  0.2412  0.0631
19389W        W34520  10.249   5.765  12.084 -0.1069  0.1593 -0.0207
19390W        W34521  10.948  16.300   3.065 -0.1343  0.1951 -0.0781
19391W        W34522   0.349   3.900   0.750 -0.1369  0.2199 -0.1184
19392W        W34523  16.523  12.654   2.183  0.2109  0.0571  0.0810
19393W        W34524   9.893   2.207  12.167  0.1211  0.1018  0.1837
19394W        W34525  15.186  17.945   4.343  0.2430 -0.2006  0.1373
19395W        W34526  17.585   1.896   1.888 -0.1382  0.1604  0.1048
19396W        W34527  14.867   7.799   0.704 -0.1767 -0.0424  0.3336
19397W        W34528   0.043   7.422  13.719  0.0494  0.1221 -0.1675
19398W        W34529   7.395  13.950   0.242 -0.3370 -0.0155  0.1682
19399W        W34530   2.599   7.477  15.149  0.1867  0.0508  0.1569
19400W        W34531   8.615   0.202   6.104 -0.1690  0.1498 -0.2021
19401W        W34532  17.492   2.012   0.194  0.0047 -0.1808 -0.0235
19402W        W34533  16.902   6.194  10.526  0.2228  0.1219  0.0506
19403W        W34534   7.104  11.801  13.989  0.2126 -0.1791  0.0960
19404W        W34535   5.674   8.280   0.495 -0.1949 -0.0895  0.2620
19405W        W34536   4.492   2.493   1.885  0.0819 -0.0767 -0.2009
19406W        W34537  16.598  13.640  11.855  0.3175 -0.1376  0.2736
19407W        W34538   7.903  14.422   1.095 -0.0675  0.1809  0.0261
19408W        W34539  11.827   3.638   1.963 -0.4805 -0.0764  0.0307
19409W        W34540   8.650   8.580   0.767  0.0063  0.2872 -0.0840
19410W        W34541   2.106   0.990   2.535 -0.0133 -0.2638 -0.1220
19411W        W34542   2.627   3.121  11.346 -0.0677 -0.0503  0.0147
19412W        W34543   9.265   5.639  11.552  0.0282 -0.0226  0.1096
19413W        W34544  11.375   5.330  15.570 -0.2134 -0.1833  0.1364
19414W        W34545   3.837  10.670  15.210 -0.1220 -0.0269  0.0979
19415W        W34546   3.497  14.986  14.882 -0.1588 -0.0372  0.2870
19416W        W34547   5.113   6.185  14.704 -0.1617 -0.3005  0.2265
19417W        W34548   1.305   6.061   2.453  0.0503  0.0290 -0.1545
19418W        W34549   7.923   4.733  12.094  0.1844  0.3975 -0.1102
19419W        W34550   8.944   1.862   3.503 -0.1159  0.1696  0.2898
19420W        W34551   1.593  14.644   5.124  0.0258 -0.0595 -0.0736
19421W        W34552  16.404   4.654  11.819 -0.1095 -0.0709 -0.1116
19422W        W34553   0.728   7.198   4.953  0.2051  0.0634 -0.1457
19423W        W34554  14.020  17.168   1.549  0.1770 -0.0126  0.1523
19424W        W34555   4.478  11.765  13.402  0.1440 -0.0325 -0.2159
19425W        W34556  15.554  17.974   3.526  0.2408 -0.1714 -0.0371
19426W        W34557  16.383   8.382  15.699  0.0244 -0.1303 -0.3111
19427W        W34558   5.670  13.780  13.362 -0.0068  0.0851  0.3018
19428W        W34559   0.599   4.515  13.138 -0.3445 -0.1781  0.1065
19429W        W34560   6.702  13.374  11.195  0.1072 -0.1156 -0.4733
19430W        W34561  14.534  15.596   3.418  0.1186 -0.2099  0.0464
19431W        W34562   0.997   1.525   4.534  0.1313 -0.1546  0.1580
19432W        W34563   3.356  10.765  13.605 -0.1530 -0.0638  0.2016
19433W        W34564  16.245   6.924  12.119  0.0540 -0.3140 -0.1890
19434W        W34565  10.586  14.066  15.246  0.5575  0.1341  0.2219
19435W        W34566  17.304  11.190  16.051  0.1184 -0.0840 -0.1927
19436W        W34567   0.861   2.631  15.732 -0.2365  0.0050  0.0657
19437W        W34568  16.364  14.609   2.102 -0.0601 -0.0676  0.3724
19438W        W34569   5.700  17.603   2.711  0.0559 -0.0223  0.0815
19439W        W34570   0.024  12.549  14.392  0.0680 -0.0406 -0.2882
19440W        W34571  10.286   1.628   2.848  0.0719 -0.1010  0.0110
19441W        W34572   9.735   0.550   0.542  0.0133  0.0850  0.0367
19442W        W34573  11.267   4.847  15.749 -0.1948  0.2025  0.1054
19443W        W34574  10.122  16.990   6.387  0.1841  0.0301  0.0175
19444W        W34575  17.139  10.635   5.789 -0.0308 -0.2398 -0.0881
19445W        W34576   7.743   3.607   2.558 -0.0882  0.0128  0.1667
19446W        W34577   9.639  15.398   5.043 -0.1019 -0.3527 -0.0711
19447W        W34578   4.024  11.608   0.281  0.3323  0.3383  0.1672
19448W        W34579   3.031  16.649  10.755  0.0981 -0.0599 -0.0090
19449W        W34580  17.226  10.358  15.127 -0.1222 -0.0256  0.1419
19450W        W34581   2.209  12.608   4.371  0.1578  0.0014  0.0759
19451W        W34582  14.745   7.713  16.054  0.0429 -0.0395 -0.0338
19452W        W34583   3.807   8.377   0.829  0.0731 -0.2630 -0.2965
19453W        W34584   0.381  11.556  15.388 -0.4071 -0.1273  0.2667
19454W        W34585   6.098  14.535   4.868 -0.1182 -0.1461 -0.0351
19455W        W34586   3.573   5.718   5.026 -0.4197  0.0679 -0.1976
19456W        W34587  11.857  14.845   2.537  0.0610  0.0912 -0.0664
19457W        W34588   6.323   7.785   1.346 -0.1025  0.0257 -0.0188
19458W        W34589   5.539   3.879  15.145  0.0137 -0.0855 -0.2273
19459W        W34590   5.358   9.357  11.289 -0.4412  0.0564  0.1014
19460W        W34591   8.587   3.906   2.571  0.2470 -0.1352 -0.0971
19461W        W34592   9.808   3.318   5.271  0.2953  0.1191  0.0124
19462W        W34593  12.125  15.739   2.682 -0.2673 -0.0248  0.1406
19463W        W34594  10.802  12.223   4.029  0.0325 -0.0004  0.0901
19464W        W34595  10.506   0.665  12.440 -0.0651 -0.1595  0.0608
19465W        W34596  12.466  10.905  11.303 -0.1598  0.1873  0.0009
19466W        W34597   3.292   9.862   1.561 -0.1269 -0.0495  0.2720
19467W        W34598   8.024   3.991  12.403 -0.1448 -0.1843 -0.0857
19468W        W34599   4.246   1.002   3.173 -0.0810 -0.1258  0.0925
19469W        W34600   9.421   7.736   2.082  0.2415 -0.2494 -0.1648
19470W        W34601   2.809  13.325   2.750  0.0379  0.1460  0.0444
19471W        W34602  13.386  13.921   1.895 -0.1187 -0.1447  0.0014
19472W        W34603  17.031   7.640   2.813  0.0043 -0.0310  0.0478
19473W        W34604   8.123   0.866  14.242  0.0445  0.2171 -0.0723
19474W        W34605  12.307  17.286   5.068  0.4369 -0.0511 -0.0037
19475W        W34606   5.305   6.621   1.020 -0.0322  0.1970 -0.1668
19476W        W34607   9.690   7.845   3.590  0.0403 -0.1565  0.2622
19477W        W34608  15.704  10.017  15.395 -0.0268  0.2044  0.1799
19478W        W34609  12.770  13.733  13.348 -0.1096 -0.0670  0.1268
19479W        W34610  17.095   3.547  11.506 -0.0911  0.0764 -0.1786
19480W        W34611  15.790  11.912   1.759  0.0553  0.1929 -0.0483
19481W        W34612  14.507   5.261   4.129 -0.1206 -0.1852 -0.2357
19482W        W34613   6.337  13.813   2.845 -0.2543  0.0240 -0.1537
19483W        W34614  13.851   3.459   0.861 -0.0036  0.0212 -0.0332
19484W        W34615   5.592   5.241   6.066  0.0054 -0.0532  0.2178
19485W        W34616  17.696   5.933  11.161 -0.2027  0.0042  0.1126
19486W        W34617  10.957  10.917   4.750 -0.0192 -0.1308  0.1955
19487W        W34618   3.755   1.532  13.422  0.0902 -0.3279 -0.2147
19488W        W34619   8.814  10.194   5.122  0.0392  0.0137 -0.1142
19489W        W34620  11.619   4.692   1.776  0.1367  0.3495  0.1186
19490W        W34621   3.229   9.797  16.045  0.1872  0.1368 -0.1497
19491W        W34622  15.778   7.769   2.867  0.0047 -0.3761 -0.1496
19492W        W34623   0.699  14.605  15.692 -0.0257 -0.2132  0.1952
19493W        W34624   3.985  14.127  12.300  0.0211 -0.0320  0.4259
19494W        W34625   2.943   3.507   1.911  0.0847  0.1774  0.0695
19495W        W34626   0.238   9.389   1.898 -0.1771  0.1158 -0.1357
19496W        W34627   5.234   6.231   4.641  0.0611 -0.0207 -0.1689
19497W        W34628   4.475  15.131   3.631  0.1080 -0.0804  0.0523
19498W        W34629   0.935   5.423  13.152 -0.2463 -0.0663 -0.0727
19499W        W34630   0.529  10.752   5.830 -0.2210 -0.0588 -0.0195
19500W        W34631  15.119   7.323   4.643 -0.0899 -0.0986  0.2762
19501W        W34632   1.319  13.357  12.193 -0.3349 -0.1497  0.1361
19502W        W34633   7.139   5.160   1.787 -0.5601 -0.0743 -0.1285
19503W        W34634  15.813   6.654   4.861 -0.1774  0.0839  0.1351
19504W        W34635   7.436   1.826  12.983 -0.2000 -0.1223  0.2976
19505W        W34636  17.395   8.561   0.451 -0.2504 -0.0868  0.1097
19506W        W34637   0.965   0.635   4.958 -0.0376  0.0974 -0.3042
19507W        W34638  12.107   4.032  12.821  0.2558  0.2803  0.1657
19508W        W34639   1.324   7.936  14.593 -0.0215 -0.0091  0.2544
19509W        W34640  14.145  12.229  15.263 -0.0895 -0.0824  0.1563
19510W        W34641   4.471   8.648   0.063  0.0188 -0.0458 -0.2971
19511W        W34642  14.089   1.029   4.575 -0.2201  0.1479  0.0888
19512W        W34643  17.757   5.825   1.720  0.1332  0.2966 -0.2555
19513W        W34644   6.798  13.144  11.648 -0.0138  0.1320 -0.0631
19514W        W34645   9.570   7.211   2.142 -0.3351 -0.0573 -0.2176
19515W        W34646   7.045   7.854  14.386 -0.1689 -0.1254 -0.1010
19516W        W34647   0.450  16.947   3.134  0.0723  0.1669 -0.0777
19517W        W34648   8.931  15.199   2.210  0.1118  0.0297  0.3266
19518W        W34649   7.110   6.923  11.983 -0.0826  0.1219  0.1371
19519W        W34650  14.201  13.537   4.886  0.0982  0.1395 -0.3285
19520W        W34651  10.378   1.204  12.505  0.0509  0.1074 -0.1046
19521W        W34652  17.003  15.549   0.058  0.0979 -0.1576 -0.0794
19522W        W34653  12.621  10.354  11.569 -0.1614  0.0318 -0.0252
19523W        W34654  13.865  10.535  15.205 -0.0551 -0.0478  0.3615
19524W        W34655   0.004   9.071   2.749 -0.0337  0.2165 -0.0725
19525W        W34656  15.646  12.532   2.439  0.0254 -0.2544 -0.2863
19526W        W34657   1.654  10.898   4.532 -0.0452  0.1396  0.1380
19527W        W34658  13.448   8.687   5.120 -0.0108 -0.2939 -0.0818
19528W        W34659  15.093  14.780   1.118 -0.1563 -0.0516 -0.0585
19529W        W34660   4.741  13.740  15.173  0.1269  0.3176 -0.0353
19530W        W34661  17.369   5.278   2.652 -0.0561 -0.1567  0.2618
19531W        W34662  13.032   9.168   1.767 -0.1133 -0.1731  0.0801
19532W        W34663  17.605   8.273   4.143  0.0521 -0.1111 -0.3905
19533W        W34664  14.608  13.086  13.263  0.0423 -0.2394  0.0585
19534W        W34665   0.368   0.597  13.477 -0.0350  0.2599 -0.1409
19535W        W34666  11.890  16.646  13.327 -0.1055 -0.2344 -0.0349
19536W        W34667   9.530  12.420   3.272  0.0048  0.1661  0.0259
19537W        W34668  13.526   4.400  16.045  0.0351 -0.1411 -0.0098
19538W        W34669   1.419  14.260  12.747 -0.0275 -0.1653  0.1099
19539W        W34670   1.266  18.021   3.938 -0.3068 -0.0874  0.1940
19540W        W34671   5.347  15.353   3.083 -0.2602  0.0614 -0.1795
19541W        W34672   9.613  12.482  15.427 -0.2953 -0.3625  0.0629
19542W        W34673   5.150  17.384   5.509 -0.1745 -0.1883  0.0057
19543W        W34674  12.547  17.524  12.613  0.2667 -0.1461  0.0883
19544W        W34675   1.626   5.116   2.096  0.0846 -0.1419 -0.0581
19545W        W34676   0.412   1.794   5.207 -0.1351 -0.3101 -0.0381
19546W        W34677  14.422   5.297  12.237  0.1264  0.1067 -0.3399
19547W        W34678   6.527  16.223   0.101 -0.0418 -0.0935  0.1018
19548W        W34679  17.122  12.911  13.254  0.5505  0.1187 -0.1059
19549W        W34680   5.237  17.150  13.449 -0.0433  0.0222 -0.3133
19550W        W34681   8.969  11.786   4.857 -0.1792 -0.0740 -0.0084
19551W        W34682   2.920  11.317  10.907 -0.0208  0.3672 -0.2183
19552W        W34683  13.063  15.437  11.971  0.1597  0.1483 -0.2010
19553W        W34684   9.918   2.982  15.452 -0.3103  0.2922 -0.0118
19554W        W34685   6.978   6.891  15.536  0.1815 -0.0357 -0.1772
19555W        W34686  14.261   4.791  12.933  0.3784 -0.0361 -0.0816
19556W        W34687  10.213  10.307   3.846 -0.0436 -0.0840 -0.0316
19557W        W34688  12.943   7.169  10.816  0.0434  0.0314  0.3726
19558W        W34689  14.580  17.288  12.866  0.1353 -0.0112 -0.2011
19559W        W34690   3.926  13.040   2.978 -0.5088 -0.0801  0.0628
19560W        W34691   1.660   3.731  11.805 -0.2066 -0.0084  0.1344
19561W        W34692   5.523  12.300  14.606  0.1122 -0.0965 -0.1254
19562W        W34693  14.206  17.210   0.945 -0.2231  0.2017 -0.0425
19563W        W34694   4.958   0.487  11.683  0.1318  0.0392  0.0491
19564W        W34695   2.905  11.931   3.930  0.2355  0.2986  0.0608
19565W        W34696  17.525   0.560  12.212 -0.0870  0.1163  0.0709
19566W        W34697   4.465   7.698  14.586  0.1617 -0.1328 -0.0337
19567W        W34698  12.870  17.158  12.295 -0.0110 -0.2139 -0.0602
19568W        W34699   6.136  17.369   0.423 -0.0626 -0.1760 -0.0121
19569W        W34700   1.429   5.998   5.560 -0.0714 -0.0414 -0.0097
19570W        W34701  16.255   5.509  15.602  0.0547 -0.0206 -0.1802
19571W        W34702  15.920  15.203  13.369 -0.0445 -0.1063 -0.1318
19572W        W34703  16.246  14.429  12.155 -0.1223  0.2348  0.0029
19573W        W34704  15.101   0.928   5.628  0.0623 -0.0380  0.1102
19574W        W34705  11.766   6.935   3.057 -0.2475 -0.0789  0.1146
19575W        W34706   6.408   7.661  15.532 -0.3055 -0.1436 -0.0198
19576W        W34707  13.308   6.104  15.281  0.2973 -0.0235 -0.3109
19577W        W34708  17.849  14.441  11.063  0.1392 -0.1813 -0.2230
19578W        W34709   2.991  15.047  15.613  0.0514  0.1843 -0.0283
19579W        W34710   1.380   1.018  11.714  0.0949 -0.1404 -0.0490
19580W        W34711   3.752  15.105  12.455 -0.2108  0.1998 -0.0907
19581W        W34712   6.049  12.273   2.823 -0.1120  0.0394  0.3221
19582W        W34713   4.261  16.488   2.917 -0.1232 -0.3018 -0.0368
19583W        W34714   3.759  17.493  13.378  0.2452  0.2112 -0.1280
19584W        W34715   8.620  12.594   6.139  0.0509  0.1243 -0.2431
19585W        W34716   9.734   0.918   4.175  0.1846 -0.0384 -0.1939
19586W        W34717   2.993   5.507   4.237  0.1649 -0.1077  0.2476
19587W        W34718  16.742   3.558  15.544  0.2792 -0.1451 -0.3996
19588W        W34719   1.840  12.128  10.245 -0.1445  0.1497 -0.2484
19589W        W34720   9.836   4.418  13.776  0.0554 -0.3762  0.3848
19590W        W34721  17.802   9.741   0.685 -0.0557 -0.1990 -0.2060
19591W        W34722  13.583   1.603  10.780  0.1087  0.0787  0.1514
19592W        W34723   3.600  17.163  14.981  0.0940 -0.1982  0.3668
19593W        W34724  14.613  15.366  10.520 -0.2805  0.1016 -0.2196
19594W        W34725   5.323   5.445  12.731 -0.1633 -0.1425 -0.1742
19595W        W34726   8.297   8.564  13.724 -0.0659  0.0578 -0.3146
19596W        W34727   8.389  12.209   0.124  0.1994 -0.1633 -0.0273
19597W        W34728  13.945   9.338  11.003 -0.0933  0.3306  0.1144
19598W        W34729  14.159   6.589   4.259 -0.1288 -0.3307  0.0455
19599W        W34730  11.182   1.706  11.883 -0.0221  0.4488  0.2398
19600W        W34731   6.004  16.230  10.855  0.2305  0.1551  0.0248
19601W        W34732  13.696   5.765  11.302 -0.1280  0.0725  0.0805
19602W        W34733   2.470  13.180   3.051 -0.1224  0.0161 -0.3204
19603W        W34734  18.056  16.699   3.047  0.3096 -0.2617  0.1232
19604W        W34735  11.639   7.370  14.753  0.2362  0.2133 -0.0176
19605W        W34736  15.366  15.474   4.810 -0.0728  0.1309  0.0592
19606W        W34737  11.331   7.179  15.561  0.1381 -0.0490 -0.1857
19607W        W34738   2.520  14.076   3.205  0.1102 -0.0162 -0.0172
19608W        W34739   9.043   9.372   5.156 -0.2479 -0.0415 -0.0152
19609W        W34740   3.063  13.117   1.156 -0.1424 -0.3535 -0.1419
19610W        W34741  11.634  15.802   2.736  0.0602 -0.1901 -0.0695
19611W        W34742   7.902  15.942   2.378 -0.3260 -0.0595 -0.1018
19612W        W34743  17.868   6.257   1.064 -0.2127 -0.0850  0.0122
19613W        W34744  13.726   7.107   0.586  0.0423  0.1304  0.0213
19614W        W34745   1.948   6.373  15.364  0.1539  0.0404  0.1819
19615W        W34746   0.814   6.782  13.884  0.3056  0.0259 -0.1108
19616W        W34747  11.247  17.587   2.206 -0.0594 -0.0567  0.1746
19617W        W34748   7.204   7.051  12.475  0.0156 -0.0063 -0.2343
19618W        W34749   5.112  16.706  11.044 -0.1605  0.0157 -0.2445
19619W        W34750   4.344   1.462  13.109  0.2305 -0.0745  0.0437
19620W        W34751  13.354   6.947   5.659  0.1380  0.1304  0.0426
19621W        W34752  12.284  14.675  13.046  0.0367  0.3954 -0.1164
19622W        W34753   4.097  13.345   9.978 -0.0777  0.1283  0.0456
19623W        W34754   1.388  17.604  15.366  0.1060  0.1466  0.1769
19624W        W34755   4.016  15.199  16.098  0.1101 -0.2457 -0.1474
19625W        W34756   0.746   6.231  16.112 -0.0566 -0.1508 -0.2006
19626W        W34757  16.312   5.653   2.612 -0.1733 -0.2210  0.3602
19627W        W34758   0.068  14.763  14.911 -0.2897  0.1173 -0.0682
19628W        W34759  14.050  14.166  14.952 -0.1110  0.1971  0.1041
19629W        W34760  16.847  14.827   1.970 -0.1023  0.2215 -0.1064
19630W        W34761   2.107   9.539  12.951  0.2362  0.0387  0.0285
19631W        W34762   8.214  13.830  16.162 -0.2228  0.1201 -0.0591
19632W        W34763   0.737   1.686   1.227  0.1360 -0.2786 -0.2754
19633W        W34764   6.479   4.622   2.270  0.0836 -0.0062 -0.1051
19634W        W34765  15.335  10.455   3.399 -0.0794 -0.1309  0.1540
19635W        W34766  17.151   6.102  13.778 -0.1356 -0.0535 -0.3676
19636W        W34767  16.952   5.178   4.824 -0.0329  0.0816 -0.3847
19637W        W34768  11.855  15.195   3.425 -0.1189 -0.1588  0.0141
19638W        W34769   5.585   7.233  16.085 -0.2628 -0.1969  0.0024
19639W        W34770   8.788   3.840  11.044  0.0184 -0.0514 -0.2253
19640W        W34771  13.949   2.743  14.303 -0.1377  0.1404  0.0466
19641W        W34772  10.335   7.216  15.232  0.0440 -0.3536  0.2797
19642W        W34773  12.121  16.234   5.387  0.0771 -0.2569  0.0290
19643W        W34774  11.392   0.400   1.826 -0.2943 -0.0674 -0.2626
19644W        W34775   4.121  15.359  13.637  0.0116 -0.0769  0.1767
19645W        W34776   8.967  17.570  16.061  0.0325 -0.1560  0.1230
19646W        W34777  14.737   8.156   3.505  0.0452  0.1487 -0.0539
19647W        W34778   2.169   9.768  11.565  0.0594  0.0768  0.0924
19648W        W34779   6.410   3.504  15.476  0.0247  0.0353 -0.0490
19649W        W34780   2.528   3.371  14.112  0.0290 -0.0056  0.0559
19650W        W34781   2.795  14.136  15.432  0.1725 -0.0692  0.0271
19651W        W34782  16.748   0.455   3.978 -0.0245  0.3752  0.0681
19652W        W34783   7.268   1.590   3.086 -0.1937 -0.3000  0.2201
19653W        W34784   4.617   8.642  12.622 -0.0546  0.1466 -0.1328
19654W        W34785   3.221  13.062  13.255 -0.3176 -0.0910  0.2559
19655W        W34786   7.427   0.055   3.841  0.1319  0.0267  0.0739
19656W        W34787   9.156  15.509  15.599 -0.0381  0.0228 -0.0990
19657W        W34788   3.040   6.362  14.388  0.1415  0.2136  0.0503
19658W        W34789  13.216   6.828  15.535 -0.2638 -0.0917  0.0990
19659W        W34790   8.005   4.203  11.774 -0.3278 -0.0225  0.1213
19660W        W34791  10.262   9.470   2.745  0.0397 -0.1360 -0.0910
19661W        W34792   3.774   8.812   5.814  0.3999 -0.1036  0.2183
19662W        W34793  14.613  14.149   4.218 -0.0011  0.0892  0.2148
19663W        W34794  16.336  17.614   3.234 -0.1692 -0.1608  0.0287
19664W        W34795   7.508   5.930   3.007 -0.3037 -0.2113  0.0907
19665W        W34796  12.448  15.697   4.621  0.2714  0.1182 -0.0400
19666W        W34797   9.807  13.099  15.375 -0.5215 -0.3083  0.0546
19667W        W34798   0.014  10.526  13.074  0.2077  0.2078 -0.1395
19668W        W34799   5.866  14.054   2.699 -0.1546 -0.1095  0.1293
19669W        W34800   5.985   2.411  11.159  0.3040  0.1794  0.1594
19670W        W34801  12.071  16.283   9.934  0.1397 -0.4354  0.4283
19671W        W34802   9.011  11.777  10.784  0.1049 -0.2715 -0.0037
19672W        W34803   8.787   4.747  11.540 -0.0417  0.1625  0.1059
19673W        W34804  15.056  17.693   1.236 -0.3095 -0.0708  0.0082
19674W        W34805  11.075   1.302  13.917  0.1700  0.3890  0.2366
19675W        W34806  13.254  18.069  14.807  0.2011 -0.3055  0.5086
19676W        W34807   8.540   7.725   1.234 -0.2251 -0.0052 -0.0198
19677W        W34808   1.692   2.207   5.613  0.0138  0.3051  0.1811
19678W        W34809  15.640   6.387  11.292 -0.1508 -0.0721 -0.1664
19679W        W34810   6.873   2.740  10.495 -0.0107  0.1496  0.0368
19680W        W34811   9.931   7.460   0.724  0.2595  0.2033  0.1147
19681W        W34812  17.534  10.687   0.681  0.3116  0.0634  0.2801
19682W        W34813   6.466   7.960   5.206  0.1318 -0.0165  0.0163
19683W        W34814   3.955   3.357  12.560  0.2755  0.1805  0.0621
19684W        W34815  16.812  14.971   3.286 -0.1423 -0.2476 -0.0363
19685W        W34816   2.593   8.811  14.656 -0.1431  0.0823  0.0969
19686W        W34817   6.540  10.690  14.275 -0.1994  0.0629 -0.2526
19687W        W34818   3.572   5.188   0.937  0.3399  0.1311 -0.0218
19688W        W34819  10.748  14.933   1.852 -0.4716  0.0731  0.1054
19689W        W34820  10.699  14.758  15.625 -0.0431  0.0068 -0.3728
19690W        W34821   9.129  13.941  16.173 -0.2568  0.1586  0.3212
19691W        W34822   0.855   1.588   3.084 -0.0756 -0.0342  0.1770
19692W        W34823  13.531   3.426   2.351  0.0246 -0.0583  0.1250
19693W        W34824  13.298  14.249   3.792  0.0876 -0.2531  0.0171
19694W        W34825  18.027   6.224   5.693 -0.0027  0.2794  0.3748
19695W        W34826   1.130   7.823   5.610  0.3005  0.2798  0.2528
19696W        W34827  13.658   6.742  13.267  0.0153  0.0180  0.1910
19697W        W34828   3.469  10.369  15.223 -0.2468  0.2370 -0.0119
19698W        W34829  11.820   4.553   4.893 -0.1314 -0.2480 -0.0950
19699W        W34830  17.029   6.721  13.742  0.2082  0.1559 -0.3379
19700W        W34831  13.498   4.266   4.570 -0.2340  0.0127 -0.0279
19701W        W34832  12.732  17.462   1.512  0.0851 -0.1865  0.1399
19702W        W34833   2.105  11.077   1.453 -0.0321  0.0408  0.2050
19703W        W34834   1.723   5.670  16.110 -0.0565 -0.1382  0.2631
19704W        W34835  11.211  17.114   3.001  0.3644 -0.1240  0.2349
19705W        W34836  12.447   3.409  14.131 -0.0333  0.1858 -0.0350
19706W        W34837  12.169  17.797  11.651  0.2561 -0.1457 -0.0260
19707W        W34838   1.853   8.566   4.169  0.3976 -0.1881 -0.1294
19708W        W34839  17.438  14.872   5.174  0.0712  0.1094  0.0375
19709W        W34840   1.361  12.593  11.375  0.1736 -0.1613  0.1510
19710W        W34841   4.430  14.686   1.250 -0.0577 -0.0319  0.2668
19711W        W34842  16.907  13.146   0.461  0.3105 -0.0058  0.0369
19712W        W34843   8.153   9.606   5.340 -0.1868 -0.0688  0.2128
19713W        W34844  14.344  17.225  16.189 -0.1584  0.0925  0.0293
19714W        W34845   0.370  15.167   3.734 -0.2492 -0.0349 -0.2363
19715W        W34846  15.879  15.117   5.804 -0.0791  0.1605  0.0153
19716W        W34847  11.631   2.625  12.672  0.0435  0.1792  0.0298
19717W        W34848   2.068   7.999   1.217 -0.1747  0.0975 -0.0485
19718W        W34849  11.814   9.744   2.585 -0.0829  0.0570  0.1991
19719W        W34850  11.684  12.534   3.283  0.1464  0.0217  0.0393
19720W        W34851  11.511  18.033  14.062  0.1183 -0.2277  0.0406
19721W        W34852   1.324   0.985   1.594 -0.0774  0.0555  0.3169
19722W        W34853   4.213   8.187  13.775  0.0588 -0.2842  0.0888
19723W        W34854  14.485   7.461  14.906  0.1056  0.3124 -0.1685
19724W        W34855  14.632   5.073   5.411  0.2912 -0.1812  0.3129
19725W        W34856  13.197  13.968   3.168  0.0181  0.0883 -0.1157
19726W        W34857   1.960   4.606   5.926 -0.0380  0.0267  0.2069
19727W        W34858   1.799  12.620  14.507  0.0184 -0.2131 -0.5886
19728W        W34859   4.353  13.157   1.871 -0.0589  0.0156 -0.2711
19729W        W34860  14.888  15.070   3.117  0.2358 -0.0281  0.0021
19730W        W34861   4.960   1.016   5.001  0.0611  0.0247 -0.1209
19731W        W34862   4.158   1.879   2.941 -0.1431 -0.2322  0.0215
19732W        W34863   6.929  11.893  12.270 -0.1728 -0.1308  0.0481
19733W        W34864  10.432   8.255   4.479  0.1001 -0.0671  0.3366
19734W        W34865   8.266   7.834  12.101 -0.1665  0.1520  0.0344
19735W        W34866  11.542   2.586  11.489  0.0254  0.0464  0.0919
19736W        W34867  13.711  16.142   1.614  0.0439  0.4226 -0.0755
19737W        W34868   3.995   1.088  11.269 -0.0170 -0.2144  0.0310
19738W        W34869   7.457  14.944  13.391  0.0276  0.0392 -0.3569
19739W        W34870  17.624   8.343   2.345  0.3744  0.2481  0.0484
19740W        W34871  15.804   6.555  14.068  0.1376  0.1203 -0.1093
19741W        W34872  14.333  12.853   2.327 -0.1205  0.2276 -0.0845
19742W        W34873   9.500  15.711   3.528 -0.1549 -0.2481 -0.2979
19743W        W34874  12.462   4.711   4.105 -0.0696 -0.2328  0.2093
19744W        W34875   6.002   3.584  13.901 -0.0833 -0.0380 -0.0606
19745W        W34876  15.112   0.401   4.864 -0.1614  0.0353  0.0663
19746W        W34877   8.669  14.030  15.430 -0.0462 -0.0772 -0.1944
19747W        W34878   8.485  13.603  11.787  0.1550 -0.0524  0.1230
19748W        W34879  10.369  14.314  15.588  0.1006 -0.4031  0.2062
19749W        W34880   9.678  17.625   3.567  0.0793 -0.1746 -0.2585
19750W        W34881   5.463  15.184  13.814  0.0582  0.0815 -0.1563
19751W        W34882  15.843  14.706   3.144 -0.5295  0.3560 -0.1901
19752W        W34883   6.715   0.368   1.780  0.0894 -0.1488  0.1277
19753W        W34884   1.127  12.875  12.092  0.0243  0.0800 -0.1685
19754W        W34885   5.763  14.875   3.809 -0.1644 -0.2639  0.1936
19755W        W34886   2.738   6.440   4.285 -0.0627  0.3768  0.1317
19756W        W34887   5.994   8.028   3.289 -0.5966  0.1283 -0.0643
19757W        W34888  11.488  14.197   0.381  0.3114 -0.1368 -0.0291
19758W        W34889   4.809   0.500  15.811  0.0588  0.0134  0.4040
19759W        W34890   3.905   2.293  12.217  0.0645 -0.4063  0.3113
19760W        W34891   6.252   8.887  11.544 -0.2302 -0.0956  0.2367
19761W        W34892  11.137   2.757  11.794  0.2165 -0.1926 -0.0017
19762W        W34893   4.421   7.560  15.637 -0.2769  0.1457  0.1696
19763W        W34894   8.068   5.396  15.731 -0.2399 -0.1123 -0.1223
19764W        W34895   7.397   8.961   2.023  0.1861 -0.1883 -0.0054
19765W        W34896   7.017   8.165  12.979 -0.2480  0.0657  0.0441
19766W        W34897   7.576  12.803  11.456 -0.1078 -0.0112  0.0691
19767W        W34898   6.331   0.473   0.796  0.0475 -0.1064 -0.2943
19768W        W34899  13.406  12.108  13.566 -0.1661  0.0693  0.0323
19769W        W34900  14.568   3.369  11.856  0.2316 -0.1991  0.2577
19770W        W34901  14.325   1.781   5.937  0.2064 -0.1210  0.0016
19771W        W34902   8.133   6.589   3.006  0.5213  0.2058 -0.0574
19772W        W34903   1.183   8.642  14.306 -0.1060  0.2743 -0.3949
19773W        W34904  17.499  16.435  13.046 -0.0029 -0.1147 -0.0478
19774W        W34905  14.926  10.202   1.290  0.1754 -0.0353  0.0550
19775W        W34906  10.666   7.968  13.016  0.0968 -0.1068 -0.0898
19776W        W34907   3.305   3.115  13.390 -0.1216  0.2694 -0.0218
19777W        W34908   3.188   7.468   2.340 -0.1154 -0.0476 -0.0708
19778W        W34909  10.083   8.926   1.178 -0.0635  0.0220  0.0864
19779W        W34910   3.093  11.940  13.919 -0.1419 -0.2559  0.2874
19780W        W34911  10.420  17.958  15.466  0.0751  0.0021 -0.0961
19781W        W34912   9.078   9.265  11.151 -0.1739  0.0060  0.2688
19782W        W34913   9.916   5.020   3.176 -0.2946  0.1049  0.1669
19783W        W34914   4.329  16.597  15.218 -0.2977  0.0672  0.2803
19784W        W34915  12.641   7.818  12.224 -0.0658 -0.1549 -0.0838
19785W        W34916   8.197  14.739  11.586 -0.2740  0.2643  0.0979
19786W        W34917   0.697   6.168   0.709  0.1104 -0.0794 -0.1097
19787W        W34918   4.041  16.912  14.291 -0.0861 -0.0680  0.0442
19788W        W34919   2.529  16.942   0.247  0.1515  0.0641 -0.1958
19789W        W34920  17.353   6.952  15.826  0.0091  0.0828 -0.1630
19790W        W34921   9.461  16.355  12.816 -0.0964 -0.4365 -0.1341
19791W        W34922   3.195   9.759  12.895 -0.3729 -0.0816  0.5558
19792W        W34923  17.486  16.397   0.163 -0.0585  0.1040  0.2097
19793W        W34924  17.463  10.618  14.174 -0.0649 -0.3740 -0.0910
19794W        W34925   4.027   5.160  12.811  0.2128  0.1377 -0.1325
19795W        W34926  17.171  12.704   4.398  0.2816 -0.3349 -0.0961
19796W        W34927   3.103   5.117  15.530  0.2129  0.0912 -0.0373
19797W        W34928   0.879  15.317   3.988  0.2456  0.0790  0.0250
19798W        W34929  10.119   5.274   4.442  0.0998 -0.1742  0.0146
19799W        W34930  16.115   3.672  10.216 -0.0368  0.0910 -0.1302
19800W        W34931   4.241   0.906   4.435 -0.0594  0.1294  0.1949
19801W        W34932  14.555   9.136   1.883  0.1126  0.1971 -0.1315
19802W        W34933   3.675  11.961   0.956 -0.2645 -0.1049 -0.0987
19803W        W34934   5.526  17.509  11.175 -0.0923  0.2156  0.0661
19804W        W34935   0.429  16.758  12.689  0.1740 -0.0475 -0.1580
19805W        W34936  16.200   0.579   0.080  0.0900 -0.4346 -0.0338
19806W        W34937  16.149  15.759   2.846 -0.2898 -0.2955  0.1382
19807W        W34938   9.729  10.120  11.418  0.2118  0.1182  0.0642
19808W        W34939   7.352   4.958   5.067  0.1776 -0.1737  0.0414
19809W        W34940   3.061   5.521  14.015  0.2389  0.1536 -0.0081
19810W        W34941  15.928   4.499   0.362 -0.0643 -0.0149  0.0718
19811W        W34942   1.805  16.177  14.806  0.1122 -0.1690  0.0973
19812W        W34943  14.806   0.287   0.144  0.2270  0.0263 -0.0266
19813W        W34944  15.206   2.279  13.355  0.3929  0.0847  0.0070
19814W        W34945   0.993  12.387   1.278  0.0319 -0.0562 -0.2309
19815W        W34946   6.216   3.889  11.162  0.0951  0.1829  0.3069
19816W        W34947  12.408   7.629   0.227  0.0020  0.1336  0.1008
19817W        W34948  11.731   0.218   3.731 -0.2174  0.0877 -0.2228
19818W        W34949  16.552   9.219  13.350 -0.1272  0.0204  0.1734
19819W        W34950   8.599  18.001   4.706  0.0157 -0.1202 -0.1366
19820W        W34951   2.166  13.382   0.731 -0.2831  0.0731  0.0922
19821W        W34952  12.558  15.606  14.289  0.0111 -0.0563 -0.0020
19822W        W34953   3.417   9.415   4.966  0.1679 -0.0074 -0.0790
19823W        W34954   4.348   9.643  10.832 -0.0102  0.2618 -0.0128
19824W        W34955   0.284   3.697  12.396  0.1446  0.0686 -0.0500
19825W        W34956   8.785   5.617  15.026 -0.1180 -0.3593 -0.0217
19826W        W34957   8.044   4.959   5.630  0.2021  0.2308 -0.0563
19827W        W34958   4.713   0.840  16.172  0.0099  0.1736 -0.0147
19828W        W34959   5.046  14.267   3.916  0.0411  0.1403 -0.0176
19829W        W34960  17.573   7.357  15.711 -0.2247 -0.0136 -0.0393
19830W        W34961  15.074  16.069  12.801 -0.0156  0.4062  0.0188
19831W        W34962   0.247   8.676   0.435  0.0292  0.2218  0.1044
19832W        W34963   1.255   0.914   5.261 -0.2469 -0.1679 -0.1316
19833W        W34964   0.815  17.757  10.111  0.0929 -0.0378 -0.0747
19834W        W34965  16.903  13.542   2.034 -0.2140 -0.0266 -0.2126
19835W        W34966  15.904   7.481  13.207 -0.1117 -0.0057 -0.0544
19836W        W34967   3.282  10.842   6.162  0.1624 -0.2790  0.0010
19837W        W34968   2.250  13.432  10.466 -0.0684  0.3179 -0.0061
19838W        W34969   7.927  14.040   5.077  0.0037  0.1628  0.1291
19839W        W34970  13.474  12.541  15.867 -0.1052  0.0452  0.0729
19840W        W34971  13.775   0.385   4.177  0.2761  0.2531  0.0508
19841W        W34972   8.858   1.613   2.689  0.0629 -0.0533 -0.1737
19842W        W34973  17.277   1.308  11.498 -0.3037 -0.0797  0.0748
19843W        W34974  16.830   9.116   2.391  0.3545 -0.0017 -0.0313
19844W        W34975  12.542   6.776  14.155 -0.1730 -0.0619  0.1657
19845W        W34976   4.119   9.442  13.171  0.1024  0.1294  0.0660
19846W        W34977   6.199  13.082   1.788  0.1719 -0.1018 -0.0820
19847W        W34978  16.930  17.526   0.136 -0.1061 -0.0212 -0.1334
19848W        W34979   2.380   5.272  13.180 -0.1938  0.2253 -0.0768
19849W        W34980  11.540   5.443  14.049  0.3313  0.1317  0.0080
19850W        W34981   8.244   3.771   0.055  0.0305  0.0246  0.0474
19851W        W34982   5.869  14.971  15.978 -0.0901  0.0622  0.1538
19852W        W34983  11.241  15.444   2.770  0.2975 -0.2186  0.1100
19853W        W34984   3.799  12.883   0.542 -0.1010 -0.2720  0.2028
19854W        W34985  10.233   1.385   9.972  0.1512 -0.0923  0.0660
19855W        W34986   2.036   1.037   0.200  0.1805 -0.4013 -0.1369
19856W        W34987  10.284  18.052  12.810  0.1893 -0.0439  0.0610
19857W        W34988  12.647   5.744  16.072 -0.1317  0.0737 -0.2081
19858W        W34989   2.620  16.009   1.399  0.1630  0.1997  0.0295
19859W        W34990   9.202  10.479  15.691  0.1236  0.2772  0.1118
19860W        W34991  12.090   1.500   3.207 -0.0926 -0.0005 -0.2789
19861W        W34992  14.492  13.158   4.021  0.1934 -0.1728  0.0520
19862W        W34993  10.947   7.158  11.412  0.0354 -0.0321 -0.1170
19863W        W34994   5.756  10.158   1.322  0.0361  0.1310  0.0285
19864W        W34995   1.003  13.625  10.296 -0.1715  0.0336  0.0017
19865W        W34996   3.514  16.467  12.621 -0.1779  0.1853 -0.1657
19866W        W34997   3.765  11.080  12.317 -0.4910  0.0291  0.2912
19867W        W34998  16.126   4.034   0.390  0.1348 -0.0041  0.0501
19868W        W34999  12.247  18.012  11.161 -0.2052  0.5804 -0.2960
19869W        W35000  14.994  11.373   1.140 -0.2176  0.0138 -0.0618
19870W        W35001   6.306  10.327  14.605  0.0157  0.3451 -0.0365
19871W        W35002   7.214  16.370   4.687 -0.0691  0.0489 -0.1951
19872W        W35003  17.224   6.972  11.110 -0.0156  0.1438 -0.1677
19873W        W35004  11.975   3.023  12.461 -0.0844  0.2200  0.1574
19874W        W35005   4.118  13.660  11.920  0.1524  0.0025  0.0240
19875W        W35006   8.429   3.311   0.037  0.1171 -0.0728 -0.2574
19876W        W35007  17.557   8.821  15.040 -0.3217 -0.0005 -0.3733
19877W        W35008   0.016  16.281  11.339 -0.0804  0.2744 -0.2792
19878W        W35009  16.004   5.619   3.986 -0.3308 -0.0017 -0.2162
19879W        W35010  14.186   7.259   6.255 -0.0525 -0.0657 -0.1521
19880W        W35011   3.292   4.934  15.956  0.1933  0.1783 -0.1102
19881W        W35012  16.518   5.439   4.166  0.0545 -0.1413 -0.2858
19882W        W35013  10.354  16.673  15.001 -0.1616  0.1617  0.0007
19883W        W35014  17.425   0.442   1.255 -0.1757  0.0038  0.0119
19884W        W35015   5.055   0.284  13.026 -0.2649  0.4176 -0.0970
19885W        W35016  14.705  16.881   0.120 -0.0638 -0.2654 -0.0251
19886W        W35017   9.872  15.822  11.609  0.2837  0.0005 -0.0267
19887W        W35018   0.309   0.490  11.217 -0.1319  0.1613  0.1558
19888W        W35019   7.139  14.450   2.776 -0.0190 -0.5051  0.1587
19889W        W35020   7.630   7.855   3.437  0.0074 -0.1682 -0.5260
19890W        W35021  10.824  10.840  13.427  0.2544  0.2072  0.4917
19891W        W35022   7.365  14.632  14.807 -0.0675  0.1458 -0.0139
19892W        W35023   7.315   2.203  16.109 -0.0051 -0.3285  0.1190
19893W        W35024   8.808   3.919   3.082 -0.0363 -0.0100 -0.0046
19894W        W35025   1.973  15.111   1.295  0.1300  0.1133 -0.0013
19895W        W35026   9.739  15.224   1.685 -0.2685  0.2089 -0.2024
19896W        W35027   7.510   5.642  11.877 -0.1359 -0.0769  0.0196
19897W        W35028  11.651   4.940   0.385 -0.1385  0.1434  0.0499
19898W        W35029   9.465  15.022  15.886 -0.3206 -0.2562  0.0106
19899W        W35030  13.962   7.249  14.220  0.1407  0.1862  0.0499
19900W        W35031  17.291   9.700  13.859 -0.2270  0.2699 -0.1059
19901W        W35032   6.223  13.254   5.150 -0.1077  0.2154  0.0468
19902W        W35033  13.141   6.062  16.140 -0.0054  0.3570 -0.0173
19903W        W35034   4.818   6.196  11.166  0.2690  0.1040  0.3980
19904W        W35035   6.484  13.412  13.916 -0.0486 -0.0368 -0.0788
19905W        W35036  15.134   1.836   2.103  0.1055  0.0320  0.0411
19906W        W35037  13.185   5.386   1.449  0.1619  0.1559  0.3810
19907W        W35038   2.055   7.337   0.550 -0.2723  0.1798  0.1141
19908W        W35039   5.281   8.239  14.587  0.2222 -0.0770 -0.1940
19909W        W35040  12.850  11.172   0.797 -0.1794 -0.1170 -0.0304
19910W        W35041  16.075   1.874  11.178  0.4022 -0.0037  0.2369
19911W        W35042   0.193  11.877   0.596 -0.1857 -0.2655 -0.0608
19912W        W35043   4.557  12.754  13.035 -0.1930 -0.0081  0.0203
19913W        W35044   4.813  11.419  14.101 -0.0917  0.1878  0.1702
19914W        W35045   4.446  13.953  14.164 -0.2113 -0.2627  0.2341
19915W        W35046  12.892   0.612  12.163  0.0734 -0.3221  0.0457
19916W        W35047  11.883  13.020  12.650  0.2213 -0.0745  0.0714
19917W        W35048  16.356  15.755  12.372 -0.1503  0.0044 -0.0570
19918W        W35049   1.875   9.164  14.243 -0.2422  0.2207  0.1182
19919W        W35050  11.083  10.806  12.665 -0.0503 -0.2419  0.0704
19920W        W35051   6.647   0.447   3.845  0.1647 -0.2082 -0.1226
19921W        W35052   6.494   7.986   2.451 -0.0544 -0.0157 -0.1456
19922W        W35053   2.844  10.058  15.916  0.1727 -0.1166  0.2035
19923W        W35054  15.573   7.821   2.105  0.1426 -0.0865 -0.0107
19924W        W35055  14.078   3.365  12.008  0.2290  0.2274  0.1472
19925W        W35056   6.681   0.987  11.739 -0.0669  0.0666 -0.2034
19926W        W35057   0.171   8.945   2.216  0.1228  0.1759  0.3091
19927W        W35058  11.013   5.000  16.128  0.1356 -0.0734 -0.0607
19928W        W35059   2.007   6.619   1.109 -0.1507  0.0504  0.2711
19929W        W35060  17.408   7.383   5.687  0.1944 -0.2832 -0.0431
19930W        W35061  14.508   2.141   3.766  0.1217 -0.1069  0.0512
19931W        W35062   3.057   6.868  14.072 -0.1857  0.3395  0.0845
19932W        W35063  16.603   4.755  12.850  0.0309 -0.0486 -0.0572
19933W        W35064   3.574   5.722  11.079  0.1929  0.2922  0.1342
19934W        W35065  15.651  18.063   4.773  0.0105 -0.4188 -0.2685
19935W        W35066   8.766  17.382   1.800  0.2713 -0.2030 -0.0963
19936W        W35067  15.808   0.788  15.357 -0.1368 -0.2424  0.0484
19937W        W35068  11.690  16.209  14.295 -0.0003 -0.0415 -0.0833
19938W        W35069  16.346   8.052  12.510 -0.0192  0.0170 -0.1095
19939W        W35070   0.326  16.387  13.923  0.2634  0.1206  0.1171
19940W        W35071   7.048   1.226  15.746  0.1988 -0.0258 -0.0422
19941W        W35072  11.034  14.054   5.177  0.0358  0.1403  0.0963
19942W        W35073  11.025   6.408  12.968  0.2143 -0.0253  0.2294
19943W        W35074   3.163   0.148  14.414  0.0689 -0.2413 -0.0665
19944W        W35075   6.635   9.368   5.935  0.2699  0.1843 -0.1292
19945W        W35076  14.755  11.620  11.765  0.0493  0.0906 -0.0843
19946W        W35077  11.401   8.890  11.142 -0.2438 -0.1422 -0.0825
19947W        W35078  11.680   6.674  15.190  0.1654  0.0776  0.1841
19948W        W35079   2.085   0.440   2.509 -0.0348  0.5130  0.0651
19949W        W35080  14.363  15.446   4.840  0.0725  0.3330  0.0602
19950W        W35081   8.217   2.746  14.934  0.4668 -0.1540 -0.1450
19951W        W35082  15.189   1.664  14.606 -0.1256 -0.1540 -0.0099
19952W        W35083   9.593   4.712   0.940  0.1492 -0.1997 -0.0641
19953W        W35084   2.688   4.230  14.609  0.0640 -0.1702  0.1793
19954W        W35085   2.272   0.306   1.477  0.0460 -0.0556 -0.4238
19955W        W35086  15.487   9.344   2.833  0.2226 -0.1525 -0.0810
19956W        W35087   4.182   3.289   3.954 -0.0928  0.2083 -0.1683
19957W        W35088  17.843   3.719  13.549 -0.1671 -0.0303 -0.0556
19958W        W35089  15.899  17.566  16.237  0.2881 -0.0637 -0.2492
19959W        W35090   2.753  16.019   5.061  0.1301  0.1228  0.2809
19960W        W35091   1.101   1.888  12.453  0.0158  0.0605 -0.0743
19961W        W35092   1.341  17.833  13.051  0.2995  0.1383  0.1350
19962W        W35093  14.098  16.276  15.438  0.2604  0.0523 -0.0851
19963W        W35094  14.349  16.246   4.183 -0.0619 -0.0568 -0.0049
19964W        W35095  12.216  15.175   5.431  0.2212  0.0016  0.1307
19965W        W35096   5.235   6.809   2.820 -0.3888 -0.0331 -0.3170
19966W        W35097  17.820  15.228  14.984  0.2176 -0.0530 -0.0446
19967W        W35098   1.932  13.606   5.726  0.1018  0.0764  0.2422
19968W        W35099  14.490  10.963  13.958 -0.0548 -0.1840  0.1904
19969W        W35100   2.127   2.596   1.805  0.1163  0.0476 -0.4509
19970W        W35101  15.775   5.739   0.284  0.0995 -0.0801 -0.0333
19971W        W35102   8.648   5.718  13.504 -0.1188 -0.1487 -0.0169
19972W        W35103  12.060   4.178  13.886 -0.0968 -0.0433 -0.0130
19973W        W35104  16.466  12.857   3.056 -0.0734 -0.1923  0.0239
19974W        W35105  13.066   8.635  15.788  0.1696 -0.0954  0.2638
19975W        W35106   8.777  14.285  16.045 -0.0583 -0.0565  0.2156
19976W        W35107   8.526   4.652   0.594  0.2296  0.1329 -0.0285
19977W        W35108  10.569  11.077  11.272 -0.2811 -0.2585  0.2264
19978W        W35109  13.006   7.549  11.183 -0.0690 -0.1443 -0.0720
19979W        W35110  14.358  12.971  14.223 -0.2254 -0.0373  0.2914
19980W        W35111  14.211  14.507  11.163  0.1053 -0.0713  0.1065
19981W        W35112   0.778   1.136   4.159 -0.0039  0.0195  0.1823
19982W        W35113  10.156  15.430  11.188 -0.0476  0.4137  0.0439
19983W        W35114  11.583   9.107  12.049 -0.2699  0.1667  0.2200
19984W        W35115   7.482  14.911  10.224  0.4861  0.0016  0.2611
19985W        W35116   6.174   5.425  10.682  0.2763 -0.0627  0.1247
19986W        W35117   1.197  14.770  10.950  0.2572 -0.2563 -0.2445
19987W        W35118  11.768   3.636   4.884 -0.3270 -0.3970  0.0364
19988W        W35119   5.130   5.181  14.806 -0.3646  0.0203 -0.0723
19989W        W35120   9.657  12.361   2.573 -0.0331 -0.0997 -0.1342
19990W        W35121   1.535  17.711   9.556  0.0723 -0.0763  0.0504
19991W        W35122  17.980   4.840  15.125 -0.1850  0.0719 -0.0260
19992W        W35123   1.831   2.518   5.204  0.2409 -0.0841 -0.0810
19993W        W35124   9.118   4.319  11.536  0.3867 -0.0073  0.0150
19994W        W35125   0.502  17.094  14.358 -0.0487 -0.2800  0.0707
19995W        W35126  12.245   7.039  16.007  0.2392  0.3747  0.0641
19996W        W35127  18.005   3.224  11.464 -0.0409 -0.2524  0.4789
19997W        W35128   1.762  17.455  14.346  0.2011 -0.2929  0.0035
19998W        W35129   3.545   1.353   2.714 -0.0897 -0.1667 -0.1380
19999W        W35130   5.225  16.824  12.455  0.0925  0.3339  0.0701
20000W        W35131  14.973  11.580  15.352  0.0226 -0.5669 -0.6425
20001W        W35132   0.618   8.624   3.352 -0.3618 -0.0527 -0.0056
20002W        W35133  14.841   1.869  16.008  0.4436 -0.0086 -0.2067
20003W        W35134  12.904  10.280  15.861 -0.0094  0.2923 -0.2072
20004W        W35135   6.716   7.924  13.335 -0.2305 -0.3237  0.1384
20005W        W35136  15.074   6.758  15.938  0.0919  0.0664 -0.2617
20006W        W35137   8.829   2.058  11.727 -0.0441 -0.0860  0.0197
20007W        W35138  12.147  12.156  14.126  0.0609 -0.0338  0.2061
20008W        W35139  16.701   0.900  10.828 -0.2461  0.3631  0.1614
20009W        W35140  11.547   3.041   1.961  0.0285 -0.1371 -0.0647
20010W        W35141  16.873   8.697   2.131  0.1969  0.0620  0.3463
20011W        W35142  15.657  14.285  11.148  0.0298  0.0073  0.1467
20012W        W35143  13.940  15.533   1.756  0.0966 -0.3022  0.0283
20013W        W35144  12.329   8.289  12.057 -0.2597  0.0921 -0.1591
20014W        W35145   7.931   7.993  14.355 -0.1566  0.0262  0.1695
20015W        W35146   8.477   2.357   2.241 -0.0689 -0.2047 -0.1101
20016W        W35147   8.976  14.618   0.645  0.2872 -0.0981  0.3497
20017W        W35148  13.043   1.418   0.193  0.1545 -0.1766 -0.0230
20018W        W35149   8.258   2.679  14.360  0.0635  0.3385  0.2505
20019W        W35150  12.620  10.704  14.355 -0.1267 -0.0296 -0.2352
20020W        W35151   3.731   8.614  15.217  0.1764  0.2170 -0.2258
20021W        W35152  14.566  17.033  10.247 -0.1841 -0.0742 -0.0381
20022W        W35153  14.248   1.432   2.789  0.0543 -0.0877  0.0527
20023W        W35154  17.612  17.038   3.399 -0.1127  0.0656 -0.0385
20024W        W35155  15.621  11.400  13.321 -0.0173 -0.1220  0.0031
20025W        W35156  17.780   5.819  10.689 -0.4189 -0.1296  0.1633
20026W        W35157  17.471   9.242   3.642  0.1047 -0.0588 -0.0140
20027W        W35158   2.216   3.753  14.113  0.4629 -0.0086 -0.1690
20028W        W35159  14.995   9.897   2.702 -0.0619 -0.0625  0.0265
20029W        W35160  12.612   2.988  14.476 -0.1267  0.3200 -0.2605
20030W        W35161   1.326  17.357   1.178  0.0179  0.0890 -0.0794
20031W        W35162   7.735  17.113   4.487 -0.0736 -0.0239 -0.3983
20032W        W35163  17.472   6.952   2.197 -0.0058  0.2167 -0.1652
20033W        W35164   9.861   8.020  12.279 -0.1202  0.2059  0.2686
20034W        W35165  11.173  12.240  14.039 -0.2055 -0.2560 -0.0083
20035W        W35166  13.960  11.511  15.828 -0.0331 -0.1518 -0.0271
20036W        W35167  15.735  11.795  13.707  0.1549  0.2669 -0.1503
20037W        W35168  11.790  16.777  15.778  0.2545  0.0639  0.0194
20038W        W35169   3.656  11.416   0.699  0.1607  0.0006 -0.0890
20039W        W35170  16.332   8.569   0.290 -0.0035  0.0176  0.1405
20040W        W35171   9.398  12.277  14.089 -0.1668  0.0650  0.2846
20041W        W35172   6.280   2.551  12.094 -0.1027  0.0158  0.0896
20042W        W35173   3.509   2.497  13.089  0.1803 -0.0243 -0.3326
20043W        W35174  15.452   1.211   5.431 -0.0218  0.1420 -0.1821
20044W        W35175   0.867   9.114  15.689 -0.0168 -0.3204  0.0199
20045W        W35176   6.155   3.117   0.706 -0.0421  0.0148 -0.1625
20046W        W35177   9.092   2.832  13.689  0.1742  0.2506 -0.3442
20047W        W35178   0.922  12.820  14.284  0.0509 -0.3680 -0.1606
20048W        W35179   2.834  14.620   0.886  0.4626  0.0429 -0.1253
20049W        W35180   8.840   2.939   0.197 -0.0040  0.3912  0.0309
20050W        W35181   9.919  16.252  11.254  0.0579  0.2597 -0.2799
20051W        W35182   7.349  10.407   0.613 -0.3185 -0.0126  0.0057
20052W        W35183   5.433   2.568   1.267  0.0021  0.1464  0.1512
20053W        W35184   1.085  14.547   4.919 -0.1966  0.1189 -0.0791
20054W        W35185   9.978  15.007   2.469 -0.2599 -0.0280  0.0329
20055W        W35186   9.652   9.014  12.558  0.0321 -0.0165 -0.1063
20056W        W35187  10.107  11.344   1.525  0.0973 -0.1694  0.0301
20057W        W35188   8.341   4.082   3.241  0.1312  0.0483 -0.0200
20058W        W35189   2.063   6.529   2.641 -0.1589 -0.3368  0.0630
20059W        W35190   6.821   3.110  15.592 -0.2724 -0.3098 -0.1947
20060W        W35191   7.771  17.308  11.414 -0.1615  0.2705 -0.4122
20061W        W35192  12.374   3.420  12.130  0.0366  0.0311 -0.1815
20062W        W35193  17.469  14.658   1.594 -0.0517  0.0867 -0.0353
20063W        W35194   2.658  15.640   3.826 -0.1034  0.0980  0.0773
20064W        W35195  11.901  12.698  15.810  0.0190 -0.2008 -0.0624
20065W        W35196   4.841   1.342  13.225 -0.1219  0.0550  0.0308
20066W        W35197   6.624  10.266  15.217  0.0857  0.3056 -0.0150
20067W        W35198   4.686  16.378  13.395  0.1902 -0.1070 -0.2333
20068W        W35199  12.312  11.354   5.607  0.1898  0.1727  0.3487
20069W        W35200   8.221  17.141   0.659 -0.1181 -0.2760  0.2924
20070W        W35201   4.303  14.647  15.229 -0.1879 -0.1149  0.0711
20071W        W35202  16.408   4.947  12.349  0.0741  0.0765 -0.0749
20072W        W35203  10.692  13.858  11.800  0.0586 -0.0986  0.0659
20073W        W35204  15.452   3.004  13.797 -0.0420  0.0538 -0.1213
20074W        W35205   4.868   6.443  13.744 -0.0281 -0.0417  0.0483
20075W        W35206   6.286   0.610   1.893 -0.0844 -0.2264 -0.0895
20076W        W35207   3.518   5.998   5.492  0.2539  0.1568  0.0524
20077W        W35208   3.583  16.028  10.285 -0.3511  0.1910 -0.1545
20078W        W35209  15.685  16.443  11.099 -0.0776  0.1065  0.0262
20079W        W35210  16.495  10.145   5.071 -0.0911 -0.1834 -0.0057
20080W        W35211   5.516  13.627  15.587 -0.0265 -0.1688  0.0616
20081W        W35212  13.320   2.827  13.639  0.1221  0.2865 -0.3012
20082W        W35213  10.574  14.325  14.699  0.0343  0.0697 -0.0739
20083W        W35214  13.159  11.447   5.575 -0.1399  0.1067  0.0413
20084W        W35215   5.391  16.155  12.097 -0.2315  0.0113 -0.1697
20085W        W35216   1.298  14.546   1.224  0.0169 -0.2403 -0.0166
20086W        W35217  13.339   4.962   1.187 -0.1078 -0.0525 -0.0479
20087W        W35218  15.676  16.574  13.950 -0.2969  0.0035 -0.3238
20088W        W35219   8.614  17.746  12.951 -0.2015 -0.1097 -0.1498
20089W        W35220   6.512  17.175   5.699  0.1767  0.1521  0.0407
20090W        W35221  13.919   4.901   3.585  0.0872  0.2008  0.3005
20091W        W35222  15.380  12.623  13.308  0.1198  0.2537  0.0785
20092W        W35223   9.670   9.845   5.223  0.0045 -0.0286  0.1856
20093W        W35224  10.229   6.357  14.039  0.2211  0.1996 -0.0467
20094W        W35225  12.019  14.292   5.556 -0.2536  0.0684 -0.1188
20095W        W35226   2.906   5.258   3.741 -0.0829  0.1769 -0.1791
20096W        W35227  11.463   4.917  15.279  0.1441  0.0955  0.2304
20097W        W35228   5.852   3.705   0.043 -0.3282 -0.0965 -0.3385
20098W        W35229   1.273  10.472  16.058  0.0626 -0.2779  0.1916
20099W        W35230   4.089   7.121  11.731 -0.2451 -0.2522  0.2017
20100W        W35231  13.478   4.678   3.705  0.1779 -0.1380  0.1293
20101W        W35232  15.033   0.061   0.997  0.2477  0.3255  0.3234
20102W        W35233  12.007  14.090   5.029 -0.2016 -0.1378 -0.2320
20103W        W35234  16.138   5.536  13.637  0.1489 -0.1193 -0.0910
20104W        W35235   2.609  15.435   1.196 -0.2917  0.2613  0.0725
20105W        W35236   5.757   9.976  11.131 -0.0196  0.3641 -0.2986
20106W        W35237   0.261  15.373   4.316  0.0542 -0.1366 -0.1231
20107W        W35238   8.588   2.942   4.374 -0.1615  0.0162 -0.0074
20108W        W35239   0.992  16.610  16.228  0.1726  0.1197 -0.2675
20109W        W35240   4.297  10.897  15.864  0.2120  0.0238  0.0382
20110W        W35241  17.144  14.159  11.826  0.1558  0.0255 -0.0178
20111W        W35242  14.956  16.909   0.604  0.0277  0.0007  0.0699
20112W        W35243  11.617   0.406  14.379  0.0663  0.1826  0.0456
20113W        W35244  16.328  11.674  11.994 -0.1294  0.2394  0.2677
20114W        W35245   3.449   5.130  15.086  0.0178 -0.1238  0.1192
20115W        W35246   0.510  17.015   1.644  0.2072 -0.0105  0.0526
20116W        W35247   2.575   9.498   2.923  0.1171 -0.2708  0.0214
20117W        W35248  13.780  10.665  11.929  0.1178  0.4730 -0.2018
20118W        W35249  10.638   7.484  12.164  0.0460 -0.0036 -0.0919
20119W        W35250  15.807   5.949   4.313  0.2789  0.0666 -0.4203
20120W        W35251   3.581   8.035  11.633  0.3342  0.0065  0.3813
20121W        W35252   1.710   4.872  14.614 -0.1244 -0.0482  0.2777
20122W        W35253  11.537  16.062   4.898 -0.1718 -0.0669  0.0778
20123W        W35254   4.750   6.289   4.448 -0.1630 -0.1144  0.0295
20124W        W35255   0.933  11.569   2.309  0.1704 -0.2148  0.0616
20125W        W35256   4.402  16.856  13.540  0.2358 -0.3755  0.1959
20126W        W35257  14.829  12.320  13.784  0.0628 -0.1538 -0.0881
20127W        W35258  15.556  14.757  10.932  0.2569  0.0002  0.1828
20128W        W35259   1.245  11.918   2.931 -0.0672 -0.0348 -0.2295
20129W        W35260   3.607  12.156  13.366 -0.3219 -0.0535  0.1479
20130W        W35261   0.971   2.355  13.347  0.1794 -0.0944  0.0889
20131W        W35262  14.529  17.479   5.531 -0.0626  0.4084  0.1145
20132W        W35263   8.013   5.619   5.708  0.1915 -0.0524 -0.0046
20133W        W35264  12.984  17.559   2.874 -0.1591 -0.3154  0.1280
20134W        W35265   8.364  16.327  14.882  0.0566  0.1629  0.3208
20135W        W35266  15.197  16.889   0.136  0.1166 -0.0159  0.0005
20136W        W35267  11.663  17.956   2.944  0.2127  0.2920  0.5079
20137W        W35268   9.843   9.287   3.017 -0.3420 -0.3378 -0.1954
20138W        W35269  16.801   4.031  13.190 -0.0873 -0.1045 -0.1233
20139W        W35270   7.238   6.450   2.910  0.1136  0.1390 -0.0396
20140W        W35271  17.670   3.284   3.162 -0.0738  0.2058  0.0724
20141W        W35272   3.329   4.639  14.438 -0.1447 -0.2824  0.3257
20142W        W35273  14.033   9.493  13.632  0.3833  0.0654  0.0627
20143W        W35274   7.069   1.390   0.056 -0.1988  0.1454  0.0029
20144W        W35275   8.679   2.436   3.596  0.0616 -0.3208 -0.1839
20145W        W35276  11.602  10.008  14.092 -0.1380 -0.0327  0.1822
20146W        W35277  15.791   0.457   2.587 -0.0891 -0.0222 -0.1074
20147W        W35278   4.981  15.243   2.770 -0.2699  0.0142 -0.1309
20148W        W35279   9.358   6.523   0.047 -0.0882 -0.3873  0.1612
20149W        W35280   1.714   3.677  14.293  0.0556  0.1407  0.3136
20150W        W35281   7.753   7.199   0.880 -0.0729 -0.1597  0.2914
20151W        W35282  15.015  15.083  12.443  0.3009  0.1526 -0.0072
20152W        W35283   2.883   6.992   2.712 -0.3108 -0.0140  0.1284
20153W        W35284   0.526   6.446   5.714  0.2063  0.0308 -0.0345
20154W        W35285  16.665   0.348  16.098  0.1112 -0.0517 -0.0583
20155W        W35286  12.288  17.936  10.562 -0.1260  0.1553 -0.1613
20156W        W35287   9.082  16.972  15.896 -0.2808  0.1303  0.1038
20157W        W35288  13.673   8.705  12.937 -0.0181  0.2722  0.0348
20158W        W35289   6.662   1.724   0.242  0.3146 -0.1071 -0.0216
20159W        W35290  18.013  17.216  15.115 -0.2812  0.1755 -0.1604
20160W        W35291  16.937   7.354   4.921 -0.1166  0.0831  0.0423
20161W        W35292   0.436  15.974   0.870 -0.1472 -0.0244 -0.0237
20162W        W35293  16.841   4.931  13.815 -0.1108 -0.1191 -0.0539
20163W        W35294  10.230   4.250   4.255 -0.2389 -0.0100 -0.0566
20164W        W35295   8.488   9.734   5.760 -0.1796 -0.2433  0.0573
20165W        W35296   5.192  11.102  15.358 -0.1669 -0.2821 -0.0868
20166W        W35297   9.044   8.388   0.503 -0.1028 -0.1314 -0.1927
20167W        W35298   0.575   6.216  14.521  0.2350  0.0701  0.0286
20168W        W35299   1.202  17.679   1.536 -0.0071 -0.1588  0.0197
20169W        W35300   5.944  12.509  15.808  0.1436  0.4024 -0.2069
20170W        W35301   0.303   6.586  10.995  0.0046  0.0132  0.3390
20171W        W35302  14.996   1.431  13.364  0.2267  0.2538 -0.2014
20172W        W35303   7.022   7.332  11.152  0.0135 -0.0646 -0.1240
20173W        W35304  15.124  12.526  12.632  0.4311  0.0627 -0.0825
20174W        W35305   3.124   8.625  14.265 -0.0039 -0.1349 -0.5647
20175W        W35306   9.282  15.379   0.012  0.2422  0.2530 -0.2739
20176W        W35307   5.862  13.906  14.432  0.2803 -0.1326 -0.0456
20177W        W35308  17.616  16.843   1.860  0.4483 -0.1175 -0.0232
20178W        W35309   1.719  16.787   2.405 -0.0998 -0.2644 -0.2215
20179W        W35310  11.656   7.477  13.836  0.0505 -0.0199  0.3162
20180W        W35311   2.554   2.465   3.518  0.3829 -0.0927  0.3408
20181W        W35312   2.092  16.383   2.049  0.0329 -0.1966  0.0701
20182W        W35313  11.513   1.211  13.035 -0.1581 -0.0637  0.0673
20183W        W35314   6.520  15.848   2.562  0.1817 -0.1560 -0.1847
20184W        W35315   6.274  14.894   2.110  0.1596  0.1780  0.2270
20185W        W35316   1.813  13.667   2.911  0.1221  0.2366  0.1726
20186W        W35317   5.786  13.328   4.842  0.0798 -0.1873  0.0413
20187W        W35318  11.542  11.820   5.569  0.0831  0.0119 -0.0299
20188W        W35319  10.601  17.135   5.061  0.3104 -0.3649 -0.0440
20189W        W35320   7.658  13.583  15.450  0.0326 -0.0764 -0.0402
20190W        W35321   7.005   1.503  11.659  0.1220  0.3412 -0.0979
20191W        W35322   8.029  12.957   3.865 -0.1566 -0.2046 -0.0527
20192W        W35323   9.397   4.510   5.375  0.1427 -0.2028 -0.0763
20193W        W35324   4.824   1.704  12.855  0.1374  0.0164  0.0958
20194W        W35325   7.574  10.967  11.252  0.1449 -0.1933  0.1472
20195W        W35326  14.063   0.426  13.495 -0.4747 -0.1876 -0.0192
20196W        W35327   9.017  10.877  14.803  0.0427  0.0961  0.1663
20197W        W35328  12.619  16.436  16.125  0.3085  0.0402 -0.2907
20198W        W35329   2.254   4.787  13.208 -0.0051  0.0702 -0.1079
20199W        W35330   2.582   4.983  10.653 -0.1545  0.1189 -0.2356
20200W        W35331  12.733   9.646  12.049 -0.2237  0.1672 -0.0653
20201W        W35332   7.720  11.398  10.878 -0.0629  0.4386  0.2716
20202W        W35333  17.941   8.525   0.138 -0.0422 -0.0627 -0.2917
20203W        W35334  10.526  12.772   1.045  0.0074  0.3156 -0.2899
20204W        W35335  16.552   5.674  13.300 -0.0524 -0.2464  0.1037
20205W        W35336  17.447   0.533   4.813 -0.0016  0.0882 -0.0106
20206W        W35337  15.837   8.248   5.448  0.1737 -0.0460  0.0021
20207W        W35338   7.579   4.607  16.119  0.0084 -0.0628 -0.1372
20208W        W35339  12.527   1.401  15.522 -0.0512  0.0913  0.0459
20209W        W35340  17.822   5.546   4.642 -0.0881 -0.2091 -0.1195
20210W        W35341  10.873  11.802   1.773  0.0736  0.0340 -0.0300
20211W        W35342   8.552  13.968   3.286 -0.2827 -0.2306  0.2631
20212W        W35343   8.704   7.144  13.023 -0.0256  0.1413 -0.1236
20213W        W35344  11.901  11.493  12.687 -0.3080  0.1663 -0.0280
20214W        W35345   4.505   1.880  13.317  0.0531 -0.1910 -0.2056
20215W        W35346  11.915   5.064  11.194 -0.1193 -0.1806  0.1173
20216W        W35347   4.873  10.451  14.250 -0.2674 -0.2605 -0.0314
20217W        W35348   4.095   9.893  11.609 -0.0778 -0.0869  0.1447
20218W        W35349  13.674   6.082   3.533  0.1243  0.1581 -0.4344
20219W        W35350   3.710   3.457   4.325 -0.0923  0.1803 -0.0138
20220W        W35351  14.791   1.349   1.011  0.1542 -0.0592  0.1651
20221W        W35352  15.753  13.913   2.768 -0.2510 -0.2096 -0.1062
20222W        W35353   7.681  11.081  14.657  0.2680  0.0129  0.0722
20223W        W35354   2.351   9.694   6.172 -0.1176  0.2282 -0.0797
20224W        W35355   3.386  17.650   3.367  0.1566 -0.1529  0.3150
20225W        W35356  10.432   6.085  11.770  0.1042  0.2306  0.0496
20226W        W35357   9.228  16.060   4.098  0.0937 -0.1005 -0.0518
20227W        W35358   0.251  14.287  11.377  0.1659  0.0214 -0.0840
20228W        W35359  16.385  10.804   4.864 -0.2741 -0.0559  0.0295
20229W        W35360  14.182  10.973  13.030 -0.0491  0.0050  0.1763
20230W        W35361  14.077  12.071  11.875 -0.0488 -0.0467 -0.2517
20231W        W35362  13.396   4.543   4.166  0.1230 -0.3706 -0.3750
20232W        W35363  14.224   3.604   3.123 -0.0323 -0.1494  0.1293
20233W        W35364   3.341  16.103  15.134  0.2161  0.0345  0.0390
20234W        W35365   0.012   4.473  14.759  0.0888 -0.0161  0.2145
20235W        W35366   2.490   1.234   4.284 -0.1183  0.2011 -0.3124
20236W        W35367   3.123   4.989  14.144  0.0370  0.1611  0.3077
20237W        W35368  16.873   3.007  11.877 -0.1108 -0.6688  0.1804
20238W        W35369   4.959  15.068   2.242  0.1471 -0.4304  0.0658
20239W        W35370   3.716  17.721  15.095 -0.0998 -0.0165 -0.0789
20240W        W35371  17.801   6.673  11.774  0.0815 -0.0149  0.0706
20241W        W35372  10.708   9.693   2.660 -0.0046 -0.0624  0.0334
20242W        W35373  16.415  10.081  10.491 -0.1448  0.0027  0.0325
20243W        W35374   8.396  17.213  13.821 -0.1324 -0.1316 -0.2231
20244W        W35375  10.601  15.213   2.170 -0.2536  0.2097 -0.1884
20245W        W35376  16.262  12.597   5.737  0.1387  0.0390 -0.3304
20246W        W35377   2.828   8.812  15.112 -0.2045  0.2469 -0.0901
20247W        W35378   6.504   2.855  13.425  0.0112  0.1842 -0.0080
20248W        W35379   8.064   1.766   1.239  0.0960 -0.2324  0.0831
20249W        W35380  16.863   6.696  10.870 -0.2168  0.1710  0.0155
20250W        W35381  11.514   8.319  11.834  0.1675  0.0485  0.2257
20251W        W35382   6.528   7.526   0.356 -0.0109  0.0253  0.1092
20252W        W35383   8.780   1.028  15.550 -0.4386  0.0124 -0.2544
20253W        W35384   0.974  11.311  14.317  0.0373 -0.0470 -0.0882
20254W        W35385   3.337  13.037  14.914 -0.0515 -0.0387  0.0038
20255W        W35386   0.168   1.997   4.372  0.0708 -0.3821  0.0476
20256W        W35387  13.842   8.724  15.354 -0.1625 -0.1953  0.2460
20257W        W35388   0.062   6.226  11.214  0.1612  0.0012  0.2538
20258W        W35389   8.724   8.419   1.975  0.0619  0.3207 -0.0080
20259W        W35390   4.267  12.477  12.651 -0.0950  0.0983  0.2479
20260W        W35391  14.589   5.742   1.958  0.0421  0.2064  0.1898
20261W        W35392   6.965   4.258   3.508 -0.3785 -0.4029 -0.0471
20262W        W35393  17.712  12.789  10.680 -0.2994 -0.0594  0.2803
20263W        W35394   5.480   4.481  12.906 -0.0631 -0.1011  0.0338
20264W        W35395  14.705   2.617  12.298 -0.1966  0.2583 -0.0741
20265W        W35396  11.531  16.775   0.591  0.1246  0.1587 -0.3328
20266W        W35397   7.646   2.556   2.647  0.4772  0.0997 -0.0918
20267W        W35398   0.359   7.292  11.635  0.0165  0.1131 -0.0606
20268W        W35399   6.722  16.866  12.837  0.1458  0.0774 -0.0432
20269W        W35400   9.340  10.026  13.989  0.2801 -0.1772  0.1779
20270W        W35401   0.019   5.470  12.726  0.0504  0.3703 -0.2221
20271W        W35402   8.257   9.615  15.158  0.2017  0.2000  0.0098
20272W        W35403  14.435  12.440   2.048 -0.0165  0.3286  0.2587
20273W        W35404  11.850   6.963   0.597 -0.1224 -0.3104 -0.1283
20274W        W35405   0.441  18.000   0.263 -0.3900  0.0367  0.1354
20275W        W35406   8.086  13.118  12.981  0.1996 -0.0997 -0.1258
20276W        W35407  14.598  10.714  14.424  0.0713  0.2356  0.3510
20277W        W35408  11.596   7.994  13.539  0.1281  0.0464  0.1769
20278W        W35409   3.958   8.929  14.886 -0.2375 -0.0290  0.3537
20279W        W35410  11.315   7.717   0.838 -0.2190 -0.3003  0.3158
20280W        W35411   9.436   2.110   5.532 -0.1686  0.0219 -0.0127
20281W        W35412  11.698  11.373  14.941  0.0480  0.1469  0.0817
20282W        W35413  16.928  15.403   3.512 -0.1113  0.1090  0.1656
20283W        W35414   5.969  17.811  15.393  0.2551  0.1447 -0.1309
20284W        W35415   8.850  16.370  10.726 -0.3147 -0.0462 -0.3245
20285W        W35416   6.917  14.913   2.551  0.4060  0.1174  0.1173
20286W        W35417  16.768  12.230   2.050 -0.0910 -0.0941 -0.0518
20287W        W35418   4.911   3.042   3.030  0.0947 -0.0185 -0.3294
20288W        W35419  15.951   7.768   1.750  0.0001  0.1690  0.3654
20289W        W35420  11.474   8.354  16.234 -0.1285  0.1622  0.0018
20290W        W35421  18.045   0.793  11.342 -0.1224 -0.3903 -0.3503
20291W        W35422  13.155   4.706   0.292 -0.0543  0.0569  0.1350
20292W        W35423   0.215   5.657  14.983  0.3101  0.0509  0.0327
20293W        W35424  12.763   5.470  12.761  0.0302 -0.0573 -0.1024
20294W        W35425   9.396   2.837   4.563  0.1714 -0.0681  0.0242
20295W        W35426   3.393   3.328   5.636  0.0079  0.1858 -0.0978
20296W        W35427   0.171   9.169  11.717  0.1486  0.1895  0.1738
20297W        W35428  15.816   6.017   0.741 -0.1881  0.1928 -0.2664
20298W        W35429   9.111   0.755  10.379 -0.0805  0.1590 -0.1931
20299W        W35430   5.606   4.330   1.987 -0.0746  0.0238  0.2230
20300W        W35431  12.849  12.268   1.896  0.2939 -0.2238  0.1599
20301W        W35432   3.949  17.439   3.659  0.0865  0.0867  0.2111
20302W        W35433  12.102   5.672   0.377 -0.0316  0.0546  0.1173
20303W        W35434  14.822   1.108   2.392 -0.0875 -0.0511 -0.2262
20304W        W35435   2.769  14.252  13.828 -0.0654 -0.2684  0.1926
20305W        W35436  12.194   3.422  13.643 -0.1473  0.1163 -0.1055
20306W        W35437  10.081  12.471   5.785  0.0947 -0.2442 -0.1105
20307W        W35438   2.894   4.599   4.573  0.1707 -0.0510  0.1685
20308W        W35439   0.485  10.950  11.768 -0.0411 -0.2598  0.0086
20309W        W35440   1.493   2.574   2.126  0.2899 -0.0920  0.2467
20310W        W35441  14.544  10.353   4.623  0.1385  0.0912 -0.2179
20311W        W35442  15.469  12.406   1.930  0.2141  0.4675  0.0178
20312W        W35443  11.341  15.634  14.198  0.1643 -0.4600  0.1923
20313W        W35444   1.194   1.431   5.058  0.0333 -0.1465 -0.1716
20314W        W35445   7.207   2.410   5.111 -0.3030 -0.0144  0.0477
20315W        W35446   0.312   2.688  10.593 -0.2167 -0.0168  0.1138
20316W        W35447  11.534  12.754   1.107  0.3118  0.0296  0.0564
20317W        W35448   7.546   7.741  11.736 -0.0748 -0.1815 -0.0342
20318W        W35449   5.843  11.108   0.334  0.0315  0.1496 -0.1520
20319W        W35450  16.695   1.538   0.641  0.2020  0.1858  0.0445
20320W        W35451  14.457  11.200  11.677  0.0892  0.0500 -0.1596
20321W        W35452  10.046   4.934   1.040 -0.2071 -0.2065  0.1278
20322W        W35453   9.535  10.925  14.676 -0.1366 -0.0696 -0.0524
20323W        W35454   0.314   1.793  14.185  0.1370  0.4087 -0.2017
20324W        W35455   4.586  12.017  14.305  0.0034  0.0722  0.2823
20325W        W35456  16.398  13.508   0.447 -0.1867 -0.0424  0.3121
20326W        W35457  11.429  12.983   0.197 -0.4179  0.1522  0.1003
20327W        W35458  11.429   7.522   1.358  0.0744 -0.1082  0.0712
20328W        W35459  11.023   0.456   5.089  0.0602  0.1001  0.1528
20329W        W35460  18.067   3.138   2.863 -0.2695 -0.0947 -0.0623
20330W        W35461   0.910   2.770   3.803  0.2248  0.0243  0.1724
20331W        W35462  17.805  13.277   0.125 -0.0242  0.1085 -0.1580
20332W        W35463   1.558   1.427  11.482 -0.1889  0.0793 -0.1924
20333W        W35464   1.692   9.962  11.582  0.1911 -0.0872  0.0943
20334W        W35465   7.690  16.827   1.386  0.2481 -0.2049  0.1094
20335W        W35466  13.761  16.409   3.509  0.1835 -0.0912 -0.0641
20336W        W35467  13.648   6.470  12.343 -0.0285  0.0066 -0.0057
20337W        W35468   1.014  11.013  13.879 -0.1375 -0.2398 -0.0555
20338W        W35469  11.239   8.079  12.470 -0.2002  0.2190 -0.3559
20339W        W35470  13.349   3.989   1.098 -0.0509  0.2444  0.0621
20340W        W35471  12.941  18.073   3.716  0.1449  0.1332 -0.0928
20341W        W35472  13.416  13.055  11.820  0.1924 -0.2074  0.2355
20342W        W35473  15.024  14.897  15.834 -0.0310  0.2210 -0.0646
20343W        W35474   7.149   2.444   5.776  0.3346 -0.1191  0.0344
20344W        W35475   7.808  16.308   0.710 -0.2677  0.3910  0.1198
20345W        W35476   4.469   0.193  15.394  0.0089  0.3186 -0.0165
20346W        W35477   4.506   0.652  12.631  0.2451  0.0306 -0.0645
20347W        W35478   7.966   9.106   5.242  0.0634 -0.0327 -0.0011
20348W        W35479   2.481  16.099   4.074  0.3393  0.1812  0.2249
20349W        W35480   8.266   5.973  13.829  0.0425  0.0375  0.0843
20350W        W35481   1.942   8.053   3.208 -0.0810 -0.1740  0.1653
20351W        W35482   6.075   5.388  13.658 -0.0704  0.0313  0.0829
20352W        W35483   7.254  11.778   0.634  0.3164  0.0757 -0.0899
20353W        W35484   8.016  17.675  14.952 -0.0736 -0.1029 -0.2946
20354W        W35485   7.965   1.374  16.178  0.0622  0.0122  0.3737
20355W        W35486  15.364  11.734  15.070 -0.1233  0.2397  0.3339
20356W        W35487  13.577   9.793   3.885 -0.0549 -0.1822  0.1480
20357W        W35488   5.203  15.565   1.200 -0.0522 -0.1510 -0.1395
20358W        W35489  15.038   1.012  15.494  0.2911  0.3294 -0.1617
20359W        W35490  13.410   1.579  16.139  0.2586  0.0749 -0.0775
20360W        W35491   2.296   8.246  11.478  0.0017  0.0549  0.0529
20361W        W35492  14.639   9.588   5.074 -0.0194 -0.0527  0.1259
20362W        W35493   3.325  15.700  10.626 -0.2677  0.2222  0.2364
20363W        W35494   9.734   2.767  15.979 -0.1546  0.2810 -0.0361
20364W        W35495   7.573   1.844   3.409  0.3602  0.0505 -0.1495
20365W        W35496  12.556   5.123   0.907 -0.2448 -0.0685 -0.2906
20366W        W35497   2.828  12.185  14.748  0.0897  0.0246  0.0842
20367W        W35498   9.700  14.748  14.598 -0.1394 -0.0058 -0.1703
20368W        W35499   2.963   6.244   2.680 -0.1309  0.0656 -0.1669
20369W        W35500   8.921   3.032  15.454 -0.3009  0.0810  0.2067
20370W        W35501  15.937   8.393  11.266  0.0110 -0.1108  0.5289
20371W        W35502   2.160   4.738   0.826  0.1969  0.0211  0.1791
20372W        W35503  11.348  16.909  14.797 -0.0581  0.1795 -0.3711
20373W        W35504  15.262  17.041   1.731 -0.0168  0.2396  0.0749
20374W        W35505  17.873  14.907  15.837 -0.2250  0.3454 -0.0455
20375W        W35506   8.149   7.740   2.245  0.0758  0.2265  0.0248
20376W        W35507  15.799   1.397   0.579 -0.1085 -0.0750  0.1503
20377W        W35508  14.652   0.083   3.365 -0.2546  0.0350 -0.0514
20378W        W35509   2.941  10.378   3.537 -0.0787 -0.1894  0.0342
20379W        W35510   9.199  16.494  15.309  0.2160 -0.1789  0.1136
20380W        W35511  11.585   2.332   4.712  0.0371 -0.1493  0.1166
20381W        W35512   1.475  10.606   4.896 -0.1326  0.1397 -0.3236
20382W        W35513   4.724  17.473  14.520 -0.1221  0.0293 -0.1661
20383W        W35514  17.541  14.303   2.940 -0.1019  0.1984 -0.2905
20384W        W35515  15.035  12.713  15.445  0.1059  0.0836  0.0568
20385W        W35516   4.247  13.074   4.347  0.2654 -0.0604 -0.1529
20386W        W35517  13.730  16.148   2.599 -0.2158  0.3647  0.2404
20387W        W35518  15.425   1.332   3.262  0.1124  0.0039  0.1551
20388W        W35519  13.956  15.864   3.571 -0.2449  0.2118 -0.2055
20389W        W35520   4.513  15.427  15.655 -0.1074  0.1711  0.3731
20390W        W35521  16.274   5.553  11.549 -0.3365  0.0160  0.0778
20391W        W35522  10.845   8.145   5.752  0.3631  0.0996  0.1619
20392W        W35523  17.191  10.694   5.257 -0.2300 -0.0433  0.1632
20393W        W35524   2.672   7.171   4.753  0.2482 -0.0379 -0.1278
20394W        W35525   5.149   7.071  15.885 -0.4318 -0.1165 -0.0272
20395W        W35526   2.969  16.308  16.012 -0.1675  0.2165  0.1960
20396W        W35527  17.968  11.728  15.668 -0.1485 -0.3298  0.2270
20397W        W35528   1.238   2.744  14.328  0.1014 -0.0253 -0.2403
20398W        W35529  13.603  11.273   1.580  0.0901  0.0343 -0.0404
20399W        W35530   9.786  11.647  15.771  0.3329  0.2820  0.0803
20400W        W35531   6.845   6.309   0.944 -0.1333 -0.0389  0.0086
20401W        W35532  12.758   7.114   5.042 -0.1273  0.2056  0.1084
20402W        W35533   8.387  17.590  14.212 -0.0930  0.1454 -0.1067
20403W        W35534   7.541   1.324  15.961  0.1242  0.0948  0.0070
20404W        W35535  15.498  10.231   2.818 -0.1081  0.1078 -0.1873
20405W        W35536   4.956  13.271   3.023 -0.0605  0.0318 -0.0786
20406W        W35537  14.991   2.720   0.768  0.3091 -0.0006 -0.1471
20407W        W35538   3.960  10.404   5.519 -0.1324  0.1019  0.2660
20408W        W35539   1.987   3.666   0.043 -0.1476  0.0322 -0.1792
20409W        W35540   0.617   9.683  15.881 -0.0771 -0.1395 -0.0713
20410W        W35541   8.867   5.458   5.769  0.1983 -0.1640 -0.2314
20411W        W35542  14.860   5.637  13.351 -0.1755  0.2896 -0.2503
20412W        W35543   9.090  14.493   4.882  0.1107 -0.1144 -0.0023
20413W        W35544   3.116   6.247  10.459  0.0466  0.0339  0.0759
20414W        W35545   0.906   1.857   5.069 -0.1870 -0.1462 -0.1680
20415W        W35546   2.618   3.196  12.439  0.1180  0.3469  0.0109
20416W        W35547   2.091   3.510   5.822  0.1319 -0.0126  0.2015
20417W        W35548  13.045   4.495  12.461 -0.2114  0.3078  0.1082
20418W        W35549  14.696   6.483  11.425 -0.0504 -0.0349 -0.0968
20419W        W35550  17.273   8.205  12.390  0.0524 -0.0440 -0.4139
20420W        W35551   4.485  12.339  13.321  0.0582  0.1860 -0.1173
20421W        W35552   7.882  14.838  13.030 -0.0414 -0.0035  0.0147
20422W        W35553  17.570   3.788  11.196 -0.0384 -0.1102  0.0806
20423W        W35554  10.551  15.171  15.396  0.1501 -0.3935  0.0731
20424W        W35555   3.917  11.542  14.054  0.2279  0.1975 -0.1460
20425W        W35556   7.335   0.933  13.785  0.2463  0.4061  0.2562
20426W        W35557   2.346  14.290   0.382 -0.0319 -0.1100  0.0686
20427W        W35558  14.546   5.677  12.619  0.2474  0.1977 -0.1018
20428W        W35559   5.530  16.667   2.337 -0.0141  0.1904  0.1909
20429W        W35560  15.074   9.679   1.342  0.1802 -0.0932 -0.2146
20430W        W35561   3.551  13.306   4.309 -0.1666 -0.2376  0.1798
20431W        W35562  16.871   0.059   3.745 -0.1345  0.0439  0.1911
20432W        W35563   7.891  10.286  14.441 -0.0514  0.2012  0.0449
20433W        W35564  15.332  12.389  15.766  0.1727  0.0454  0.2894
20434W        W35565   8.147  15.716   5.005  0.0065 -0.1189 -0.1809
20435W        W35566  11.678   2.339   6.225 -0.0983 -0.0376  0.1265
20436W        W35567   7.412   9.598  12.067 -0.0176  0.0185 -0.0554
20437W        W35568   8.195  11.380  12.329 -0.2279 -0.1736 -0.0479
20438W        W35569  17.178  17.715  12.480 -0.0253  0.2920 -0.1702
20439W        W35570   8.832   3.809   3.952 -0.1381 -0.1392  0.1578
20440W        W35571   5.966  11.279  13.376 -0.1760 -0.3835  0.3675
20441W        W35572   9.638  13.181   0.978 -0.1301 -0.0084  0.0595
20442W        W35573   3.521   5.754  14.375  0.1814 -0.1603  0.3767
20443W        W35574  16.298  16.193   4.490  0.0194 -0.0102 -0.0035
20444W        W35575  10.008  13.936  15.267 -0.4223  0.0947 -0.3147
20445W        W35576  10.011  15.939  15.612 -0.0703 -0.2882  0.2953
20446W        W35577   7.529  17.746   0.292  0.0543  0.1214 -0.1714
20447W        W35578  11.603  12.796  14.608  0.2150 -0.2475 -0.0407
20448W        W35579  10.734   6.908   1.062  0.0068  0.0418 -0.1720
20449W        W35580   6.130   4.695   1.175  0.3427  0.2984 -0.0878
20450W        W35581  12.427   0.623   4.031  0.0060 -0.2974 -0.0639
20451W        W35582   3.372   9.123   4.488  0.3038 -0.0264 -0.5683
20452W        W35583   6.541  13.070   4.714  0.2249  0.2501 -0.1792
20453W        W35584   2.483  14.415  15.692  0.1156 -0.0823 -0.0160
20454W        W35585  15.828   1.406   5.766  0.0202  0.0514  0.1128
20455W        W35586   9.875  17.597  16.032  0.0372 -0.0875 -0.3041
20456W        W35587   4.875   9.385   5.140  0.2404  0.2388  0.1835
20457W        W35588  16.456  11.930  10.251 -0.2217 -0.0263 -0.0225
20458W        W35589  13.419   4.440   1.194  0.3007 -0.0210 -0.0186
20459W        W35590   4.951  14.653  16.107 -0.1844 -0.2875 -0.2019
20460W        W35591  11.939   6.144  13.146  0.1161 -0.1672 -0.2282
20461W        W35592  10.845   3.476  13.227  0.2438  0.4292 -0.0018
20462W        W35593  15.488   5.990   5.118 -0.1463  0.1291  0.0295
20463W        W35594  17.697  12.748   0.737 -0.1115  0.0705 -0.1069
20464W        W35595   9.897  11.091   4.862  0.2089 -0.0952 -0.1830
20465W        W35596   1.080  12.891   2.977  0.0202  0.1697 -0.1297
20466W        W35597   8.908  14.799   5.287  0.0000  0.1191  0.1017
20467W        W35598   5.767   0.293  14.771  0.0829  0.0571  0.2211
20468W        W35599   1.800  16.102  13.557  0.0732 -0.1482 -0.0565
20469W        W35600   0.922  16.266  15.843  0.0080  0.1000 -0.1081
20470W        W35601   4.725  17.463  15.020 -0.1162 -0.0132 -0.1100
20471W        W35602   4.758   0.480   1.709 -0.3881  0.0020 -0.0894
20472W        W35603   6.006  12.433   3.322 -0.3567  0.1820  0.1910
20473W        W35604  15.885  12.046   2.855 -0.1258 -0.1315  0.1444
20474W        W35605   9.900  17.914  11.540  0.5096  0.0745  0.1856
20475W        W35606   8.805   3.805  11.614 -0.0772  0.0345  0.1448
20476W        W35607  13.813  17.223  12.736  0.2961 -0.0536 -0.0273
20477W        W35608   3.405  16.026   0.454  0.0898 -0.0104  0.0172
20478W        W35609  15.224  16.765   5.604  0.0420 -0.0611 -0.3340
20479W        W35610  14.535   0.592  13.793 -0.1943 -0.1095 -0.3460
20480W        W35611  14.472   6.894  15.282 -0.2697  0.1283  0.1048
20481W        W35612   6.062   8.244   1.184  0.1539  0.0915 -0.2020
20482W        W35613  10.436   7.974  12.154  0.0099  0.0724 -0.1651
20483W        W35614   5.348   5.587   2.147 -0.0550  0.2509 -0.1284
20484W        W35615  12.010   0.703   3.715  0.2203 -0.1515 -0.0661
20485W        W35616   2.267   2.756  16.099  0.0110 -0.2278 -0.0482
20486W        W35617   2.956  13.547   1.479  0.1534  0.0008  0.0096
20487W        W35618   4.845  13.108   2.006  0.1876 -0.3337  0.0428
20488W        W35619   4.828  17.123   1.636 -0.1547 -0.2362 -0.1278
20489W        W35620   9.560   9.539  12.524  0.0684  0.0634  0.1798
20490W        W35621  10.290   2.331  16.179  0.1553  0.2153  0.0303
20491W        W35622   1.982  12.565  13.203 -0.0260 -0.0184 -0.0076
20492W        W35623  17.571   1.499  15.246 -0.1430 -0.0717 -0.1561
20493W        W35624   1.195  15.268   3.233 -0.0861 -0.0424 -0.0517
20494W        W35625   5.803  13.972   4.092  0.1314  0.0117 -0.0366
20495W        W35626   9.156   0.979  12.838 -0.1840 -0.1200  0.2187
20496W        W35627   3.931  10.187  14.334  0.0553 -0.0594 -0.0900
20497W        W35628   9.003  15.935  14.126  0.0541  0.1251 -0.2134
20498W        W35629   8.895  15.282  12.977  0.0232  0.0869 -0.3743
20499W        W35630   2.076   5.599  15.754  0.2858 -0.1528 -0.2385
20500W        W35631   6.725   9.155   2.890 -0.2490 -0.3395  0.1607
20501W        W35632   7.362   3.745  11.159 -0.1641  0.1883 -0.0856
20502W        W35633  12.438   7.143   1.070 -0.3618 -0.3420 -0.1781
20503W        W35634   9.870   2.288  13.175 -0.4163  0.0103  0.0238
20504W        W35635   5.136  13.385  11.905 -0.2092  0.0537 -0.0305
20505W        W35636  13.078   7.068  12.995  0.1399  0.3462 -0.2592
20506W        W35637   6.168  16.928  12.023  0.0729 -0.0055 -0.0928
20507W        W35638   5.410  18.070   4.897  0.2382 -0.0815  0.0807
20508W        W35639   2.176   1.533   5.142 -0.2675 -0.1542  0.1733
20509W        W35640   0.920   3.607   0.083 -0.3167 -0.0085  0.0380
20510W        W35641   5.431   0.011   4.323 -0.3389  0.2068 -0.1439
20511W        W35642  17.281  13.301  14.384 -0.4845 -0.0090 -0.1629
20512W        W35643   5.380  11.702   0.993 -0.0926 -0.2050  0.1913
20513W        W35644  14.297   3.645   1.073  0.1261  0.0216 -0.0502
20514W        W35645  10.345  18.048  11.377 -0.2001 -0.4033  0.2518
20515W        W35646   4.441   6.421   1.672 -0.2020 -0.0976 -0.1264
20516W        W35647   9.677   9.154   2.595 -0.2650  0.1320  0.0346
20517W        W35648  14.689  12.132   1.674 -0.0834  0.0193  0.2044
20518W        W35649  13.735  10.506   1.185 -0.3049  0.1306  0.0441
20519W        W35650   6.574   6.586   1.866  0.1355 -0.0579 -0.0559
20520W        W35651   8.018   6.296   4.920 -0.0864  0.2336 -0.1145
20521W        W35652   7.278   8.713  12.164  0.1583 -0.1584  0.0113
20522W        W35653  10.274  16.341  15.853  0.1977 -0.1348  0.0073
20523W        W35654  14.596   0.880   1.062  0.0187 -0.1084 -0.0906
20524W        W35655   4.403   6.557   3.674  0.3657 -0.2474  0.2605
20525W        W35656   8.478  14.350  13.819  0.0351  0.0085 -0.1918
20526W        W35657   0.332  14.838  11.417  0.0849  0.1362  0.0125
20527W        W35658  18.055   4.533   5.565  0.0384 -0.1045  0.2007
20528W        W35659   3.635   3.911  14.266 -0.3942 -0.2281  0.0830
20529W        W35660  16.904  17.751  13.002 -0.0028 -0.0017  0.1085
20530W        W35661   0.865  13.106   4.404  0.2667  0.0010 -0.2798
20531W        W35662   3.476  11.313  12.753  0.0438  0.1689 -0.0961
20532W        W35663   5.467  13.272  15.998 -0.0579  0.3098  0.2097
20533W        W35664   4.961   0.511  12.328 -0.2799  0.0085  0.1056
20534W        W35665   9.009   5.241   3.857  0.3050 -0.0444 -0.1720
20535W        W35666   1.633   8.964  11.400 -0.2117 -0.0375  0.0539
20536W        W35667  13.352  13.596  11.732 -0.5432  0.0774  0.2758
20537W        W35668  16.068  10.332   5.891 -0.0356  0.0079  0.0489
20538W        W35669   2.299  12.584   3.864  0.1266 -0.1658  0.0137
20539W        W35670   8.643   8.109   4.981  0.1306  0.0952  0.1959
20540W        W35671   7.870   0.972  13.027 -0.0013  0.1897 -0.1317
20541W        W35672  10.846   4.277   0.066  0.0778  0.1750  0.0693
20542W        W35673   7.989  12.287  10.733  0.1237 -0.0141  0.4098
20543W        W35674   6.815  16.143   2.876 -0.2058  0.2127 -0.1134
20544W        W35675   9.135  16.986   2.133 -0.2666  0.0099 -0.3787
20545W        W35676   2.643  14.357   4.191 -0.0095 -0.3517 -0.1357
20546W        W35677   1.514   6.308   4.126 -0.0085  0.0066 -0.1987
20547W        W35678  15.327   6.376  15.371 -0.3676  0.3908 -0.0872
20548W        W35679   4.693  15.384  10.623  0.1096  0.0291 -0.0105
20549W        W35680   2.960   6.490  12.128  0.1982  0.0750  0.1352
20550W        W35681  16.040   2.306  12.985 -0.2575 -0.1821  0.4364
20551W        W35682  13.443   8.223  12.696 -0.0036 -0.0812  0.0926
20552W        W35683   2.802   3.270  13.212  0.2903 -0.2850  0.1344
20553W        W35684  16.610  13.520  13.694 -0.0352 -0.1278  0.2808
20554W        W35685   3.589   7.520  11.552  0.0172 -0.1632  0.3187
20555W        W35686   1.180  15.124  12.727  0.0681  0.2228  0.0512
20556W        W35687   2.456  10.707   1.226 -0.4042  0.1834  0.1904
20557W        W35688  10.127  10.636   4.614  0.0742  0.1085  0.1669
20558W        W35689   1.129   5.308   3.411 -0.0552  0.0943 -0.0250
20559W        W35690  17.366  11.284   5.248  0.0612 -0.0155  0.1263
20560W        W35691   0.282  12.281   4.638 -0.1301  0.1465 -0.1212
20561W        W35692   5.854   8.304  16.167 -0.1119  0.0712  0.2523
20562W        W35693   1.352  15.745  15.053  0.1871  0.1340  0.0232
20563W        W35694   1.198  17.528   0.700 -0.1150 -0.1879 -0.0984
20564W        W35695   7.855   0.283   5.503 -0.1979 -0.0953  0.1914
20565W        W35696  17.552  13.913   4.621 -0.0342  0.1189 -0.4064
20566W        W35697  13.481  13.327   0.128  0.4129 -0.1138 -0.1291
20567W        W35698   9.226  10.055   3.127 -0.0383  0.0293 -0.1921
20568W        W35699   5.256  11.399  12.651 -0.0560 -0.0652 -0.1082
20569W        W35700   8.789   9.572  12.428  0.1309  0.0030  0.3210
20570W        W35701   6.827  15.195  11.414  0.0249  0.2312 -0.0819
20571W        W35702   0.552   3.954   3.817 -0.0324  0.0103 -0.0694
20572W        W35703  17.474  14.819  13.547 -0.0576  0.3875  0.0655
20573W        W35704   9.957   1.218   2.926 -0.0333 -0.0134  0.2284
20574W        W35705   6.734  16.345  15.207  0.1528  0.1742 -0.1424
20575W        W35706   2.319   5.784  12.585 -0.0208  0.0432 -0.2204
20576W        W35707   3.526   5.360  14.010  0.0572  0.0884  0.0659
20577W        W35708  16.437  10.338   4.640 -0.1032 -0.3225 -0.0298
20578W        W35709   8.632   9.312  11.498 -0.0337 -0.0611 -0.3120
20579W        W35710  14.940   3.402  13.948 -0.1044 -0.2583 -0.1015
20580W        W35711  11.892  12.192   1.993  0.2541 -0.0116 -0.0511
20581W        W35712   2.420   0.577  15.462 -0.0565  0.0534  0.0184
20582W        W35713   5.737   7.493  11.759  0.0446 -0.1052 -0.0635
20583W        W35714   1.944  16.507  14.365 -0.0338  0.5908 -0.1250
20584W        W35715   0.970  16.711   1.761  0.0443 -0.2701 -0.2399
20585W        W35716   7.081   0.409   5.912 -0.2259 -0.1698 -0.4016
20586W        W35717   1.904   6.880  13.512  0.0223 -0.0931  0.5171
20587W        W35718   2.665   3.039  14.905  0.0116 -0.0722 -0.0145
20588W        W35719  12.512   9.860  15.375  0.1285 -0.0595  0.1581
20589W        W35720  17.334  12.663   3.750 -0.0715  0.1137 -0.1594
20590W        W35721   0.289  14.792   2.877 -0.1594 -0.1330  0.0045
20591W        W35722  12.931   7.040  12.050  0.2762  0.1717  0.0134
20592W        W35723  10.663  11.906  15.749  0.0823  0.1039  0.1258
20593W        W35724   7.796   0.926   5.255  0.3386 -0.1678  0.0107
20594W        W35725   4.106   6.134   1.941  0.0033 -0.1510  0.0107
20595W        W35726   2.751  16.855  11.603 -0.3040 -0.2014 -0.0461
20596W        W35727  10.724   0.510  10.739 -0.1697  0.2067  0.1966
20597W        W35728  13.197   7.056   2.688  0.1998 -0.3608  0.1371
20598W        W35729   6.273  12.678  11.315  0.0169 -0.0146  0.0331
20599W        W35730  13.840  17.504   4.646 -0.2664  0.0369  0.0978
20600W        W35731   3.537  15.609   3.455 -0.0568 -0.1507  0.0821
20601W        W35732  16.134   2.883   4.025 -0.1886  0.3220  0.0409
20602W        W35733   5.884   7.599   4.387  0.0842 -0.0168  0.0774
20603W        W35734   8.666   5.348  12.342  0.0928  0.1345 -0.4319
20604W        W35735   0.120   3.374   3.252 -0.0588  0.2190 -0.3331
20605W        W35736  11.134  10.016  14.163 -0.0827  0.1697 -0.1632
20606W        W35737  16.060   9.951   5.085  0.0027  0.0193 -0.0029
20607W        W35738  11.702   6.336   1.588 -0.1221  0.3470  0.0028
20608W        W35739  15.913   2.116   1.007 -0.2119 -0.1989 -0.1880
20609W        W35740   0.865  16.570  12.719 -0.0215 -0.0528 -0.2210
20610W        W35741  10.866   8.638   1.266 -0.1084 -0.1413  0.1797
20611W        W35742   4.638  13.443   0.348  0.0275 -0.0043 -0.0094
20612W        W35743   9.110  14.162   2.140 -0.4315 -0.0440  0.0375
20613W        W35744  15.186   6.945  13.701 -0.0578 -0.0422 -0.1056
20614W        W35745  17.256   1.346   4.873 -0.0552 -0.3742  0.0272
20615W        W35746   3.802  12.040   2.351  0.4678  0.0800 -0.1465
20616W        W35747  17.229  11.385  11.608 -0.1355 -0.1325 -0.1687
20617W        W35748   1.663  15.263   0.867 -0.2518 -0.0492 -0.1570
20618W        W35749  13.938  14.499   4.872  0.4654 -0.0207 -0.1479
20619W        W35750   1.759  14.160  13.522 -0.0719 -0.0435  0.1727
20620W        W35751  12.117  13.012  16.134 -0.2518 -0.0567 -0.1542
20621W        W35752   1.504   2.241   9.993  0.1410 -0.1831 -0.1091
20622W        W35753   9.711   5.432   4.819 -0.1589  0.0965 -0.3325
20623W        W35754  14.227  13.919  16.070 -0.1799 -0.0980 -0.3242
20624W        W35755   3.129  10.598  14.101 -0.0355 -0.0245 -0.1328
20625W        W35756  17.783   7.693   5.745 -0.2154 -0.4407  0.1406
20626W        W35757   9.837   1.795  12.824  0.0068  0.0443 -0.1070
20627W        W35758   6.340   8.940   5.955  0.1847  0.0971  0.1803
20628W        W35759   9.604  17.943   1.573  0.1696 -0.2088 -0.1321
20629W        W35760   3.689   3.973  15.899  0.0177 -0.2071 -0.1854
20630W        W35761   6.932  17.757  15.302 -0.0725 -0.1230  0.1924
20631W        W35762   9.317   1.668  10.192 -0.1040 -0.1767  0.4063
20632W        W35763   2.225   3.200   0.653  0.0551 -0.3867 -0.1314
20633W        W35764   2.282   4.530  14.453 -0.3643 -0.1248  0.1634
20634W        W35765  15.149   3.682   0.514 -0.0891 -0.0109 -0.0130
20635W        W35766  17.706   3.687  14.591 -0.0812 -0.1452  0.1492
20636W        W35767   3.907   8.286  14.213  0.2170  0.1777  0.1309
20637W        W35768  16.791  12.448   3.091  0.4807  0.1813  0.1507
20638W        W35769   0.879   6.440  14.833  0.3531  0.1384 -0.3391
20639W        W35770   9.030   7.907  11.762  0.1030 -0.1547  0.3469
20640W        W35771   6.518  11.631  15.307  0.0072  0.0453  0.3309
20641W        W35772   4.389  12.022   1.101 -0.0642 -0.1233  0.3116
20642W        W35773   7.115  13.103   0.389  0.2307  0.4073  0.1379
20643W        W35774   4.508  13.848   4.828  0.2978 -0.0148  0.0211
20644W        W35775   3.166   9.818   5.159  0.0892  0.0020 -0.2537
20645W        W35776   2.461   9.702  12.054 -0.0689  0.0423 -0.0678
20646W        W35777  15.893   2.711   0.438 -0.0318 -0.2896  0.0484
20647W        W35778   1.233  16.347   2.437 -0.0700 -0.0986 -0.2064
20648W        W35779   6.729   1.668   4.979 -0.1088 -0.2474  0.1726
20649W        W35780  17.497   5.918  13.053 -0.0140 -0.0367 -0.0277
20650W        W35781   6.439   0.458  13.292  0.0060  0.3258  0.4973
20651W        W35782   6.622  10.263   4.046  0.0538 -0.0213 -0.1179
20652W        W35783  13.100  12.902   5.404 -0.1846  0.1718  0.0571
20653W        W35784  14.961  10.456   0.824 -0.0251 -0.1285  0.0789
20654W        W35785   4.454   8.695   5.003 -0.2084  0.1350  0.3801
20655W        W35786   9.963   6.170  15.739  0.2220 -0.1269 -0.0107
20656W        W35787   4.643  15.810  13.103  0.2909 -0.2283  0.0597
20657W        W35788  13.639  15.053  12.637  0.3789  0.2483 -0.2459
20658W        W35789  11.666   8.973  10.179 -0.0092  0.2869 -0.0861
20659W        W35790   3.309  10.526  12.669 -0.0185 -0.0785  0.0458
20660W        W35791   1.391  10.964   3.995  0.0903 -0.0222 -0.0166
20661W        W35792  10.970  10.689   1.657 -0.1056 -0.3015  0.0856
20662W        W35793   0.761  15.116  13.823  0.1882 -0.0442 -0.1512
20663W        W35794   2.941  13.952  15.856 -0.0883 -0.1066  0.0130
20664W        W35795  17.633  12.230   3.144 -0.2481  0.0781 -0.2293
20665W        W35796   6.805  11.449   3.911  0.0853  0.1651  0.2050
20666W        W35797   6.384  14.000  14.590 -0.1978 -0.4616  0.0840
20667W        W35798  11.519  17.205  12.294 -0.0370  0.1368 -0.2473
20668W        W35799  17.957  13.490   2.957  0.0640 -0.0732  0.2356
20669W        W35800  10.548   6.882  16.079  0.0722  0.0118 -0.2174
20670W        W35801   0.953   7.396   5.824  0.3543 -0.1368 -0.1257
20671W        W35802  16.373   0.205   3.668 -0.1231  0.1796 -0.2984
20672W        W35803   3.841  17.780  10.245  0.0027 -0.3928  0.0029
20673W        W35804   7.854  16.822   3.277  0.0560  0.1373 -0.1350
20674W        W35805   3.171   6.075   1.511  0.1767  0.2503 -0.3161
20675W        W35806  15.578  17.849  15.140  0.0132 -0.0310 -0.0156
20676W        W35807   5.825   4.303   4.327  0.2135  0.3075 -0.1420
20677W        W35808   2.015  15.843   0.095  0.2261 -0.2386  0.1381
20678W        W35809  13.691   2.665   5.838  0.0517 -0.2959  0.0240
20679W        W35810   9.437   1.942   1.980  0.0572  0.0465  0.0247
20680W        W35811  10.379  17.166  14.869  0.1671  0.1454 -0.0323
20681W        W35812  13.725   4.881   4.477 -0.3775  0.4256 -0.2370
20682W        W35813   4.569  16.156  15.082 -0.2671 -0.2272 -0.0274
20683W        W35814   7.848   8.456  11.346  0.0429  0.1058  0.1941
20684W        W35815  14.118  15.280  12.822  0.2704 -0.1898 -0.1023
20685W        W35816   8.058  14.901   3.209  0.0813  0.2367  0.2615
20686W        W35817  12.315  13.897   3.431  0.1610 -0.1351 -0.1035
20687W        W35818  11.408   5.606  13.247 -0.3625  0.0667 -0.0797
20688W        W35819   2.833  12.935  12.994  0.1039  0.1308  0.2332
20689W        W35820   6.497  11.249  12.442  0.0580 -0.0539  0.0534
20690W        W35821   0.083   2.510  13.714  0.1321 -0.0009 -0.1279
20691W        W35822  11.284   7.210   0.252  0.0600 -0.0705 -0.0505
20692W        W35823   0.246  14.103  15.356 -0.3881 -0.1850 -0.0415
20693W        W35824   9.085  15.701   0.346 -0.1417  0.0894 -0.0108
20694W        W35825   6.606   0.511  15.685  0.3428  0.1398  0.2084
20695W        W35826  10.643  11.133   0.288  0.0065  0.0745 -0.0333
20696W        W35827   3.203  12.378  14.148 -0.1419 -0.2830 -0.0267
20697W        W35828  15.623   3.065   2.400  0.2356 -0.0569  0.3407
20698W        W35829   9.440  13.487  15.179  0.0379 -0.0684 -0.0679
20699W        W35830  10.813   2.861   0.598 -0.1283 -0.0385 -0.1222
20700W        W35831  17.401   0.756  11.608 -0.1977  0.0240  0.2149
20701W        W35832  16.172   8.118   1.048  0.3132  0.2034  0.1129
20702W        W35833  13.703   1.244  15.709  0.3893 -0.0696 -0.0288
20703W        W35834  15.681   2.592  13.768  0.0764  0.3254 -0.0647
20704W        W35835  14.272   9.922   4.902 -0.1056  0.0278 -0.1121
20705W        W35836   1.878   3.730   5.349 -0.1270  0.1846  0.0725
20706W        W35837  15.441   5.397   5.069  0.0439 -0.2514  0.1158
20707W        W35838   5.995  10.512  12.867  0.0369 -0.2460  0.1898
20708W        W35839   8.674  11.825   0.294  0.0586 -0.0465  0.2218
20709W        W35840   0.052  10.919   6.072 -0.2741 -0.1372  0.0359
20710W        W35841  12.554  15.425   0.512 -0.1520  0.2114  0.0484
20711W        W35842   5.677   3.200  12.405 -0.0531 -0.2326 -0.1193
20712W        W35843  17.517  14.654  10.742 -0.1966 -0.2528  0.0291
20713W        W35844   4.950  16.137  15.429 -0.1074 -0.1187 -0.0206
20714W        W35845   5.648  10.665   0.014 -0.0722  0.2677 -0.0834
20715W        W35846   7.036  17.999  11.115 -0.1084 -0.1093 -0.3385
20716W        W35847   2.391  10.813  16.153  0.1546 -0.0528  0.2904
20717W        W35848   9.170  13.998   0.450 -0.3274 -0.2662  0.1063
20718W        W35849   1.624   3.893  12.268  0.0472 -0.3808  0.0434
20719W        W35850  12.114  12.514   0.026 -0.2058  0.2440 -0.1515
20720W        W35851  11.789   9.501  11.812 -0.0643 -0.0727 -0.2334
20721W        W35852   8.550  16.148  15.964 -0.2823 -0.1363 -0.2783
20722W        W35853  12.318   1.971   5.059  0.0419 -0.0139  0.0248
20723W        W35854   4.113   5.670  10.049  0.1026  0.0864  0.3177
20724W        W35855   1.320   6.931   2.083 -0.0988 -0.0177 -0.1877
20725W        W35856  10.617  14.878   1.318  0.1609  0.1652 -0.0706
20726W        W35857   5.368  17.378  11.676 -0.0086 -0.0401  0.1060
20727W        W35858   3.111  11.033   5.635  0.0197  0.0398 -0.0822
20728W        W35859   2.199  12.582   0.258 -0.1508  0.2339  0.0133
20729W        W35860   4.951  10.339   4.121 -0.0413 -0.1737  0.1518
20730W        W35861  11.575   0.465   0.325 -0.2990  0.0901  0.1038
20731W        W35862  10.209  12.916  13.387 -0.3493 -0.1409 -0.1001
20732W        W35863   1.181   0.888  15.466 -0.0505 -0.3993 -0.0804
20733W        W35864  14.985   8.186  11.564 -0.0932 -0.1521 -0.1357
20734W        W35865  11.191   8.672   4.947 -0.1354  0.1206 -0.2488
20735W        W35866   0.094   4.703   6.037 -0.3692 -0.1441  0.3124
20736W        W35867   1.490   5.386   4.560  0.0505  0.2346 -0.4238
20737W        W35868  16.353  14.923  12.026  0.2580 -0.4200 -0.0475
20738W        W35869  14.685  16.711  10.720  0.0940 -0.1654 -0.0801
20739W        W35870   1.045  15.420  10.982 -0.0878  0.0218 -0.1498
20740W        W35871  12.389   0.867  14.822  0.1803  0.1541 -0.1873
20741W        W35872  15.074   4.630   3.423 -0.3160 -0.0864 -0.1215
20742W        W35873   1.352   8.586   5.832  0.0215 -0.0685 -0.3474
20743W        W35874  16.971  17.291  13.010 -0.4643  0.0910 -0.1054
20744W        W35875   2.583  12.584   2.321  0.0989 -0.0670 -0.0090
20745W        W35876  13.223  10.992   5.299  0.0663 -0.0276  0.0284
20746W        W35877  13.944   0.436   4.995 -0.0621 -0.2551 -0.1474
20747W        W35878  16.373   4.032   5.709  0.1151  0.0427 -0.1058
20748W        W35879   2.881   7.939  15.627  0.0589 -0.2422  0.0401
20749W        W35880  14.231   0.023  10.761 -0.0467  0.0151  0.1136
20750W        W35881   7.044  10.870   3.204  0.1527 -0.0520  0.0602
20751W        W35882  17.534  10.879  15.753  0.2968 -0.1403  0.0218
20752W        W35883  14.025   3.723   0.338  0.1968 -0.0974  0.1980
20753W        W35884   6.981   1.290  15.204  0.1241 -0.2480 -0.1737
20754W        W35885  10.317   8.004  14.262  0.3153 -0.0107  0.4832
20755W        W35886   2.360  12.459   6.010 -0.0639  0.0868  0.0288
20756W        W35887   9.864  11.400  11.615  0.0285  0.0993  0.0835
20757W        W35888   5.759   6.809   5.999 -0.1075  0.1274 -0.3823
20758W        W35889  13.801  17.570  11.982 -0.0295 -0.1121 -0.3013
20759W        W35890   3.321   1.451   4.438  0.1071  0.0234  0.2705
20760W        W35891   8.642  10.616  13.823  0.3309 -0.0449  0.0278
20761W        W35892   9.423   3.649   0.203 -0.0531 -0.3935  0.1226
20762W        W35893  11.483   7.760   5.333 -0.0393  0.2058 -0.0030
20763W        W35894  14.724  17.229   2.909 -0.0532 -0.0950  0.1848
20764W        W35895   0.981  10.363  13.371  0.0119  0.0162 -0.0203
20765W        W35896   2.499   1.492  13.910  0.0568  0.0845 -0.1745
20766W        W35897   3.276   2.847  11.442 -0.0864 -0.4965 -0.0448
20767W        W35898   7.355   0.203   4.641  0.0514  0.1622 -0.0877
20768W        W35899   8.882   3.340   5.748  0.1505 -0.0107 -0.0945
20769W        W35900  16.564  11.371   5.503  0.0449  0.0862  0.1623
20770W        W35901  15.180  12.865   1.591  0.1594 -0.0447 -0.2276
20771W        W35902   2.167  11.772  12.661 -0.1825 -0.3355 -0.1695
20772W        W35903  14.345  13.476   0.148  0.1434  0.1582  0.1177
20773W        W35904  15.991  13.024   3.809  0.0904  0.1455 -0.1106
20774W        W35905   5.101  15.557  11.535  0.1354 -0.1657 -0.0350
20775W        W35906   4.421   8.520  12.118  0.2065 -0.0121 -0.1710
20776W        W35907   4.726   6.030   1.085 -0.1248  0.2166 -0.0689
20777W        W35908  14.306  16.709  11.120 -0.1304 -0.0681  0.2529
20778W        W35909  13.014   4.883   0.796 -0.0818  0.0272 -0.3282
20779W        W35910   1.463   0.360  14.790  0.1786  0.4385 -0.2280
20780W        W35911   9.964  18.092   2.700 -0.0191  0.0333  0.1966
20781W        W35912   2.527  16.145   2.649 -0.0881 -0.1948  0.0102
20782W        W35913  13.514  13.819   2.728 -0.1126  0.0424 -0.2546
20783W        W35914  13.437   6.258  13.201  0.1196 -0.0598  0.2267
20784W        W35915   6.391   7.749  10.203  0.0157  0.2499 -0.0090
20785W        W35916  16.789   1.830  13.190  0.3269  0.0117 -0.1093
20786W        W35917  15.078   0.678   2.274  0.0821  0.1571 -0.1704
20787W        W35918   9.307   7.258   1.131  0.1056  0.0406  0.0566
20788W        W35919  13.419   8.636   4.130 -0.1032 -0.1096 -0.1402
20789W        W35920   0.434   5.136  14.018 -0.1511  0.2575  0.1513
20790W        W35921  12.593  17.903   2.973  0.4193 -0.0571 -0.1094
20791W        W35922   6.375  10.855  13.016 -0.3536 -0.2778 -0.0995
20792W        W35923  12.828   9.691   1.811  0.1086  0.1051 -0.2826
20793W        W35924   8.491   1.998   4.682  0.0328 -0.0018 -0.0491
20794W        W35925   4.405   2.328  12.010  0.0384  0.1904 -0.0217
20795W        W35926  16.900   4.523   2.536  0.3077 -0.0446  0.1188
20796W        W35927   8.497   5.250  10.786  0.1836  0.2828 -0.1892
20797W        W35928   3.498  15.057   4.693  0.0127  0.0218  0.1974
20798W        W35929   9.458   2.000  11.847 -0.0287 -0.0310 -0.1427
20799W        W35930  11.691  11.629   3.505 -0.0420  0.0202 -0.1225
20800W        W35931   7.866  16.140   1.375 -0.2079 -0.2603 -0.1581
20801W        W35932   0.855  17.174   1.035  0.0993 -0.1007  0.0181
20802W        W35933   9.276   9.008  13.768  0.0777  0.0230 -0.2129
20803W        W35934   5.284   8.387   3.526 -0.0295  0.0183 -0.1131
20804W        W35935  13.676  15.666   1.343 -0.0356  0.0774  0.0204
20805W        W35936  18.099   8.346  15.695  0.1299  0.1815 -0.0833
20806W        W35937   1.444  15.379   0.202 -0.0198  0.0414 -0.1071
20807W        W35938  10.025   5.974   1.784 -0.2306  0.0397  0.0802
20808W        W35939  11.976   5.682   3.247 -0.1583  0.1683  0.0647
20809W        W35940  10.226   0.265  13.207  0.2185  0.1555 -0.0307
20810W        W35941   7.025   7.392   4.734  0.1588 -0.2624  0.0107
20811W        W35942   4.335   8.937   2.336 -0.0251 -0.0517  0.0201
20812W        W35943   6.083  16.872   0.772  0.0228 -0.0550  0.2365
20813W        W35944  12.285   6.964  12.695 -0.1986  0.3101 -0.1487
20814W        W35945   0.244   3.120  15.089  0.2257  0.0863  0.2548
20815W        W35946  17.128  17.959   3.340  0.1938  0.0631  0.0320
20816W        W35947   3.428   6.678  14.437  0.1546  0.0583  0.1347
20817W        W35948   7.219   3.826   3.412 -0.1060  0.1361  0.3819
20818W        W35949   4.689  10.759  11.320  0.1766 -0.0727  0.0999
20819W        W35950   7.139  15.341  12.728 -0.1747 -0.0825 -0.0630
20820W        W35951  10.251   9.318  13.027  0.1294  0.0519 -0.0609
20821W        W35952   8.577   2.492  11.561 -0.0702  0.2084 -0.0973
20822W        W35953   5.277   8.739  13.532 -0.0955  0.1133 -0.1832
20823W        W35954   6.613  12.654  11.671  0.0173  0.0595  0.0220
20824W        W35955   7.621   5.181  12.112  0.3971 -0.1103 -0.1114
20825W        W35956   8.895   8.200  14.425  0.0121 -0.1288 -0.0316
20826W        W35957   6.201  16.472  11.720 -0.0104 -0.3025  0.2408
20827W        W35958   0.796   2.120  15.566 -0.0021 -0.0104  0.0506
20828W        W35959  16.671   1.224   3.818 -0.0133 -0.3097 -0.2608
20829W        W35960   6.312  14.919   2.748 -0.1501  0.2622  0.0392
20830W        W35961  14.724   5.484  14.437  0.1017  0.3231 -0.0191
20831W        W35962  17.935   5.967  12.768  0.0509 -0.0425 -0.2609
20832W        W35963   2.797   8.439  11.294 -0.1044  0.1619 -0.1161
20833W        W35964   4.976  14.826  13.178  0.0786 -0.2818  0.5061
20834W        W35965  10.839   5.789   0.201  0.0065 -0.4077 -0.0528
20835W        W35966   3.974   9.526   3.327 -0.1111 -0.1060  0.0314
20836W        W35967   5.610  10.871  15.375  0.3858 -0.0856 -0.0679
20837W        W35968   9.209   3.967  13.240 -0.1307  0.0027 -0.0955
20838W        W35969  16.469   5.915   3.456 -0.0004 -0.0351 -0.1350
20839W        W35970   6.730  15.781  14.397 -0.1454 -0.0080 -0.2592
20840W        W35971  15.480  14.894  14.060 -0.1671  0.0397 -0.1705
20841W        W35972   4.786  15.545   0.880  0.0547 -0.1032 -0.0250
20842W        W35973   0.474   9.096  15.384  0.3371 -0.1061  0.0022
20843W        W35974   1.927   3.842   2.491  0.2493  0.1832  0.2242
20844W        W35975  14.235   4.437   2.048  0.1400  0.2497  0.1729
20845W        W35976   8.061  12.808   3.116 -0.1005 -0.1822  0.1222
20846W        W35977  17.033   5.082  11.588  0.0663  0.2742 -0.0085
20847W        W35978  14.098  10.162   2.154  0.0047  0.1263 -0.0886
20848W        W35979  12.456  17.907   2.431  0.0453 -0.0124 -0.1712
20849W        W35980   6.524   6.898  15.025  0.1271  0.1620  0.0625
20850W        W35981   0.349  10.786  15.957  0.2063 -0.0022 -0.0067
20851W        W35982   1.354   3.101   4.696 -0.2325  0.0708  0.1291
20852W        W35983   0.597   0.376  11.870  0.1502  0.0568  0.0600
20853W        W35984   3.507  11.195   4.540  0.0937  0.3105  0.1892
20854W        W35985   4.552  10.610   1.967 -0.0333  0.1036 -0.0719
20855W        W35986  11.641  15.327  14.557 -0.0027 -0.0540  0.3644
20856W        W35987  15.698   9.859   1.086  0.2494 -0.7332  0.2717
20857W        W35988   2.693   9.326  12.219  0.0017  0.1066 -0.2667
20858W        W35989  13.414   8.776   2.619  0.2560 -0.1232  0.0315
20859W        W35990   0.043   6.688  13.279 -0.2134 -0.0870 -0.2686
20860W        W35991   3.797  10.197  16.107  0.1621 -0.4651 -0.2364
20861W        W35992  14.872  16.290  14.826  0.1588  0.0564  0.1185
20862W        W35993   8.722   2.192  15.816  0.3690 -0.1608 -0.0633
20863W        W35994   1.799   0.634  16.181  0.2450 -0.1900 -0.1774
20864W        W35995   5.707   1.647   3.506  0.0675 -0.3037  0.0561
20865W        W35996   9.891   0.741  15.826  0.1358 -0.1717  0.1914
20866W        W35997  13.651   6.699  15.906  0.2598 -0.1791  0.0227
20867W        W35998  11.344  16.898  11.839  0.1606  0.3216 -0.1008
20868W        W35999   7.551   1.923  12.383  0.2594 -0.2853 -0.1981
20869W        W36000   6.005  10.719   5.160  0.1104  0.2452 -0.1143
20870W        W36001  14.721   9.371   1.426  0.0090  0.3567 -0.0234
20871W        W36002  17.712  18.092  15.317  0.0428  0.0503  0.0501
20872W        W36003   2.147  12.218   3.502  0.1329 -0.0835  0.0318
20873W        W36004   8.089   0.617   1.646 -0.0032  0.0637 -0.2028
20874W        W36005   1.521   7.255  11.847 -0.1536  0.1059 -0.2884
20875W        W36006  16.271  15.735  14.400 -0.0327 -0.2207 -0.1360
20876W        W36007   0.115   2.910  11.775 -0.4737 -0.0041  0.0616
20877W        W36008   9.982   9.603   2.144 -0.1455  0.0718  0.0840
20878W        W36009  16.939   9.937   5.463 -0.2919 -0.0753 -0.0168
20879W        W36010  13.735  15.991  13.938  0.1819 -0.4092 -0.0240
20880W        W36011  12.496  17.487   2.708 -0.0225 -0.1553 -0.0424
20881W        W36012   0.101   2.494   4.351 -0.0022  0.3333  0.1763
20882W        W36013  10.802  17.423  15.383 -0.0991  0.1626 -0.3066
20883W        W36014  17.579   5.877   4.970  0.0031  0.0722  0.1103
20884W        W36015  15.949   3.587   3.709 -0.0346 -0.0412 -0.2411
20885W        W36016   5.996  12.513   4.439  0.0160  0.3501 -0.1292
20886W        W36017   9.308   4.975  14.961  0.1364 -0.3431  0.2410
20887W        W36018   6.863  16.855  12.365 -0.1194 -0.1799 -0.1446
20888W        W36019  11.637   1.065  12.561  0.1880 -0.0726 -0.0095
20889W        W36020   3.370   3.964   0.647  0.0065  0.2597  0.0257
20890W        W36021   0.565   8.010  12.815  0.1129 -0.1440  0.1234
20891W        W36022  12.764   4.760   5.043  0.0409 -0.0334  0.1410
20892W        W36023   9.111  14.120  10.897 -0.2644  0.3197  0.0452
20893W        W36024   0.093   0.672   2.264  0.0222  0.1348 -0.0371
20894W        W36025   7.542  14.466   0.260 -0.1110 -0.1817 -0.0869
20895W        W36026  16.206   3.388   5.016 -0.1196  0.1186  0.1073
20896W        W36027  16.577  16.230   1.017 -0.0750  0.3650 -0.1632
20897W        W36028  10.069  11.463   9.889  0.2180 -0.0839 -0.1083
20898W        W36029   4.981   2.195  15.949  0.3389  0.0446  0.1962
20899W        W36030   0.861   3.977  13.782  0.2399  0.3531  0.3253
20900W        W36031   2.904   8.130   6.364  0.0169 -0.1702 -0.2639
20901W        W36032  14.474   7.871   3.971 -0.0937  0.1691  0.1482
20902W        W36033   6.416   4.674  11.339  0.1798 -0.1073 -0.3142
20903W        W36034   3.471   7.130   5.380  0.1048 -0.0050  0.0346
20904W        W36035  13.684   7.667  16.062 -0.1039  0.2264 -0.0773
20905W        W36036  13.531   8.129  13.243 -0.0233 -0.2575  0.0918
20906W        W36037   8.992   7.308   3.721 -0.0904  0.3551 -0.2422
20907W        W36038   4.299   3.731  13.829 -0.3332  0.1293 -0.2414
20908W        W36039   3.700  10.329   4.632  0.0057 -0.2741  0.1520
20909W        W36040   7.436   5.665  13.233 -0.1526  0.1739  0.1636
20910W        W36041   6.271   6.157  15.233 -0.2260 -0.0655  0.0645
20911W        W36042  12.951  14.328  12.698 -0.1212 -0.2050 -0.2276
20912W        W36043   0.957  16.478  14.845 -0.0484 -0.2776 -0.1356
20913W        W36044  13.411  13.196   1.066  0.0270 -0.0781 -0.0746
20914W        W36045  11.463   1.230  14.183 -0.3328  0.2909  0.1430
20915W        W36046   4.028   9.235  13.989  0.0644  0.0045  0.0201
20916W        W36047   4.465   2.844   5.720  0.1451  0.3312 -0.2322
20917W        W36048   0.738  10.100   1.177  0.5410 -0.0607  0.0472
20918W        W36049   7.708  16.530   2.088 -0.0365 -0.2064  0.1265
20919W        W36050   4.607  16.605  16.128  0.0750 -0.1620  0.0081
20920W        W36051   1.201   1.303  15.170  0.3300  0.0653 -0.1580
20921W        W36052  14.966  13.699   1.588  0.0286  0.1485 -0.3857
20922W        W36053   1.637  17.424   2.350  0.0043 -0.3336  0.0514
20923W        W36054  12.363  10.840  12.174  0.1484  0.2304 -0.0750
20924W        W36055  17.054   8.224  10.340 -0.3371  0.0646 -0.1027
20925W        W36056  12.003   9.145   5.381 -0.0082 -0.2426 -0.0423
20926W        W36057  11.904   0.286  16.148 -0.0392 -0.1923  0.0298
20927W        W36058   4.327  16.492  14.366 -0.0776 -0.0967  0.0908
20928W        W36059   8.695   4.153  13.393  0.0162  0.4410 -0.0131
20929W        W36060  13.697  14.023  15.958  0.1070 -0.2432 -0.2375
20930W        W36061  15.850   3.548   2.618  0.0903 -0.0169 -0.1838
20931W        W36062   4.939   7.053   2.017  0.0098 -0.0401 -0.0294
20932W        W36063  16.063  13.240   6.365  0.0150 -0.1097 -0.0535
20933W        W36064  14.582  16.423  16.100 -0.2713  0.3990 -0.0629
20934W        W36065   5.402   4.853   3.418 -0.2008  0.1641 -0.1421
20935W        W36066   3.880   9.735  10.659  0.0972  0.1406 -0.0303
20936W        W36067   5.953   2.945   5.313  0.0662  0.3467  0.0114
20937W        W36068  16.361   2.182   2.475  0.1711 -0.1280  0.1937
20938W        W36069   6.002  11.183  11.008 -0.0268  0.2990 -0.0362
20939W        W36070  12.248   3.666   4.717 -0.0003 -0.0794  0.3176
20940W        W36071  13.410  11.493  12.765 -0.0642  0.2642  0.0357
20941W        W36072  13.389   6.134  11.444 -0.0750 -0.4485  0.1612
20942W        W36073  11.828  16.600  14.879  0.2990  0.0814 -0.2606
20943W        W36074   1.876  17.073  11.942  0.0672  0.3445 -0.1802
20944W        W36075   0.976   3.502   2.637  0.2061  0.0475  0.0405
20945W        W36076   3.401   0.328   4.248 -0.0651  0.3717  0.1088
20946W        W36077  13.828   9.139   0.846  0.4225 -0.0506 -0.0195
20947W        W36078   4.769   8.226   0.194  0.1508  0.1267 -0.0673
20948W        W36079   0.932  14.294   1.808 -0.1056  0.3433 -0.4659
20949W        W36080  16.388  12.858   0.583 -0.3515  0.1557 -0.1760
20950W        W36081   0.785  12.833   2.461  0.4168 -0.2684  0.0940
20951W        W36082  11.598  14.930   3.773 -0.1448  0.0150  0.2321
20952W        W36083   7.206   4.345  13.011 -0.0458 -0.0772 -0.0987
20953W        W36084  15.522  17.561   2.651 -0.1706  0.0307 -0.2706
20954W        W36085   2.670   5.365  16.234 -0.2059  0.0932  0.1079
20955W        W36086  10.740   7.824   0.707  0.2352  0.4207 -0.1127
20956W        W36087   2.473   9.864   1.141  0.1204  0.1322 -0.1897
20957W        W36088  13.104   4.025   1.868 -0.1405 -0.1999  0.0651
20958W        W36089   8.785  10.098   4.524  0.2826 -0.1276 -0.0108
20959W        W36090   6.372  15.853   4.814  0.2141 -0.0103 -0.1172
20960W        W36091   0.705   9.247  15.000 -0.0885  0.0306 -0.0346
20961W        W36092  11.518  16.414  13.794 -0.2081 -0.0472 -0.0879
20962W        W36093   4.504   9.702  13.578  0.1290 -0.0732 -0.6030
20963W        W36094  11.670   6.271   4.192  0.0397 -0.1231  0.2575
20964W        W36095   4.250   7.327   2.954  0.2168 -0.0022 -0.0254
20965W        W36096   7.177   9.588   5.616  0.0860 -0.0110  0.1302
20966W        W36097   1.834   1.766  11.727 -0.1626  0.1337  0.0614
20967W        W36098   0.514   7.472  13.588 -0.2932 -0.0538 -0.3140
20968W        W36099   7.799   0.592  11.578 -0.1160  0.0658 -0.1551
20969W        W36100  14.517   3.189   4.383  0.2710 -0.0323 -0.0093
20970W        W36101  16.551  12.093   3.435  0.0865 -0.0776 -0.3767
20971W        W36102  13.514  10.883   2.251  0.0803  0.0426  0.3031
20972W        W36103   8.529   3.193  13.997  0.0832  0.2451 -0.1208
20973W        W36104  17.597   7.078   3.939 -0.0036 -0.1926 -0.1828
20974W        W36105  13.340   0.832  13.696 -0.1656  0.0807 -0.1722
20975W        W36106   5.630   7.732  11.188  0.0406  0.0548  0.0518
20976W        W36107  15.120  10.925   0.770 -0.1113 -0.1388  0.1139
20977W        W36108   1.517  15.121  12.294  0.0499  0.1824 -0.2897
20978W        W36109  17.137  14.146  15.628  0.2742  0.3094  0.2791
20979W        W36110  14.415  16.016   3.734 -0.0880  0.1719  0.1203
20980W        W36111   3.551   4.705   1.044 -0.1613 -0.0472  0.4057
20981W        W36112  10.711   5.945  16.025  0.2984 -0.2555 -0.1018
20982W        W36113  10.160   1.816  14.895 -0.2336 -0.0863 -0.2981
20983W        W36114  15.024  13.706   4.475 -0.2199  0.0545  0.1379
20984W        W36115  15.176   2.059   1.515 -0.0247  0.1495 -0.2382
20985W        W36116  16.345   7.156   2.009 -0.0978 -0.2006 -0.0953
20986W        W36117  15.189  16.906   4.409  0.1889  0.3186 -0.1099
20987W        W36118  14.279   4.209  10.507  0.4211 -0.0894  0.4587
20988W        W36119  11.823   9.892   3.510 -0.0598 -0.2294  0.0428
20989W        W36120  15.832  17.500   3.968 -0.1715  0.0196 -0.2679
20990W        W36121   8.340  17.356  12.747 -0.2016 -0.0658 -0.0428
20991W        W36122  10.619  12.507  14.970 -0.1724 -0.3993 -0.0348
20992W        W36123   8.016   7.312   5.769  0.0324  0.0241 -0.2875
20993W        W36124   8.722  16.743   5.406  0.0041 -0.1054  0.1616
20994W        W36125  18.006   8.423  14.962  0.0485  0.0379  0.0630
20995W        W36126   6.014   5.512   1.427  0.2387 -0.0766  0.0007
20996W        W36127  12.181  17.095  11.153 -0.1181  0.0348 -0.0937
20997W        W36128   7.978   4.530  13.873 -0.0030 -0.0264  0.0253
20998W        W36129   0.138   7.425   3.421 -0.1191 -0.2174 -0.0623
20999W        W36130   9.394  13.393  11.269  0.5310  0.0226  0.0290
21000W        W36131   3.797   5.674  16.166 -0.1692 -0.2934 -0.1396
21001W        W36132  13.597   0.051   5.165  0.0046 -0.2955  0.5199
21002W        W36133   9.615   1.796  12.313 -0.2527  0.1261  0.0642
21003W        W36134   1.069   5.231   0.368 -0.0196 -0.0605  0.1135
21004W        W36135  16.704  13.313   4.340 -0.0267  0.0138 -0.1529
21005W        W36136  14.908   2.882  13.847  0.1803  0.1100 -0.0279
21006W        W36137   3.997   1.829  15.587  0.2624 -0.2116  0.0750
21007W        W36138   8.291   0.993   0.264 -0.2271 -0.4109 -0.0898
21008W        W36139   3.667   1.000   0.233 -0.3211  0.0068 -0.1240
21009W        W36140   4.168   8.740   2.852  0.0844  0.1029 -0.2376
21010W        W36141   2.815   1.295  15.904 -0.1019 -0.0381  0.1602
21011W        W36142   0.154  16.958   4.365  0.1808 -0.1294  0.0156
21012W        W36143  11.240  15.587  11.389  0.2880  0.0337  0.0073
21013W        W36144   8.849  15.970  11.649 -0.3548  0.2142  0.0861
21014W        W36145   9.884  14.395  15.374 -0.1306 -0.0784 -0.1466
21015W        W36146  15.055  10.131   1.863  0.3026  0.2294 -0.1933
21016W        W36147  16.889   6.932   5.273 -0.1684  0.0406  0.2020
21017W        W36148  10.741  17.900  12.542  0.1310  0.3735  0.0754
21018W        W36149  10.328  17.301  14.294  0.1325  0.0063 -0.0487
21019W        W36150  15.756  17.588   2.145 -0.0451 -0.1813  0.1161
21020W        W36151  17.162  13.472  15.912 -0.2437 -0.0106  0.2402
21021W        W36152   7.169   2.819  13.566  0.1431  0.0291 -0.3008
21022W        W36153  14.041  17.172  11.171 -0.0635  0.0516 -0.0874
21023W        W36154  15.684   1.585   1.042  0.0820 -0.3264  0.2113
21024W        W36155   1.433  13.657   4.789 -0.0280 -0.0172  0.0116
21025W        W36156  13.049   8.618   1.702 -0.0225  0.2319 -0.1240
21026W        W36157  12.004   6.808   4.881 -0.1147  0.2848 -0.3981
21027W        W36158  12.407   2.005  12.565 -0.0138  0.1305 -0.1411
21028W        W36159  16.009   4.374   1.276 -0.2511  0.1146 -0.0280
21029W        W36160   9.827   8.547   1.477  0.1854  0.1403 -0.0591
21030W        W36161   5.153  11.772  10.525 -0.2066  0.1120 -0.2763
21031W        W36162   5.597   1.927   0.103 -0.0941  0.4661  0.1760
21032W        W36163  12.121   2.036   9.938 -0.1458  0.1462 -0.2028
21033W        W36164   6.461   1.500  11.806 -0.1557  0.1452  0.1551
21034W        W36165  10.802  12.523   1.372 -0.1589 -0.0901  0.3032
21035W        W36166  10.231   6.826   1.937  0.1901  0.2058  0.0011
21036W        W36167  13.305   9.925  13.465  0.0645 -0.0405  0.5826
21037W        W36168   9.482   7.748  13.698  0.2794 -0.1271  0.0068
21038W        W36169   1.782  12.621   3.450 -0.1323  0.0297  0.0962
21039W        W36170   6.089   1.747  12.405 -0.2172 -0.0560  0.0618
21040W        W36171  11.120   2.622   4.929 -0.0093 -0.2695  0.1351
21041W        W36172  11.903  13.306   1.351 -0.3476  0.1231 -0.2296
21042W        W36173  11.958  16.153   1.857 -0.0062  0.0171  0.0256
21043W        W36174   0.302   4.419  15.887 -0.1826  0.0578 -0.1481
21044W        W36175  10.866   9.395  13.340 -0.0024 -0.1804  0.0687
21045W        W36176  12.999   1.696  14.853  0.1929 -0.0849 -0.0521
21046W        W36177   2.571  10.042   2.766  0.3049 -0.1795  0.2617
21047W        W36178   0.096  15.739   0.290  0.1836  0.1326 -0.0226
21048W        W36179   7.200   7.847   4.651  0.2962 -0.2336 -0.1236
21049W        W36180   5.659   9.096   2.660 -0.2525 -0.1255 -0.0094
21050W        W36181   2.806   1.577   0.997  0.0323 -0.1313 -0.2450
21051W        W36182  11.947  10.021   3.001  0.0618 -0.0986  0.0115
21052W        W36183   2.196  11.226  11.368 -0.0727 -0.0122  0.0265
21053W        W36184   6.291  16.139  15.264  0.0708 -0.3184  0.3220
21054W        W36185  11.348   2.541  14.169 -0.0614 -0.1103  0.1275
21055W        W36186  12.606   5.807   6.231 -0.1114 -0.0827  0.0481
21056W        W36187   6.093   5.492  12.016  0.3551 -0.1281  0.3104
21057W        W36188  15.561   2.093  10.394  0.1543  0.0735 -0.0218
21058W        W36189   5.737  10.063  13.056 -0.2338 -0.1576  0.1057
21059W        W36190   2.641  11.105   0.776  0.1699 -0.2614  0.2098
21060W        W36191   7.722   3.766  16.093 -0.0585 -0.0370  0.0912
21061W        W36192   1.413   3.786   2.212  0.0096  0.0336  0.2183
21062W        W36193  18.007  13.147  10.750 -0.1807 -0.3800  0.0826
21063W        W36194   3.086  15.315   3.543 -0.0859 -0.0733  0.1873
21064W        W36195   0.688  10.348   5.448 -0.2410 -0.0667 -0.1368
21065W        W36196   7.958  12.879   5.247  0.0578  0.1329 -0.1321
21066W        W36197   6.699   1.268   5.786 -0.1928  0.1277  0.2587
21067W        W36198  15.823   3.924  14.910 -0.2626  0.0112 -0.2566
21068W        W36199  13.401  16.159   5.670 -0.0334  0.1127  0.1813
21069W        W36200  14.152  13.835   4.056 -0.0902 -0.0190  0.0407
21070W        W36201  15.012   6.499  14.376  0.4244 -0.1251  0.1815
21071W        W36202   6.286  11.193   0.202 -0.2812  0.0147 -0.0710
21072W        W36203  16.076  11.538  14.617  0.3022 -0.4445 -0.1429
21073W        W36204   5.211   7.286   1.589  0.4259  0.0097 -0.3076
21074W        W36205   3.254   8.624  15.119 -0.1006  0.1706 -0.1849
21075W        W36206  14.163   3.613  11.389  0.2967 -0.0033  0.1786
21076W        W36207   4.138  18.059   0.852  0.0408  0.2365 -0.1769
21077W        W36208   0.867  16.831  10.987 -0.1877 -0.0528 -0.0489
21078W        W36209  11.001   8.166   3.455  0.2533 -0.0494 -0.0440
21079W        W36210  17.621   8.895   2.736 -0.3486 -0.4693 -0.4859
21080W        W36211   2.998   0.766   0.818  0.3361  0.0180  0.1869
21081W        W36212   9.143   9.271  12.683 -0.1588  0.3122  0.0950
21082W        W36213  12.826   9.525  14.901  0.2577 -0.3578  0.0747
21083W        W36214   9.350   3.919  14.084  0.2754  0.1460 -0.1125
21084W        W36215   5.596   3.909   2.410  0.0033 -0.0807  0.1495
21085W        W36216   9.714  10.699   1.595  0.3300  0.2264  0.2211
21086W        W36217   0.918   3.941   2.878 -0.2090 -0.0990 -0.0936
21087W        W36218  16.003  12.789   0.825  0.3341 -0.0880 -0.2302
21088W        W36219  10.149  13.750  13.258  0.2942  0.0554  0.1950
21089W        W36220  17.576   1.162  14.520  0.0544  0.2280 -0.0602
21090W        W36221  14.596  17.894  12.565  0.1419 -0.1302 -0.0300
21091W        W36222   2.127  13.346   2.634  0.1052  0.3594  0.0126
21092W        W36223   4.071   2.952   2.605 -0.2762  0.0844 -0.3150
21093W        W36224   7.919   1.905  12.753  0.1948  0.1485 -0.0588
21094W        W36225   6.209  11.188  14.289  0.0863  0.1579  0.2331
21095W        W36226  10.715   8.453  12.215  0.0947  0.0960 -0.0105
21096W        W36227  16.175   1.406  14.108  0.3980 -0.0340  0.0221
21097W        W36228   9.144   3.561  12.906 -0.1016  0.2082 -0.4910
21098W        W36229   7.580  14.861  11.148 -0.1786 -0.0943 -0.2649
21099W        W36230  16.883   2.373  13.386  0.1320 -0.2304 -0.0933
21100W        W36231   9.171   7.985  14.011 -0.0377  0.1120  0.0073
21101W        W36232   5.196  13.685  12.431  0.3169 -0.1497 -0.1195
21102W        W36233   0.624   7.729   0.712 -0.0701 -0.1420 -0.1119
21103W        W36234  10.277  12.978   4.184 -0.1091 -0.1645 -0.0031
21104W        W36235  16.107   4.283  13.506 -0.1225  0.2637 -0.2222
21105W        W36236   2.506   2.791  13.259 -0.0401 -0.2789  0.4396
21106W        W36237  11.954   9.577   1.913 -0.0133 -0.0155 -0.1803
21107W        W36238  11.540  15.025  12.034 -0.1518  0.1951  0.1544
21108W        W36239   2.077  13.971  14.228  0.0554  0.1206 -0.1524
21109W        W36240  13.641  13.732  14.924  0.1421  0.3030 -0.1530
21110W        W36241  10.054  10.877   0.194 -0.0440  0.1527  0.0461
21111W        W36242  15.665  10.984  15.762 -0.1834  0.0739  0.1782
21112W        W36243  12.337  17.685  14.032 -0.1523  0.2476  0.2225
21113W        W36244   5.275   5.703   0.715 -0.1354 -0.0705  0.2398
21114W        W36245  16.500   9.635  14.172 -0.0693  0.3064 -0.1627
21115W        W36246  17.840   0.468   6.004  0.0243 -0.3340 -0.1336
21116W        W36247   6.086   8.701   2.072 -0.2684 -0.3006  0.0216
21117W        W36248  10.165  12.128  11.257 -0.0407  0.1474  0.1124
21118W        W36249  11.350  13.473  13.841 -0.1398 -0.1739  0.1388
21119W        W36250   6.255  14.074  15.939  0.0161  0.1755 -0.0698
21120W        W36251  17.055   5.618  15.739  0.1402 -0.0186 -0.2069
21121W        W36252  10.043  17.733   3.209 -0.4938  0.1118  0.1537
21122W        W36253   5.582  15.348   1.671 -0.0553 -0.0663  0.0678
21123W        W36254  18.098   3.478  14.335 -0.0603 -0.2344 -0.0064
21124W        W36255  11.856   1.685  14.259  0.3258  0.1834 -0.0134
21125W        W36256   4.209  14.225  15.532 -0.0125  0.1233  0.0202
21126W        W36257  12.745  16.057   4.649  0.0594 -0.1203  0.0435
21127W        W36258   2.580   7.152  14.285  0.0989  0.0441 -0.0178
21128W        W36259   2.722  12.665  11.046  0.2090  0.1443  0.4038
21129W        W36260  14.512   4.474   0.817  0.2151  0.1404 -0.2802
21130W        W36261   0.720   5.050   5.924  0.1540 -0.1895  0.0946
21131W        W36262  14.193   1.467  11.874 -0.1768  0.2477  0.0729
21132W        W36263   0.136  11.901   1.078 -0.0892  0.2856 -0.2261
21133W        W36264  15.145   6.628   2.873 -0.1635 -0.0370 -0.2034
21134W        W36265   4.378   6.804   2.707 -0.1730 -0.0920 -0.1670
21135W        W36266   1.480  12.349   0.874 -0.1083  0.0968 -0.2024
21136W        W36267  17.991  16.055   4.841  0.0428  0.0697  0.0601
21137W        W36268   1.662   3.405  12.409  0.2131 -0.3400 -0.1201
21138W        W36269  11.384   6.057  13.023  0.0874 -0.0569 -0.0613
21139W        W36270   0.308   8.177  11.590 -0.3839  0.2205 -0.3384
21140W        W36271   0.963  12.922   2.022  0.4342 -0.1508 -0.0323
21141W        W36272  12.518   6.749  13.141  0.0832 -0.0745  0.1246
21142W        W36273  15.672  12.531   5.774 -0.1688 -0.2806 -0.0440
21143W        W36274   0.071   7.823   0.569  0.0593  0.3271 -0.1862
21144W        W36275  16.543   7.155  11.704 -0.0357 -0.0788 -0.0202
21145W        W36276  15.251   6.792   0.606  0.1525 -0.1008 -0.0390
21146W        W36277  12.524  12.783  11.953 -0.0524 -0.1721  0.0502
21147W        W36278   7.425   3.783  15.245 -0.2484  0.0198 -0.3839
21148W        W36279  13.154   7.098  15.943 -0.0909 -0.1229  0.0062
21149W        W36280   6.222   7.576   2.902 -0.3064  0.0645  0.2412
21150W        W36281   9.726  13.423  10.277 -0.1041  0.4615 -0.4092
21151W        W36282   5.695   5.472  14.879 -0.1244  0.0541 -0.0275
21152W        W36283  12.531   3.121   0.242 -0.1458 -0.0373 -0.2769
21153W        W36284  17.053   2.383   1.743  0.5166  0.0038  0.0312
21154W        W36285  16.679   3.377  14.217 -0.0126  0.0817 -0.0846
21155W        W36286  10.964  11.176  16.113  0.1967  0.1976  0.0036
21156W        W36287  11.374   0.623   4.021 -0.3768  0.1186 -0.2478
21157W        W36288   0.220  14.983  12.823  0.0716  0.1517  0.0863
21158W        W36289  17.233  15.161  14.731  0.5864  0.3317 -0.0016
21159W        W36290   9.187   8.988  14.349  0.2056  0.0367  0.2243
21160W        W36291  11.675   9.583   5.227  0.0764  0.0092 -0.1171
21161W        W36292   3.812   6.744  11.497 -0.2314  0.0932 -0.1129
21162W        W36293   7.572  13.738   3.582  0.1696 -0.1909 -0.1531
21163W        W36294  16.756  10.659  15.202  0.0174 -0.1185  0.0848
21164W        W36295  17.201   8.022   1.469 -0.1468 -0.1035 -0.0627
21165W        W36296   8.341   4.563  11.151  0.1347 -0.1710 -0.1034
21166W        W36297  14.410   1.351  14.878 -0.2426  0.0788 -0.3836
21167W        W36298   9.231   5.127  11.773  0.0771  0.0867  0.1952
21168W        W36299   1.757   7.891  13.752 -0.2927  0.0305  0.2497
21169W        W36300  11.910  12.492  12.728  0.3143 -0.1142 -0.3121
21170W        W36301  15.879   3.535   4.590  0.1348  0.1960  0.0698
21171W        W36302   0.329  17.461   2.800 -0.2854  0.1542  0.2083
21172W        W36303   5.354  12.826  10.448  0.0467 -0.3375  0.1179
21173W        W36304   5.271   6.701  16.179  0.4684  0.1631 -0.2032
21174W        W36305   4.153  12.573   2.957 -0.0944  0.2526  0.0715
21175W        W36306   2.181   4.128   4.207 -0.2347 -0.4670 -0.1637
21176W        W36307   4.651  12.240  11.816 -0.0641 -0.0269  0.0573
21177W        W36308   7.863   5.122  15.161 -0.1879  0.2223 -0.4533
21178W        W36309   1.940   8.377  16.089 -0.1071 -0.2546 -0.1268
21179W        W36310  12.858  11.941   2.792 -0.0997 -0.2877  0.5326
21180W        W36311  14.375   9.467  11.267  0.0828 -0.1139  0.0057
21181W        W36312   7.074   5.582   5.402 -0.1481  0.0791 -0.0315
21182W        W36313  11.266   8.837   1.673  0.4148  0.3979 -0.0289
21183W        W36314   8.267   9.449   0.336 -0.1561 -0.1808  0.1262
21184W        W36315   9.061  10.966   3.508  0.1245  0.1683  0.2509
21185W        W36316   8.038  16.891   2.835  0.3247  0.0654  0.0101
21186W        W36317  16.008  12.923   4.785  0.1224 -0.1375  0.1806
21187W        W36318   4.468  12.840  14.657 -0.1000 -0.1873  0.1774
21188W        W36319  10.708   4.251   4.455 -0.3220  0.2768 -0.0874
21189W        W36320  15.016  13.584  12.618 -0.2020 -0.0833  0.2876
21190W        W36321   7.462   0.680   5.591  0.3079 -0.1520  0.0509
21191W        W36322  12.505   1.328  14.276 -0.0358 -0.0987 -0.0432
21192W        W36323   7.727  17.768   3.832 -0.1542  0.1509 -0.3462
21193W        W36324   5.992  17.045   5.071  0.0448 -0.1301  0.1267
21194W        W36325  14.533   4.520   2.702  0.3823 -0.2209  0.1455
21195W        W36326   9.185   0.715   5.353  0.0560 -0.5158  0.0678
21196W        W36327  10.637   8.727  15.748 -0.0112  0.2313 -0.0053
21197W        W36328  10.793   1.704  14.122 -0.0852  0.0555 -0.0103
21198W        W36329  16.264   3.804   5.306 -0.1609  0.1422 -0.0948
21199W        W36330  10.549  10.903   4.334  0.0723 -0.3204 -0.1778
21200W        W36331   4.788   4.359  12.174 -0.1370  0.0283  0.4293
21201W        W36332  14.958  16.755   5.213  0.0186 -0.0956 -0.2063
21202W        W36333  12.819  11.821   4.215 -0.0804 -0.1867  0.3271
21203W        W36334  11.315   0.427   2.342  0.1370 -0.0226 -0.1808
21204W        W36335   8.212  11.767  16.208  0.0397  0.5343 -0.0801
21205W        W36336   0.430   9.880   2.431  0.1132 -0.0572  0.1924
21206W        W36337   1.143  12.013   1.052 -0.2236 -0.0409 -0.0448
21207W        W36338   1.079   2.137  11.982  0.2140  0.0810  0.0156
21208W        W36339   9.368  18.094   5.485  0.0533 -0.0981 -0.1175
21209W        W36340   7.184   4.315   0.633  0.3485  0.1331  0.2816
21210W        W36341  10.767  16.962   3.934 -0.0253 -0.1583  0.0461
21211W        W36342  10.259   8.532   2.523 -0.0061  0.1557  0.2320
21212W        W36343  17.592   6.538  14.442 -0.0581  0.0883 -0.0207
21213W        W36344   3.739  12.126   5.256 -0.1384 -0.1818 -0.2370
21214W        W36345  13.942   4.974  11.460 -0.1023  0.0845  0.2964
21215W        W36346   2.828   0.194   4.740 -0.1238  0.2202  0.0761
21216W        W36347   2.760  12.831   2.820  0.0019  0.0595 -0.2089
21217W        W36348  17.681   3.773   3.926 -0.0161 -0.2114  0.0332
21218W        W36349  11.130   0.566   1.418  0.2878  0.2570 -0.0547
21219W        W36350   4.934  15.906   3.565  0.3007 -0.1990  0.0167
21220W        W36351  10.442   1.735   3.386 -0.2485 -0.2576  0.1466
21221W        W36352   5.645   5.792   1.779  0.2018 -0.2570  0.0343
21222W        W36353  17.276  17.214  12.519 -0.4053 -0.2206 -0.0621
21223W        W36354  15.641  10.206   0.279  0.1654  0.3904 -0.1163
21224W        W36355   6.200   9.143  10.215  0.1917  0.0214  0.1657
21225W        W36356   0.937  16.429  11.340  0.2137  0.1205  0.2570
21226W        W36357   1.397  14.617   2.882  0.0202 -0.0258  0.0518
21227W        W36358  13.151   1.980  14.505 -0.0908  0.0902  0.1201
21228W        W36359  14.300  10.347  15.510  0.1918  0.0769 -0.2165
21229W        W36360   9.733   3.544  11.594  0.2588  0.1907  0.1960
21230W        W36361  12.231  15.626  13.409 -0.1610  0.1230 -0.0987
21231W        W36362   0.039  16.530   0.097 -0.2148  0.1844 -0.3867
21232W        W36363  13.144   4.660   3.309  0.2170  0.0179  0.1851
21233W        W36364  17.366   1.940  15.181  0.3448 -0.1086  0.0659
21234W        W36365   2.318   8.221   4.876 -0.0537  0.1637 -0.2914
21235W        W36366  15.590  10.015  11.092  0.1004 -0.2008 -0.2241
21236W        W36367  13.703  12.419  15.470 -0.0440 -0.0919 -0.0617
21237W        W36368  11.198   8.210  13.721 -0.1732 -0.1998 -0.3183
21238W        W36369  10.291   7.296  13.686  0.0641  0.0820 -0.0957
21239W        W36370   5.238  12.593  14.267  0.0641 -0.0856 -0.2156
21240W        W36371  16.033  13.568  12.554  0.0196  0.2689  0.0128
21241W        W36372   3.330  17.595  14.811 -0.0298 -0.1144 -0.0385
21242W        W36373  15.571  11.595   0.301 -0.0403  0.2925 -0.0541
21243W        W36374  11.160  12.329   2.581  0.1322 -0.1101  0.3127
21244W        W36375  18.032  10.628   1.267 -0.0436  0.1815 -0.0988
21245W        W36376   5.003   5.939   2.272 -0.2512  0.3334 -0.0104
21246W        W36377   8.694   8.219  15.269 -0.0482  0.3025 -0.3316
21247W        W36378  16.054   0.768   0.559  0.0628 -0.1777  0.0825
21248W        W36379   9.734  12.720   4.993  0.0185 -0.1057  0.3352
21249W        W36380   8.793   4.296  11.920  0.0854  0.1521 -0.0938
21250W        W36381   7.294   4.308  15.596 -0.2149  0.1773  0.1940
21251W        W36382  14.636   2.952  11.017  0.0511  0.1475  0.1744
21252W        W36383  12.239  14.007   2.937 -0.1938  0.2825 -0.0615
21253W        W36384  13.319   9.558  15.865  0.1322  0.2356 -0.0864
21254W        W36385   4.431   2.249   3.131 -0.2891 -0.2558  0.4352
21255W        W36386  15.774   1.037   1.902 -0.0099  0.3002  0.1648
21256W        W36387  17.515   3.229  13.480 -0.1708 -0.1006 -0.0647
21257W        W36388   2.178   7.411   4.932 -0.3616 -0.0808  0.4236
21258W        W36389   5.140  16.799   3.619 -0.0497  0.3808  0.2451
21259W        W36390   8.216   6.138  16.005 -0.2199 -0.2249  0.3093
21260W        W36391   1.387  16.131  11.217 -0.1466 -0.1191 -0.0978
21261W        W36392  13.382   2.232  14.867  0.1507  0.0622 -0.2920
21262W        W36393  14.874  14.745   2.525 -0.1668 -0.2262 -0.1000
21263W        W36394  11.665  10.330   3.804 -0.1211  0.0047  0.0050
21264W        W36395  10.567   4.832  16.101  0.1545  0.1564 -0.3100
21265W        W36396   6.054  15.213  11.124 -0.4178  0.1171  0.0204
21266W        W36397   4.155  14.204   4.921 -0.1320  0.3261 -0.0498
21267W        W36398   5.265   7.850  12.659  0.3562 -0.0059  0.2081
21268W        W36399  11.314   6.938  16.042 -0.0425 -0.1383  0.0692
21269W        W36400  12.555  15.411  14.786  0.1720  0.1960 -0.2259
21270W        W36401   5.388   5.171   0.017 -0.0611 -0.1037  0.2671
21271W        W36402  11.335  10.719   3.899 -0.1703 -0.0845  0.1120
21272W        W36403  15.279  17.473  14.967 -0.1941 -0.2220  0.2011
21273W        W36404   2.676  14.066  12.580 -0.1268 -0.3281  0.0332
21274W        W36405  10.114   1.989   1.299 -0.0717 -0.0822 -0.0549
21275W        W36406  14.827   4.704   4.192 -0.0307  0.0885  0.3916
21276W        W36407  17.577   4.580  15.725 -0.1289 -0.2141 -0.0717
21277W        W36408   7.852   1.021   6.189  0.2318  0.1173  0.0208
21278W        W36409  16.701   4.738  14.260 -0.2599  0.0836  0.2890
21279W        W36410   7.669  14.654   2.933  0.1444 -0.0174  0.0692
21280W        W36411   1.701   1.660  12.565  0.1512 -0.0006  0.2999
21281W        W36412  17.523  13.363   9.719  0.0401 -0.2048 -0.1447
21282W        W36413   1.952  13.933  14.708  0.1262  0.0636 -0.1083
21283W        W36414   0.818   7.158  11.448 -0.2398  0.2540 -0.0201
21284W        W36415  14.934  10.575  12.310 -0.1866 -0.2091 -0.2400
21285W        W36416   3.240   5.358  11.625 -0.1026 -0.0142  0.0827
21286W        W36417   6.564  13.795  15.556 -0.3265  0.0487  0.1527
21287W        W36418  10.131  12.530  14.854  0.1107  0.1685  0.0939
21288W        W36419  11.820  12.744   1.489 -0.3867 -0.0784  0.1934
21289W        W36420   3.164  12.135   4.888  0.1263  0.1433 -0.0311
21290W        W36421   4.874   1.339   1.542 -0.0742 -0.0275  0.1240
21291W        W36422   2.600   9.698  16.101 -0.0919  0.1038 -0.0384
21292W        W36423   0.742  11.076  15.654  0.0926 -0.0539 -0.1286
21293W        W36424  10.272  13.089   3.018 -0.0761  0.1571  0.0920
21294W        W36425   9.999   9.002  13.496 -0.1357 -0.0697  0.2110
21295W        W36426   7.578  14.516   4.505  0.0770  0.1334  0.2411
21296W        W36427  15.155   8.891   5.595  0.0595 -0.0691 -0.0793
21297W        W36428   9.833   4.592   0.031  0.2764  0.3267  0.1545
21298W        W36429  14.069   7.342  11.324 -0.0280  0.0409  0.2169
21299W        W36430   0.104   0.026  11.169  0.0901  0.3381  0.2192
21300W        W36431   5.805  11.977   0.930  0.1768 -0.0720 -0.1177
21301W        W36432   8.232  16.391   2.089 -0.2553  0.3168  0.1031
21302W        W36433  17.615   9.485  16.200  0.0275  0.1561  0.0960
21303W        W36434  15.168  13.102   0.024 -0.2431  0.0241  0.0950
21304W        W36435  11.418  15.933  15.605 -0.2808  0.1991 -0.0676
21305W        W36436  15.870   2.405   4.118 -0.0423 -0.0798 -0.1372
21306W        W36437   9.417   8.528  11.961 -0.0621 -0.0431 -0.0654
21307W        W36438  11.176   8.287   0.951  0.0557 -0.1748  0.0609
21308W        W36439   2.613  11.187   1.284 -0.3217 -0.0082  0.1097
21309W        W36440  11.694   2.183   2.276 -0.1581  0.0808  0.0742
21310W        W36441   9.166   8.092   1.840 -0.1376  0.2350  0.2004
21311W        W36442   8.768   3.184   5.196 -0.0292  0.0830 -0.0454
21312W        W36443   6.662   9.542   2.084  0.1623 -0.0855  0.0899
21313W        W36444  16.146   2.878   5.323 -0.0946 -0.1714  0.1647
21314W        W36445  15.006   2.314   0.259  0.0085 -0.3422 -0.0638
21315W        W36446  10.004   4.991  13.602 -0.0112  0.1077 -0.0552
21316W        W36447  17.890  16.208   2.358  0.0181  0.0122 -0.1482
21317W        W36448  18.086   3.700  11.314  0.1655 -0.1765  0.1852
21318W        W36449   8.769   9.267  14.178 -0.1988 -0.3084 -0.1958
21319W        W36450   0.414   9.155  15.933 -0.3400 -0.0584  0.0766
21320W        W36451   6.467   9.999   2.572  0.0404  0.1619 -0.3981
21321W        W36452   7.100  10.459   1.050  0.0921  0.2693  0.0994
21322W        W36453   8.900  17.538  15.130 -0.1001 -0.1969  0.0662
21323W        W36454   9.591   4.360  14.181  0.0231 -0.0038 -0.0558
21324W        W36455  13.532   6.336   0.979 -0.2919  0.1359  0.0662
21325W        W36456   7.527   6.401  14.986  0.1079  0.0689 -0.1434
21326W        W36457   2.084   8.745   2.774  0.0087  0.0845 -0.2380
21327W        W36458   4.076   7.412   0.371  0.1799  0.1330  0.4618
21328W        W36459   5.433  13.580  14.322 -0.0969  0.0310 -0.3117
21329W        W36460  14.462   8.016  12.302 -0.1092  0.0362 -0.0038
21330W        W36461   2.677   5.680  14.782  0.0816 -0.1021  0.0723
21331W        W36462   7.848   8.288  12.483 -0.0174 -0.1413  0.2123
21332W        W36463  16.834  11.841   4.764  0.1005  0.0540 -0.0108
21333W        W36464   8.501   7.065   0.899 -0.0527 -0.1153 -0.2519
21334W        W36465   6.897   1.442  12.878  0.1272 -0.2860  0.1701
21335W        W36466  11.814   2.208  14.695 -0.0531  0.1737  0.3323
21336W        W36467  15.338   9.293  10.570  0.1685  0.0355 -0.0504
21337W        W36468  12.883  14.767   3.089 -0.2818  0.1766  0.0406
21338W        W36469  17.195  14.553   0.307 -0.0853  0.0388 -0.1897
21339W        W36470  16.076   2.345   5.449 -0.1257 -0.0567  0.1107
21340W        W36471  12.189  16.044   3.311  0.0574 -0.2683 -0.2532
21341W        W36472   9.414   6.538  11.643 -0.1280 -0.2783 -0.0442
21342W        W36473   4.212   9.966   0.134  0.1508 -0.1714  0.0854
21343W        W36474   3.843  12.350  15.914  0.0805  0.2806  0.0068
21344W        W36475  16.464  12.233   0.373  0.4510 -0.1623 -0.0516
21345W        W36476   6.145  12.263  13.550 -0.0501  0.1005 -0.0124
21346W        W36477   4.697   1.472   0.977 -0.1451 -0.2869 -0.1688
21347W        W36478   5.694   1.509   6.108  0.2354 -0.4818  0.0418
21348W        W36479  13.149  13.483   4.073 -0.2357  0.0204  0.1973
21349W        W36480   6.895  14.445  11.564 -0.0115 -0.0543  0.2020
21350W        W36481   5.384   7.830  11.699  0.1651 -0.0499 -0.1854
21351W        W36482   9.856   8.515   5.412  0.1579  0.0709 -0.1282
21352W        W36483   2.817   2.561   3.938  0.1769 -0.0997 -0.1669
21353W        W36484  10.196   3.077  10.797 -0.1425  0.0249  0.0068
21354W        W36485  14.766  11.141  15.400 -0.2061  0.0013 -0.0767
21355W        W36486   0.222  13.010  13.417 -0.2484  0.1751  0.1871
21356W        W36487   2.960  11.600  13.591  0.0038  0.0145  0.2346
21357W        W36488  10.633  10.290   5.396  0.2342  0.1563  0.4121
21358W        W36489  17.417  12.724  11.102  0.0870  0.1088 -0.1703
21359W        W36490  11.368  10.695  11.762  0.1928  0.1768  0.2468
21360W        W36491  14.945  15.082   4.605  0.0982 -0.0062 -0.3034
21361W        W36492  10.065  11.621  13.698  0.1460  0.0423 -0.1184
21362W        W36493   6.345  17.929  15.912  0.0505  0.4661 -0.0849
21363W        W36494   5.618  12.443   4.788  0.0636 -0.0600  0.1515
21364W        W36495  12.992  12.735  10.935  0.1094  0.1045 -0.1194
21365W        W36496  10.024   5.174   5.749  0.1759  0.1154  0.0947
21366W        W36497   9.398   1.597   5.373  0.4305 -0.1225  0.0442
21367W        W36498  15.388   8.097   3.077 -0.0679  0.0050 -0.2703
21368W        W36499  11.345   9.759   5.674  0.6649  0.3055 -0.0867
21369W        W36500  12.241  12.087  15.726  0.1118  0.1511 -0.0479
21370W        W36501   9.415  13.160  13.727  0.1235  0.1432 -0.2883
21371W        W36502  16.565   7.879  13.974  0.2484 -0.1277 -0.4716
21372W        W36503   8.554  17.726  12.448 -0.0637 -0.0538 -0.0297
21373W        W36504   5.604  11.627   2.234 -0.2077  0.0963  0.0500
21374W        W36505  10.178   9.715  13.920  0.0268  0.1879 -0.2774
21375W        W36506  11.209  14.383  12.488 -0.0697  0.1314 -0.0560
21376W        W36507   7.972  13.466  12.543  0.1537  0.2088 -0.0792
21377W        W36508   0.371   1.815   0.487  0.2324 -0.1467 -0.2262
21378W        W36509  10.887   8.537   3.162 -0.2965  0.2677  0.2000
21379W        W36510   6.510   6.313   0.488  0.0297  0.3763 -0.2270
21380W        W36511   2.971   4.532  12.229  0.1864 -0.3099 -0.2710
21381W        W36512  17.009  11.576  11.128  0.4684  0.1492  0.0744
21382W        W36513  10.948   6.797   5.067  0.1550  0.2836  0.3401
21383W        W36514   4.393  12.165   1.764  0.1625  0.0245 -0.4065
21384W        W36515  17.955   9.825  15.474  0.3437 -0.2946  0.0640
21385W        W36516  13.214  15.506   2.468 -0.0811  0.0128 -0.1096
21386W        W36517  14.473   2.610  14.164  0.3175 -0.0818  0.1114
21387W        W36518  10.819   0.707  12.811 -0.1524 -0.1524 -0.0648
21388W        W36519   1.247  14.625  12.392 -0.1323 -0.3519  0.1291
21389W        W36520  11.589  15.575  12.402  0.1666 -0.2058  0.0313
21390W        W36521   0.219  13.132  16.218 -0.0245 -0.2058 -0.0565
21391W        W36522   6.819  10.421   2.483 -0.2530  0.0684  0.1530
21392W        W36523  11.911   2.809  15.870 -0.1183  0.2884  0.1669
21393W        W36524  17.107   5.790  12.430 -0.1818 -0.2876 -0.1119
21394W        W36525  13.110   0.113   5.354  0.0224 -0.0445 -0.1023
21395W        W36526   0.320  13.508   5.488  0.0652  0.0516 -0.0690
21396W        W36527   9.659  15.775   1.759  0.1506  0.2276 -0.3022
21397W        W36528  17.022  11.671  16.046  0.0536  0.1537 -0.2204
21398W        W36529   4.267   3.728  12.323 -0.0076  0.3576  0.0263
21399W        W36530   3.340   6.176  11.890  0.1414  0.1700  0.2445
21400W        W36531   3.957   1.629  11.069 -0.0718 -0.0720  0.0617
21401W        W36532   7.061   3.766   1.517 -0.0615  0.3592 -0.0378
21402W        W36533   5.035  12.198  14.101 -0.0368  0.1354 -0.3509
21403W        W36534   9.996   9.787  12.833 -0.3169  0.1835 -0.2734
21404W        W36535   8.016   7.713  14.762 -0.0535  0.0813 -0.0838
21405W        W36536   9.644  14.251  13.959  0.0226  0.0849  0.1967
21406W        W36537  14.920  10.216  13.505 -0.3628  0.0332  0.0730
21407W        W36538  15.512   0.713   5.568 -0.3019 -0.2533 -0.1322
21408W        W36539  12.048   2.512   5.503 -0.0603 -0.0327 -0.0281
21409W        W36540  16.043  11.670   5.420 -0.0945 -0.3711  0.1879
21410W        W36541   2.087   3.951  14.542  0.3554 -0.2398 -0.1787
21411W        W36542  17.225  14.829   2.399 -0.0229 -0.1318 -0.0486
21412W        W36543   7.365   2.947   2.563 -0.3233 -0.2796 -0.0331
21413W        W36544   1.548   0.009  15.668 -0.0687  0.1150 -0.1230
21414W        W36545  10.171   7.797   0.943  0.0547  0.3643 -0.2466
21415W        W36546  10.061   7.223  11.622  0.1544  0.0450 -0.2597
21416W        W36547  10.626   7.576  12.678 -0.0604  0.3237  0.1169
21417W        W36548   6.347  11.349  11.868  0.2088 -0.0012  0.0157
21418W        W36549  18.000  14.432   2.905 -0.1807 -0.0478 -0.1646
21419W        W36550  10.923  10.751  12.169  0.0900  0.0655  0.1029
21420W        W36551   1.844  12.807   4.096 -0.3189 -0.0296 -0.1141
21421W        W36552  15.075  10.860   2.548  0.0684 -0.2030 -0.0269
21422W        W36553   1.150  17.616   4.137 -0.1108  0.1980  0.2836
21423W        W36554  15.784  11.673  15.488  0.1338  0.0888  0.3407
21424W        W36555   3.170   7.305  11.842 -0.3906  0.0312 -0.0950
21425W        W36556  13.793   2.260   0.999  0.0733 -0.3317  0.1084
21426W        W36557   6.736   2.571  11.462 -0.0360 -0.4096 -0.2429
21427W        W36558  14.860  15.352   1.683 -0.0074 -0.0214 -0.0557
21428W        W36559   9.399   7.231   3.007  0.0058  0.1013  0.0964
21429W        W36560  15.511  14.479   0.928  0.0412  0.2450 -0.0092
21430W        W36561   6.244  11.801   1.263  0.0412 -0.0672  0.0352
21431W        W36562  12.639  13.640   5.554 -0.2815 -0.1104 -0.2765
21432W        W36563   3.926   4.398   1.352 -0.0713  0.0561  0.1325
21433W        W36564   1.201  17.262  13.617 -0.2015 -0.0523  0.1463
21434W        W36565  18.044   1.604   0.721  0.3213 -0.3288 -0.0522
21435W        W36566   7.887   1.876   4.574 -0.0416  0.3296  0.0754
21436W        W36567  17.804   6.232  14.006  0.1245 -0.2166 -0.1836
21437W        W36568   4.264   3.963   1.616 -0.0673 -0.1117  0.0642
21438W        W36569  11.713  15.694  16.089  0.1920 -0.1290 -0.0092
21439W        W36570  16.824  14.002   4.877 -0.1506  0.2119 -0.1957
21440W        W36571  16.549   3.025   4.241  0.0108 -0.2829 -0.0063
21441W        W36572   7.320  10.313   2.406 -0.0163  0.0487 -0.1098
21442W        W36573   2.299  14.357   1.916 -0.0976  0.2568  0.2302
21443W        W36574  11.431  10.031   4.770  0.1419  0.2162 -0.2100
21444W        W36575  10.642   7.373  14.512 -0.1353 -0.1935  0.3013
21445W        W36576  12.034   1.926  12.209 -0.1111  0.0038 -0.0285
21446W        W36577  15.957   1.041  14.353 -0.0915  0.0345 -0.1820
21447W        W36578  14.466  14.949   4.900  0.1531 -0.1162  0.0377
21448W        W36579  14.990  12.163   4.145 -0.1204 -0.0721 -0.0245
21449W        W36580  12.734  17.595   3.957  0.0429  0.3406  0.1083
21450W        W36581  15.833  10.885  12.665  0.0903  0.0282 -0.1317
21451W        W36582  17.710   1.946  11.072  0.0157  0.3676  0.1781
21452W        W36583  12.601  11.641  13.062 -0.1869  0.2954 -0.0195
21453W        W36584   5.126  13.519   2.632  0.0811 -0.1036 -0.0194
21454W        W36585  10.526  14.242   4.384 -0.0513 -0.1620  0.1600
21455W        W36586  16.428   8.364   3.084  0.3898  0.0594 -0.0157
21456W        W36587  18.066   2.163  15.886  0.0043  0.1413  0.0868
21457W        W36588  17.931  10.766  15.392 -0.1967 -0.1199  0.0710
21458W        W36589   1.843  16.827  10.166  0.0351  0.0018 -0.0025
21459W        W36590   8.913   3.229  12.202 -0.0258  0.0137 -0.0193
21460W        W36591   1.403  16.343  12.068 -0.1420  0.1741 -0.0562
21461W        W36592  10.885  12.536  11.703 -0.1155 -0.0488  0.0025
21462W        W36593   9.289  13.314   2.540 -0.2399  0.1781  0.1557
21463W        W36594  14.435  10.788  15.269 -0.1395 -0.0611  0.1507
21464W        W36595  15.416   8.076  15.835 -0.1199 -0.0336 -0.0179
21465W        W36596  14.538  15.316  14.010  0.1688  0.1455  0.1309
21466W        W36597  13.035   6.635   1.897 -0.1741  0.0573  0.3356
21467W        W36598  11.047   7.522  15.889  0.3201 -0.0781  0.0782
21468W        W36599   3.738   4.909  14.220  0.2863  0.1933 -0.1105
21469W        W36600  11.856  15.028   0.918  0.0967  0.1196  0.3214
21470W        W36601  12.911  11.160  11.932 -0.3211  0.0275 -0.1086
21471W        W36602  13.431   8.734  11.979  0.0038 -0.3648 -0.0337
21472W        W36603   2.093   9.868   2.088  0.0116 -0.1407 -0.0079
21473W        W36604   2.315   4.599  10.762  0.4667  0.0204  0.1971
21474W        W36605  13.702   4.321   3.289 -0.2987 -0.2228 -0.0039
21475W        W36606   9.423  15.606   5.561  0.0133 -0.2967 -0.1383
21476W        W36607  12.230  16.724   4.400 -0.0281  0.0091 -0.1742
21477W        W36608  12.351   7.673   3.287  0.3360 -0.1341  0.1457
21478W        W36609   1.123   2.964  11.593 -0.2594  0.0679 -0.0049
21479W        W36610   3.187   4.485  13.975 -0.0091  0.1144 -0.2706
21480W        W36611   7.392   8.127  15.837 -0.3814 -0.1380 -0.2377
21481W        W36612   5.958  16.771   1.318 -0.2707 -0.1585 -0.3603
21482W        W36613   1.053  16.954  14.468 -0.1013  0.0207 -0.0302
21483W        W36614   6.250   5.288  12.431  0.2627 -0.3908 -0.0851
21484W        W36615  12.327  13.124  14.374  0.0120  0.2858  0.0794
21485W        W36616  17.267   3.926   3.483  0.0667  0.2518 -0.0958
21486W        W36617  11.379   2.521   1.995 -0.2013 -0.0807  0.0077
21487W        W36618   7.270  16.801   4.480 -0.0289 -0.1226 -0.1315
21488W        W36619   1.637  13.994   5.756  0.2548  0.1705 -0.3418
21489W        W36620  13.765  16.907  10.453 -0.0695  0.0502  0.4659
21490W        W36621  15.904  12.303   0.290 -0.1358 -0.1063  0.2538
21491W        W36622  11.154   9.317   2.121 -0.0170 -0.2969 -0.0219
21492W        W36623   6.198   0.140  11.845  0.2185  0.1939 -0.1464
21493W        W36624  13.349  13.181  14.344 -0.2673 -0.4693 -0.1591
21494W        W36625  15.620  13.154   2.330  0.1010 -0.1392 -0.3122
21495W        W36626   1.582   3.730  15.342  0.0545  0.1534  0.1752
21496W        W36627  16.985  15.998   0.279 -0.5203  0.1057  0.1287
21497W        W36628   6.056   0.036   4.117  0.2110 -0.1440 -0.2933
21498W        W36629   7.620  10.267  10.927  0.0095 -0.1039  0.3303
21499W        W36630   1.969  10.111  15.518  0.1356  0.0768 -0.2581
21500W        W36631   2.351  12.790  16.068  0.3266 -0.1077  0.2884
21501W        W36632  17.440   7.843   2.250 -0.4052  0.1500  0.1018
21502W        W36633   6.125  16.308  13.676 -0.1063 -0.0407 -0.0488
21503W        W36634  15.565  11.707   3.542 -0.3307  0.2098 -0.1476
21504W        W36635   8.387   1.567   5.096  0.0146 -0.1561  0.0213
21505W        W36636   6.635  16.842  14.360 -0.2080  0.0123  0.2388
21506W        W36637  10.121  14.304  13.916  0.1186  0.0358  0.0125
21507W        W36638  15.265   5.642   0.194  0.1945 -0.3338 -0.1494
21508W        W36639  10.361  15.843   0.289 -0.1460 -0.1952 -0.0745
21509W        W36640  16.312   2.655  12.724  0.0402  0.0924 -0.1614
21510W        W36641   1.358   2.980  13.728  0.0782  0.1514  0.0903
21511W        W36642  11.952   6.908  10.965 -0.0587 -0.2376  0.0693
21512W        W36643   6.319  12.098  15.240 -0.0495 -0.0198  0.0472
21513W        W36644  12.046   0.282  14.188 -0.1588  0.2707  0.1819
21514W        W36645   1.881   9.138  13.262  0.1051 -0.1745  0.0102
21515W        W36646   1.356  10.866   1.994  0.0868  0.0168 -0.2483
21516W        W36647   6.581  15.050   0.291 -0.0827 -0.0116 -0.1681
21517W        W36648   6.773  16.226   5.631  0.1484 -0.0489  0.0433
21518W        W36649   6.225   3.645  10.730  0.0921 -0.1092  0.1037
21519W        W36650   8.763   6.514  12.308 -0.1672 -0.0977  0.0260
21520W        W36651   8.611  14.159   2.143 -0.0033  0.2570  0.0731
21521W        W36652  12.642  15.365   1.407 -0.0485  0.1636 -0.2082
21522W        W36653   2.164  10.465   5.730 -0.1432  0.4134 -0.0645
21523W        W36654  13.464  12.609  13.579 -0.0403 -0.2805 -0.1418
21524W        W36655   0.223   3.674  13.852  0.0568 -0.1268  0.0054
21525W        W36656   4.283   4.343  12.229  0.2265  0.0229  0.2250
21526W        W36657   6.874   1.923  12.823  0.3698  0.0366 -0.2462
21527W        W36658  11.936  13.618   6.171 -0.2859  0.1647  0.2099
21528W        W36659  16.528  13.488  15.895  0.1643 -0.0572  0.1128
21529W        W36660   3.977   2.770   5.075 -0.0759 -0.3032  0.1998
21530W        W36661  11.990   5.183   5.701  0.2352 -0.0534 -0.0105
21531W        W36662   8.048   4.456   5.537  0.0261  0.1444  0.0058
21532W        W36663   5.560   6.294  16.212  0.0992  0.0004  0.0137
21533W        W36664   6.907   1.488   2.722 -0.1892 -0.2010 -0.0262
21534W        W36665  15.358   7.837   4.721  0.0587  0.0403  0.0409
21535W        W36666  16.260  17.858  10.097 -0.0542 -0.1888 -0.0168
21536W        W36667   9.052  17.554   0.292  0.2194  0.0324 -0.1630
21537W        W36668   6.985   3.772  13.224  0.0912 -0.2786 -0.1837
21538W        W36669   8.695   8.277  13.945 -0.2989 -0.1298 -0.0468
21539W        W36670   4.011  13.295  11.570 -0.0445  0.0373 -0.1505
21540W        W36671  11.268  14.181  16.158 -0.1350 -0.2471 -0.0208
21541W        W36672  13.574  13.553  15.879  0.4438 -0.1184 -0.2332
21542W        W36673  13.931   9.742  12.743 -0.0277 -0.0735 -0.3117
21543W        W36674   0.385   8.648  15.770  0.0394  0.1332  0.0477
21544W        W36675  12.095  10.761   4.614 -0.1374 -0.1030  0.0093
21545W        W36676   1.312  10.717   2.938  0.0645  0.0185  0.1456
21546W        W36677   8.450   3.448   2.724 -0.2171  0.0523 -0.0698
21547W        W36678   6.025  10.167   5.062  0.1995 -0.1882 -0.3364
21548W        W36679  10.923   4.908  11.223  0.4100 -0.3745  0.1101
21549W        W36680  12.542  12.442   0.452 -0.1705  0.1267 -0.0381
21550W        W36681  10.610  10.365  13.372 -0.1235 -0.2300 -0.1741
21551W        W36682  11.278  12.925   3.329  0.2367 -0.0805  0.0257
21552W        W36683  11.973  14.296   3.818  0.0167  0.0128 -0.0911
21553W        W36684  13.571  11.400  13.212  0.1925 -0.1904  0.0379
21554W        W36685  11.820  12.618   5.958  0.1171 -0.1106 -0.1363
21555W        W36686   5.160   7.452   3.027  0.0229  0.1256  0.2064
21556W        W36687  11.351  10.810   3.234  0.0846 -0.0013 -0.2698
21557W        W36688   5.852   8.953   0.482 -0.2006 -0.0413 -0.0079
21558W        W36689   3.793  16.478   2.032  0.1935  0.1798  0.1507
21559W        W36690  12.361   5.283  13.868  0.0187 -0.1436 -0.0008
21560W        W36691  14.755   2.898   2.123 -0.2244  0.1719 -0.0278
21561W        W36692   8.766   1.672   4.433  0.1017 -0.0992 -0.1834
21562W        W36693   1.946   0.536   0.540  0.2192 -0.1673 -0.2481
21563W        W36694   2.109  11.045  11.933 -0.1712  0.0922 -0.3092
21564W        W36695   1.119   1.661   0.015  0.2289  0.1976 -0.3514
21565W        W36696   3.787   1.291  12.961  0.1522  0.1634 -0.0352
21566W        W36697   7.222  13.679   0.624 -0.2571 -0.0228  0.1109
21567W        W36698  16.460   1.545  11.198  0.1291  0.0692 -0.2643
21568W        W36699   0.304   7.279  10.602  0.0027  0.0899 -0.0402
21569W        W36700  15.392  12.852  15.882 -0.1777 -0.0700  0.0516
21570W        W36701   7.790  13.348   2.493  0.0107  0.1935  0.0405
21571W        W36702  17.920  15.742   2.150  0.0440 -0.2147 -0.2967
21572W        W36703   2.617   7.081  11.023 -0.1624  0.4102  0.0282
21573W        W36704  12.927  13.715  13.833 -0.1597  0.1647 -0.0678
21574W        W36705   8.902  12.828   5.777  0.1859 -0.0698 -0.0648
21575W        W36706  10.329   3.073   2.307 -0.2409 -0.2893 -0.1797
21576W        W36707   0.874   8.205  12.451 -0.0593  0.1678  0.0655
21577W        W36708  11.487   6.395  14.769  0.2244 -0.0122 -0.0573
21578W        W36709   0.465   8.430   1.211  0.0268 -0.0568 -0.1028
21579W        W36710   0.985   2.608  13.829 -0.1259  0.0850  0.1065
21580W        W36711   7.193   4.425  10.901  0.3117  0.0044 -0.4779
21581W        W36712   3.416   8.191   3.106 -0.0046 -0.1944 -0.0768
21582W        W36713  15.493   0.802   1.478 -0.0469 -0.0811  0.0178
21583W        W36714  17.087  13.149   5.617 -0.1575  0.1489 -0.0625
21584W        W36715   8.605   5.966  14.324  0.0140  0.3380 -0.2667
21585W        W36716   8.848  11.325  14.062  0.3694 -0.3300 -0.1173
21586W        W36717   9.158   2.534   4.922 -0.0847  0.0427  0.1982
21587W        W36718  17.711   9.407  12.383  0.0842 -0.1249 -0.0972
21588W        W36719   4.995  10.922   1.887  0.0010  0.2955  0.1677
21589W        W36720  10.651   4.063   1.511  0.1317 -0.1866 -0.2570
21590W        W36721  15.989   4.543   3.661  0.2388  0.1653 -0.0007
21591W        W36722   1.081  12.511   1.822 -0.0238  0.3511 -0.1174
21592W        W36723  18.101   2.913  15.630 -0.2617  0.0711  0.3041
21593W        W36724   2.773   7.184   1.226  0.2984 -0.0532 -0.1980
21594W        W36725  12.432  16.845   2.311 -0.0017  0.0181 -0.2714
21595W        W36726   4.024  10.564   4.954  0.0300 -0.0313 -0.3828
21596W        W36727  16.560  16.179  14.283 -0.1299 -0.0387  0.0364
21597W        W36728  13.428   1.829   0.713  0.0283  0.0164 -0.2031
21598W        W36729  11.479   9.292   1.745  0.1066  0.0650 -0.1664
21599W        W36730   2.454   4.409   4.516 -0.2278  0.0211  0.3803
21600W        W36731  17.001  11.350  14.052  0.1299  0.0053 -0.1564
21601W        W36732  15.266  15.028   5.034 -0.1526 -0.0226 -0.0079
21602W        W36733  15.421   2.581  10.660  0.1568 -0.2375  0.2078
21603W        W36734  10.983   2.268   2.855 -0.3436  0.0311 -0.1420
21604W        W36735   2.252  13.185   5.004 -0.0645 -0.0204  0.3235
21605W        W36736   7.863   7.629   3.034 -0.0377  0.0457 -0.2309
21606W        W36737   1.452   9.444  11.661  0.0470  0.1148  0.0048
21607W        W36738  15.502  14.161   2.356  0.2274  0.0354 -0.2056
21608W        W36739   2.803  13.377  13.872 -0.0904  0.1749  0.1065
21609W        W36740   6.410   4.286   0.335  0.0260  0.1421  0.2368
21610W        W36741  16.932  13.972  10.295  0.1148  0.2890 -0.1728
21611W        W36742   4.701  15.502   4.351 -0.2340  0.2071  0.0973
21612W        W36743  10.873   4.663   4.733 -0.0214 -0.0902  0.0350
21613W        W36744   4.374   3.761   4.041 -0.0567 -0.0507  0.4011
21614W        W36745  16.128   7.653   0.824 -0.0978  0.0958 -0.0151
21615W        W36746   6.915   7.834   0.195 -0.1318 -0.3553 -0.0230
21616W        W36747  13.153   5.064   5.369 -0.0380  0.4123  0.1738
21617W        W36748   2.246  12.853   3.425  0.0537 -0.2197 -0.1567
21618W        W36749  15.808  10.041  13.771 -0.1519 -0.0748  0.0516
21619W        W36750  16.383  16.305  14.721 -0.1366 -0.1323 -0.0260
21620W        W36751  12.270   0.955   2.267 -0.2748 -0.1094  0.0180
21621W        W36752   5.361   7.077   4.108 -0.1994 -0.0550  0.0963
21622W        W36753  16.790  12.135  16.170  0.0865  0.2601  0.1410
21623W        W36754   5.644   7.073   1.160 -0.2345  0.2981 -0.0128
21624W        W36755   9.178  12.587  15.583  0.4767  0.3067  0.1512
21625W        W36756   6.647  17.353   0.358  0.1658  0.0420  0.2278
21626W        W36757  17.161  12.197  13.658  0.0827  0.0105  0.0870
21627W        W36758  12.416  12.636  14.675  0.0301  0.0490 -0.0284
21628W        W36759   7.932  16.132   2.860  0.0655 -0.1599 -0.1257
21629W        W36760   9.112  12.238   0.901 -0.0715 -0.0988 -0.0224
21630W        W36761  15.414  10.830   1.437 -0.0840  0.0586 -0.1198
21631W        W36762   8.451  12.079  14.104  0.0936 -0.0768  0.2494
21632W        W36763  15.821  17.165   0.857  0.0419 -0.0887 -0.0975
21633W        W36764  12.287  16.978  14.869 -0.0070 -0.1797  0.1526
21634W        W36765  10.392   9.311  13.567 -0.2688 -0.1087 -0.0354
21635W        W36766  11.774   5.004  15.738 -0.3199  0.1034 -0.1035
21636W        W36767   8.262   3.581  14.683  0.3261  0.0160 -0.1429
21637W        W36768   5.561   4.958   3.926 -0.4118  0.0285  0.3911
21638W        W36769   2.375  16.021  13.384  0.2475 -0.0652  0.0727
21639W        W36770  13.045  10.424   0.094  0.0671 -0.0522  0.0391
21640W        W36771   6.541   2.720   0.587  0.1064  0.0484  0.0161
21641W        W36772  13.026  11.067   2.318 -0.0931  0.2774  0.1188
21642W        W36773  10.890  17.678  11.529  0.0385  0.0934 -0.0444
21643W        W36774  12.238  11.295  11.001 -0.1076  0.3502 -0.1915
21644W        W36775   7.852   1.726   2.275 -0.0853 -0.0494  0.0837
21645W        W36776   7.511   9.763  15.515 -0.1301  0.0301 -0.0661
21646W        W36777  18.080  11.491   0.803  0.1398 -0.2081  0.1832
21647W        W36778  15.177   0.955  13.320  0.0385  0.1623 -0.1772
21648W        W36779   9.640   5.064   4.506 -0.0913 -0.2004 -0.2662
21649W        W36780   3.054   2.677  14.837  0.0456  0.1600  0.1605
21650W        W36781   6.776  13.571   2.948  0.2035  0.0781  0.0844
21651W        W36782  14.421  13.254  14.641  0.0132  0.1797  0.2691
21652W        W36783   5.192   4.868   2.910  0.1377  0.2485 -0.2071
21653W        W36784   2.159   8.125  12.387  0.0369 -0.4378 -0.1572
21654W        W36785   0.368  11.535  12.723  0.1076 -0.2907  0.2370
21655W        W36786  17.471   8.371  14.870  0.5592 -0.2209 -0.0286
21656W        W36787   4.614  16.327  12.097  0.2822  0.0926  0.0103
21657W        W36788  12.356  16.435  13.324 -0.1583  0.0704  0.2543
21658W        W36789   2.398   5.400  10.511 -0.1432 -0.0067 -0.0468
21659W        W36790   4.464   3.298  13.555  0.1388 -0.0005  0.0761
21660W        W36791   2.475  10.419   3.784 -0.0032 -0.2124 -0.0445
21661W        W36792  16.842  15.917   6.348  0.2076 -0.0599  0.1619
21662W        W36793  13.419   7.471   2.889  0.1852  0.1800 -0.2071
21663W        W36794  10.414  15.583   3.037  0.0746 -0.0477  0.3601
21664W        W36795  11.781   4.934   3.603  0.0286 -0.1161 -0.1353
21665W        W36796   7.662   0.407   2.098 -0.0333  0.2280  0.0431
21666W        W36797   5.003   4.835   3.803  0.1833 -0.2519 -0.1822
21667W        W36798  16.379   9.165   2.808  0.1382 -0.1065  0.1239
21668W        W36799  13.432   9.551   3.361 -0.0099  0.0300  0.0365
21669W        W36800  17.898   1.654   2.716 -0.0878  0.1571  0.3044
21670W        W36801  15.697  15.558   4.394  0.0019 -0.0635 -0.0623
21671W        W36802  12.859   2.077  13.395  0.0375 -0.0851 -0.2852
21672W        W36803   2.461   8.840   2.109 -0.2128  0.1836 -0.0545
21673W        W36804  11.731  16.346  15.433  0.2185  0.3202  0.0157
21674W        W36805   9.588   5.575   1.031 -0.1350 -0.0582  0.0969
21675W        W36806  15.840  10.440  11.326 -0.2178 -0.2652 -0.2253
21676W        W36807   3.424   3.145  14.437 -0.4533  0.1830 -0.3226
21677W        W36808  16.843  15.026  12.237  0.0708  0.0564  0.2128
21678W        W36809  12.744  18.033   5.084  0.0792  0.0455  0.0401
21679W        W36810  16.066  15.431  12.020  0.0151 -0.1947  0.0093
21680W        W36811  14.966  11.909  11.465 -0.0204  0.0263 -0.0851
21681W        W36812  13.856  16.243  11.782 -0.1717 -0.1262 -0.0415
21682W        W36813   4.664  15.434   2.053 -0.1594  0.0544 -0.0127
21683W        W36814   4.064   5.933  12.602  0.2146  0.4581 -0.1993
21684W        W36815   7.273   3.498   1.903 -0.0990  0.1875 -0.1256
21685W        W36816   8.413   6.327   3.616  0.0573  0.0896 -0.2515
21686W        W36817  17.964  14.454  13.564 -0.1526 -0.0063  0.0990
21687W        W36818  13.251   2.055   3.004 -0.4144  0.2134 -0.1340
21688W        W36819  14.121   3.134  16.059  0.0509 -0.1977  0.2022
21689W        W36820  16.206   2.476   1.324 -0.0679 -0.2201 -0.0152
21690W        W36821  12.512  14.321   0.828 -0.0969 -0.0270  0.1807
21691W        W36822  11.284   3.118  10.077 -0.1106  0.0391  0.0293
21692W        W36823  15.286   6.112  14.690 -0.1903  0.0410  0.0336
21693W        W36824   4.797   2.434   4.901  0.0046 -0.0727 -0.1283
21694W        W36825   0.952   9.804   2.675  0.0249  0.0195 -0.1826
21695W        W36826  16.261   7.683   4.195  0.1166  0.0716 -0.0484
21696W        W36827   9.016   6.876  15.154 -0.0421 -0.4345  0.2813
21697W        W36828   4.205   0.234  14.405 -0.1050  0.0416  0.0310
21698W        W36829   9.049   5.414  12.617 -0.1789 -0.0044  0.1137
21699W        W36830   6.261  14.409  10.711  0.1698  0.1624  0.0912
21700W        W36831   4.692   7.111  11.527  0.1293 -0.2379 -0.1489
21701W        W36832  14.486  10.513   1.258 -0.0552 -0.1018  0.1931
21702W        W36833  12.203  14.380  12.114 -0.0589  0.2174 -0.0667
21703W        W36834   4.485   8.580   4.060 -0.1783 -0.0097  0.1631
21704W        W36835  10.581  10.739  14.812  0.1379 -0.0460  0.0110
21705W        W36836  16.872  10.030  12.138  0.0167  0.0642 -0.0580
21706W        W36837  13.462   3.977  11.480  0.0288 -0.2342 -0.2359
21707W        W36838  10.631   2.149  13.544 -0.1674 -0.1247  0.1207
21708W        W36839   6.400   1.910   0.676 -0.0576 -0.1141  0.1668
21709W        W36840   6.393  13.224  13.484  0.2944  0.0700  0.1364
21710W        W36841  15.208   4.120  15.567  0.0185 -0.1470  0.0074
21711W        W36842  16.302  17.278   4.546 -0.2873 -0.3619  0.1999
21712W        W36843   3.646  11.872  12.191 -0.2271 -0.0813  0.1835
21713W        W36844   5.116  11.568  14.971 -0.0187  0.2284 -0.0205
21714W        W36845   6.475  17.120   4.872 -0.1014 -0.1328  0.0387
21715W        W36846  17.837  10.316   4.445  0.0161  0.2408  0.1595
21716W        W36847   6.550  12.269  16.195 -0.3305  0.0803  0.0464
21717W        W36848   3.848   6.911   5.129 -0.1422 -0.1228 -0.2774
21718W        W36849  18.020   2.828  14.104 -0.2594  0.3015  0.2502
21719W        W36850  12.692   1.907   3.803  0.3968  0.0981  0.0834
21720W        W36851   4.486   9.928   0.750  0.3812  0.5525  0.0040
21721W        W36852  14.441   9.745  12.690  0.3158 -0.0402 -0.0379
21722W        W36853  10.632   5.475   3.830 -0.0851 -0.3776 -0.4590
21723W        W36854   8.767   5.738  11.610  0.0512  0.1059 -0.2773
21724W        W36855   6.016  15.708  10.900  0.0446 -0.3328 -0.1648
21725W        W36856  14.730   3.383   1.400  0.0663 -0.0786  0.1164
21726W        W36857  13.026   4.339   5.745 -0.1261  0.1397  0.1369
21727W        W36858   2.495   2.251   1.244 -0.0675 -0.0346 -0.0557
21728W        W36859   9.570  14.981  12.629  0.2657 -0.0119  0.1450
21729W        W36860   1.802  17.385   1.074 -0.1729  0.5914 -0.2083
21730W        W36861  17.691   5.180   3.733  0.1510 -0.1723 -0.1961
21731W        W36862   0.870  17.127  16.180 -0.0899 -0.1347  0.0781
21732W        W36863   9.215   2.008  15.832  0.2237  0.1389 -0.0587
21733W        W36864   1.256  11.336   1.758  0.0941  0.2090  0.1091
21734W        W36865   8.570   2.504   5.600  0.2030  0.1804  0.0455
21735W        W36866  13.557  10.162  12.886 -0.1633  0.0494 -0.1233
21736W        W36867   3.123  16.187  12.444 -0.0238 -0.1599 -0.3795
21737W        W36868   8.408   5.382  15.393 -0.0532  0.2367  0.1426
21738W        W36869   4.734  10.788  12.803  0.0576 -0.0671  0.0017
21739W        W36870   3.979  10.126   0.513  0.0427  0.0749 -0.0683
21740W        W36871  13.098   5.547  14.448  0.5070 -0.1540 -0.1373
21741W        W36872   2.018  18.084   2.189  0.1267 -0.0990 -0.2214
21742W        W36873  11.121   3.437  10.476  0.2327 -0.1001 -0.1374
21743W        W36874  14.542   9.850   0.453  0.1513  0.2417 -0.3247
21744W        W36875  11.593  11.055  12.710  0.0400 -0.0051 -0.1951
21745W        W36876  14.199  12.147  12.386 -0.0104 -0.1289 -0.2174
21746W        W36877   2.099   7.070  12.590  0.0523 -0.1317  0.1428
21747W        W36878   2.799   9.005  13.434 -0.2638  0.0733  0.1102
21748W        W36879   5.276   0.701   3.165 -0.1460 -0.3301 -0.0800
21749W        W36880   1.916   1.039  12.369  0.0014 -0.0623 -0.1914
21750W        W36881  13.054  10.201  13.072  0.0611  0.0209  0.0475
21751W        W36882   6.771   8.991   3.348 -0.0682  0.2785 -0.1299
21752W        W36883   6.325   9.573   3.390  0.2568 -0.0246 -0.1804
21753W        W36884   8.804  17.846   6.205 -0.1789  0.0282 -0.0552
21754W        W36885  17.782   6.967   1.685 -0.0129 -0.4188 -0.1778
21755W        W36886  17.822  17.512   0.141 -0.1009 -0.0544 -0.0895
21756W        W36887   5.577  13.174  11.852 -0.0955  0.1552  0.2290
21757W        W36888   8.767  12.724  12.473  0.1249 -0.1492 -0.1688
21758W        W36889   8.512  10.411  12.751  0.2825 -0.1011 -0.2021
21759W        W36890   6.636  17.822   4.981 -0.0749 -0.0551 -0.1711
21760W        W36891   5.509   7.902   2.144  0.0351  0.1160  0.2488
21761W        W36892   5.914  17.123   3.807  0.1998 -0.1431 -0.2576
21762W        W36893  17.566   6.645   4.721  0.5365 -0.0159 -0.1565
21763W        W36894   2.642   9.502   3.399 -0.1040  0.0230 -0.0410
21764W        W36895  16.777   9.188  12.007 -0.1783  0.1070  0.0637
21765W        W36896   0.588  16.972  10.246  0.0281 -0.0810  0.1104
21766W        W36897   7.438   9.387   3.978 -0.2787 -0.0379 -0.0207
21767W        W36898   7.947  10.133   1.850  0.1874  0.0874 -0.0299
21768W        W36899   8.233  12.050   2.519  0.1674 -0.1050 -0.1219
21769W        W36900   1.786  17.281  15.204  0.0500  0.2197 -0.3054
21770W        W36901   9.370   4.379  16.155  0.1453  0.0732 -0.1438
21771W        W36902   0.518   5.213   1.154  0.0374  0.3337  0.1101
21772W        W36903  13.593  12.773  15.193 -0.1688 -0.3310 -0.0105
21773W        W36904  17.459   6.715   5.231 -0.0956 -0.0542  0.0549
21774W        W36905   5.027   5.264   0.662  0.2059 -0.0503  0.0183
21775W        W36906   5.926  11.212  10.540 -0.1273 -0.0609 -0.3796
21776W        W36907   2.655   1.508  12.657 -0.2346 -0.0998  0.0402
21777W        W36908   2.145   4.004  13.638  0.2118  0.2629  0.1288
21778W        W36909   3.908  17.021  10.646 -0.0820  0.1512  0.1658
21779W        W36910   2.162  17.025  12.496 -0.2469 -0.0500  0.2548
21780W        W36911  11.248   1.720  14.303 -0.0608  0.0905 -0.1369
21781W        W36912   0.765   9.505  14.440 -0.0316 -0.1692  0.1971
21782W        W36913   1.063  10.280   0.253 -0.0975  0.0527 -0.3716
21783W        W36914   9.844  13.242   5.623 -0.2508  0.1440 -0.1489
21784W        W36915  12.551   6.248   5.034  0.2386 -0.4016 -0.0571
21785W        W36916  10.781   7.859   4.539 -0.2029  0.1076  0.2830
21786W        W36917   8.055  14.630  11.121  0.1854 -0.3498 -0.2129
21787W        W36918   6.538  10.791   4.464  0.1784  0.0277  0.0234
21788W        W36919   1.205   8.076   3.810 -0.0249 -0.0547 -0.1512
21789W        W36920  16.073  10.995  13.294 -0.1787  0.0556 -0.0266
21790W        W36921   0.597  14.964  16.004 -0.0167 -0.2381 -0.1553
21791W        W36922   2.325  13.428  15.593 -0.4562 -0.2765  0.0213
21792W        W36923   4.672   7.220  13.072  0.0678 -0.0967 -0.0469
21793W        W36924   4.024  12.427  11.759 -0.3386 -0.3556 -0.0233
21794W        W36925   7.730  17.319  10.347 -0.1321 -0.0214 -0.2835
21795W        W36926  15.128  17.328   0.921 -0.2898 -0.2366  0.0624
21796W        W36927  13.035   1.487   3.287  0.0771  0.0452 -0.1032
21797W        W36928   7.953   7.918   3.882 -0.1734 -0.0880 -0.2266
21798W        W36929   8.910  10.504  11.323 -0.1315  0.1019  0.1793
21799W        W36930   3.806  11.693  10.870  0.2053  0.1781  0.0698
21800W        W36931   4.929  17.573   1.054  0.2578  0.0179  0.2677
21801W        W36932   5.087  17.797   4.480  0.0144 -0.1197 -0.3174
21802W        W36933  10.742  16.893  13.468  0.0975 -0.3075 -0.3423
21803W        W36934   1.036  13.065  10.281 -0.1369  0.1133 -0.1811
21804W        W36935   1.587   5.106  15.026  0.2726  0.0208  0.1882
21805W        W36936  12.583   3.233   3.859  0.1211 -0.0304  0.2705
21806W        W36937   2.214   8.581   4.487  0.0257 -0.0609  0.3682
21807W        W36938  14.576   7.360  11.457 -0.0420  0.0136  0.1261
21808W        W36939  14.742   8.815   5.344  0.2481  0.0395  0.1129
21809W        W36940  13.648  11.757  11.850  0.0363  0.0846 -0.0039
21810W        W36941   9.266  13.091   3.873 -0.0994  0.0550 -0.0163
21811W        W36942  12.028   8.939   0.863  0.0765 -0.0340  0.1378
21812W        W36943  14.552   2.589  15.465  0.0339  0.0882  0.2410
21813W        W36944   4.006   0.673  10.579 -0.1638 -0.0734 -0.1493
21814W        W36945  14.254   6.183   0.891  0.0551 -0.1735  0.2229
21815W        W36946   3.694   4.828   3.963  0.0796  0.1776 -0.2126
21816W        W36947   3.296   2.553  13.536 -0.0602 -0.3292 -0.0355
21817W        W36948   1.129  17.988  12.584  0.0985 -0.0192 -0.2523
21818W        W36949  15.243  10.655   2.930 -0.2739 -0.3157 -0.1156
21819W        W36950   3.443   7.271   2.755 -0.0076 -0.0150 -0.0749
21820W        W36951  15.508   6.499   5.227 -0.0706 -0.3089 -0.1337
21821W        W36952   9.898   4.897  15.040  0.0697  0.2339 -0.0564
21822W        W36953  10.542   2.695  12.825 -0.1720  0.0117  0.0356
21823W        W36954  11.123   6.278  15.116  0.1248 -0.0544 -0.1988
21824W        W36955   7.428  12.264  11.442 -0.0125  0.1265  0.0941
21825W        W36956  11.707   7.512  11.383  0.1009  0.0577 -0.2118
21826W        W36957   1.437   2.534  13.388 -0.2532  0.0384 -0.0982
21827W        W36958   2.296  10.974   3.723  0.2608  0.0481 -0.3843
21828W        W36959   0.117  12.521   5.435  0.0755  0.0668  0.0839
21829W        W36960  10.544   9.758  11.031 -0.2192 -0.1039  0.0825
21830W        W36961   5.307  17.847   5.345  0.0341 -0.0074 -0.0329
21831W        W36962  17.524  14.354  12.121 -0.3132 -0.5538  0.2664
21832W        W36963  14.617  13.063   0.093 -0.1966  0.1290  0.0009
21833W        W36964  10.732  10.267   2.332  0.0551  0.4416  0.1587
21834W        W36965  11.958   4.370  14.914  0.1532  0.1044 -0.1645
21835W        W36966  17.528  13.032  15.250  0.2416 -0.0711 -0.0996
21836W        W36967   3.263  10.647   4.513  0.1903 -0.1080  0.2489
21837W        W36968   7.738   9.339  11.144 -0.2811 -0.0770  0.3751
21838W        W36969   4.379  10.357  11.578 -0.1683  0.0347  0.1492
21839W        W36970   5.690   5.110   5.063  0.0181  0.0160 -0.2429
21840W        W36971  10.398   1.605  11.462 -0.1957  0.2692 -0.0443
21841W        W36972  16.110  17.864   1.794 -0.1079 -0.0497 -0.0154
21842W        W36973  12.294   3.438  10.534  0.0776  0.0893  0.1035
21843W        W36974  17.322   2.051  13.325 -0.0591  0.0879 -0.1764
21844W        W36975   6.955   0.632  12.552 -0.1335  0.0063 -0.0081
21845W        W36976  14.422   3.653   5.391 -0.1677 -0.1956  0.1025
21846W        W36977  15.582   0.738  13.599 -0.1940 -0.0339  0.0143
21847W        W36978  16.268  10.868  12.379 -0.2504 -0.0528  0.1304
21848W        W36979   9.642   6.975  11.791  0.0717  0.1232  0.0078
21849W        W36980   1.627   0.245   0.304 -0.0799 -0.4204  0.3337
21850W        W36981   7.563  10.870  11.799  0.0635  0.0824  0.0176
21851W        W36982  10.675  11.548  10.449 -0.1010 -0.2022  0.2048
21852W        W36983  13.294   3.524   4.129  0.1192  0.1323 -0.2549
21853W        W36984   1.158   1.017   4.699  0.2362 -0.0251 -0.1332
21854W        W36985  12.756   6.220   3.973  0.0709  0.0008 -0.3412
21855W        W36986  10.183   5.808  10.966  0.1356  0.1521 -0.0357
21856W        W36987   8.979  13.752  15.169 -0.1626 -0.0337 -0.0864
21857W        W36988   6.698  15.194   2.904  0.1091  0.0101 -0.0834
21858W        W36989  17.778   6.503  10.319  0.2477 -0.2197  0.1101
21859W        W36990   1.199  10.255  12.957 -0.0135 -0.1749  0.4561
21860W        W36991   8.752   2.337  13.692 -0.2152 -0.1678 -0.0058
21861W        W36992   6.066   4.600   0.660 -0.2551 -0.0322  0.3164
21862W        W36993  11.742   8.712  14.711 -0.0265 -0.1411  0.0560
21863W        W36994   1.457  10.070   5.029 -0.1620  0.2025  0.2402
21864W        W36995   6.582   4.506   1.263  0.1722  0.2972  0.0521
21865W        W36996   4.290   7.571   5.205  0.0378 -0.1925 -0.1250
21866W        W36997  10.665   2.519   2.597 -0.0563 -0.2373 -0.0831
21867W        W36998  11.843   2.603  14.219  0.0041 -0.1363 -0.0427
21868W        W36999  15.776   8.805  12.133 -0.0486  0.2982  0.1779
21869W        W37000   1.699   5.965  15.611 -0.1135 -0.0333  0.0165
21870W        W37001  15.977  11.793  11.479  0.0234  0.1070  0.0341
21871W        W37002  10.963   4.513  12.869 -0.1033  0.0520 -0.0132
21872W        W37003  10.815  11.632  12.777 -0.3388  0.1862  0.0685
21873W        W37004   1.881  11.704   0.684 -0.3110 -0.1658  0.0346
21874W        W37005   3.128   8.542   2.840  0.2680  0.2685  0.0096
21875W        W37006   4.526  14.537   1.728  0.0540 -0.2962 -0.4600
21876W        W37007  12.002  18.094   4.124 -0.3753  0.2933  0.0234
21877W        W37008   6.838   5.112  14.227  0.0173 -0.2491 -0.3254
21878W        W37009   3.288   9.545  14.493  0.1849 -0.2894  0.1406
21879W        W37010  15.594   3.746  12.623  0.0124  0.1380  0.0693
21880W        W37011   1.951  11.830   5.317 -0.0771 -0.0520 -0.0893
21881W        W37012  15.919  11.899  12.265 -0.1076  0.0169  0.0967
21882W        W37013  14.503  12.579   4.978 -0.2374 -0.2675  0.2690
21883W        W37014   0.127   6.375  11.659 -0.2952 -0.1046 -0.0487
21884W        W37015  11.681   8.544   1.623 -0.2319  0.0236  0.2421
21885W        W37016   4.622   9.119   1.421 -0.2573  0.1466  0.0088
21886W        W37017   1.011  12.013  11.645  0.0239 -0.1477 -0.0191
21887W        W37018  13.524  15.571  13.822  0.1395 -0.0700  0.2266
21888W        W37019  10.501   1.725  14.547 -0.0994  0.1605 -0.2537
21889W        W37020   8.605  13.916   1.681 -0.0887  0.1360  0.0206
21890W        W37021   4.296  17.255  15.508 -0.1469 -0.2370 -0.0543
21891W        W37022   1.816   8.780  15.800 -0.2294  0.1549 -0.2224
21892W        W37023  14.097   8.932   1.878  0.3327 -0.0443 -0.1650
21893W        W37024   2.624   6.055   3.017 -0.0381  0.1602 -0.2407
21894W        W37025  15.451  13.633   3.255  0.0893  0.0951 -0.3851
21895W        W37026   1.759   4.537  11.441  0.2525  0.0763 -0.2149
21896W        W37027  15.023   7.268   4.116  0.2855  0.1814 -0.0999
21897W        W37028  14.042   0.607  14.583 -0.1329  0.1182 -0.2142
21898W        W37029  17.204   8.793  14.708  0.1694  0.0483 -0.3290
21899W        W37030  14.766  11.321   0.114 -0.0125 -0.1686  0.0625
21900W        W37031   6.558  10.087  10.552 -0.0696  0.1483  0.2536
21901W        W37032   5.793  16.932  12.442  0.2345 -0.1113  0.0066
21902W        W37033   8.269  13.328  16.160  0.1941  0.0609 -0.1040
21903W        W37034   6.761   8.107  10.614  0.0328 -0.0418 -0.0408
21904W        W37035   6.984   4.313   4.960  0.0754  0.3314 -0.0663
21905W        W37036   1.073   3.374   3.702 -0.0319  0.0944 -0.2843
21906W        W37037   2.601   9.963   3.595 -0.2546 -0.0877 -0.3633
21907W        W37038   8.949   9.638   3.872 -0.0535  0.1253  0.1131
21908W        W37039   9.404  12.994   5.862  0.3447  0.1743 -0.0702
21909W        W37040   2.639   7.693   4.841 -0.1419  0.0201  0.0899
21910W        W37041  17.306   5.794   4.596  0.1314  0.1421 -0.2174
21911W        W37042   7.741  17.982   4.637 -0.0228 -0.1360 -0.1658
21912W        W37043  14.622   4.889  15.940 -0.1821 -0.1697  0.2869
21913W        W37044   3.387  14.462   4.658 -0.0583  0.1217 -0.2449
21914W        W37045  14.560   6.313  12.550 -0.1095  0.1516 -0.2299
21915W        W37046  10.963   3.744   0.227  0.0117  0.3410 -0.2507
21916W        W37047   4.960   9.645  14.842 -0.1006  0.2370 -0.0658
21917W        W37048   1.760  16.370  15.618 -0.0668  0.2086 -0.1351
21918W        W37049   9.486   7.777   1.527 -0.0778  0.1927 -0.0039
21919W        W37050  11.451   2.232   1.515 -0.3365 -0.2755  0.1058
21920W        W37051  13.603   9.872   3.008  0.1593 -0.2494  0.2886
21921W        W37052  10.651   1.246  15.441 -0.0473 -0.0382  0.1906
21922W        W37053  12.104  13.761  10.897 -0.0977  0.0386  0.1050
21923W        W37054   3.278   5.156   1.347  0.0721 -0.1400  0.2673
21924W        W37055   6.874  15.435   2.470  0.5309  0.0503  0.0329
21925W        W37056  16.963   6.979   2.234 -0.1059  0.2062  0.0594
21926W        W37057   0.559   7.257   1.822  0.1848  0.1340 -0.0690
21927W        W37058  15.209  10.249  12.586 -0.0164 -0.1744 -0.0361
21928W        W37059  10.677   6.438  13.749  0.0948  0.0069  0.1626
21929W        W37060  10.308  11.983   5.166 -0.4004  0.1565 -0.1481
21930W        W37061  15.265  14.012  12.375  0.0145 -0.0735 -0.2959
21931W        W37062   7.576  15.026   4.445  0.0787 -0.2440 -0.3337
21932W        W37063  10.573  17.544   4.783 -0.1947 -0.0078  0.2126
21933W        W37064  15.965   7.298   4.382 -0.1261  0.2161 -0.0678
21934W        W37065  12.265  17.403   1.687  0.1906 -0.1612  0.2012
21935W        W37066   9.842   8.270   3.839  0.1905 -0.0149  0.0180
21936W        W37067   1.410   8.450   6.309 -0.1004  0.0471 -0.0379
21937W        W37068   6.244   5.216  15.073  0.0303 -0.1629  0.0441
21938W        W37069  13.781   8.945   2.223  0.0027 -0.2749  0.1947
21939W        W37070   1.720  17.856   2.588 -0.2469  0.0432 -0.0716
21940W        W37071   7.004  14.068  13.496  0.0021 -0.0560 -0.1206
21941W        W37072  17.189   4.902   1.046  0.1160  0.1599 -0.1499
21942W        W37073   9.328  10.905   0.935 -0.1306 -0.2240  0.1316
21943W        W37074   6.147  10.061   3.572  0.2138 -0.2699 -0.1309
21944W        W37075  10.868  16.711  14.898  0.1510 -0.1825 -0.0756
21945W        W37076  16.051   2.767   2.217 -0.2337  0.2123 -0.1183
21946W        W37077   6.498   5.150   5.044 -0.0286 -0.2024 -0.2552
21947W        W37078  15.069   7.319  16.153 -0.3615 -0.2078  0.2906
21948W        W37079   7.428   9.348  13.296  0.0831 -0.0789 -0.2628
21949W        W37080   2.092   3.996   1.692 -0.0464 -0.1572 -0.3428
21950W        W37081  11.543  12.279  12.445 -0.0675 -0.1262  0.0358
21951W        W37082  12.994   4.857   4.147 -0.1254  0.3582 -0.0940
21952W        W37083  17.310  13.381   0.238  0.1507 -0.2182  0.0306
21953W        W37084  10.654   4.200  15.210 -0.1476  0.0782 -0.0227
21954W        W37085  12.611   4.876  13.823  0.0270  0.0462  0.2757
21955W        W37086   7.693   9.951  11.760 -0.1027  0.1279 -0.0743
21956W        W37087   9.900   6.005   1.283  0.0893 -0.0186 -0.0406
21957W        W37088   1.990  10.383  11.422  0.0037 -0.0319 -0.0399
21958W        W37089   7.668   9.012  11.496 -0.2019  0.2407 -0.0830
21959W        W37090  15.878   4.718  13.981 -0.1894 -0.0723  0.4382
21960W        W37091  14.510   8.090   4.728  0.2762 -0.1515 -0.2583
21961W        W37092  12.547   5.205   2.888 -0.1290  0.0877  0.1895
21962W        W37093  10.871  13.863   3.189 -0.0371  0.1819 -0.0520
21963W        W37094   2.246   0.835   1.607 -0.2215 -0.1257 -0.2590
21964W        W37095  17.924  12.773   0.264 -0.1492 -0.1858  0.0376
21965W        W37096  10.457   7.070   2.842  0.0465 -0.0722 -0.0431
21966W        W37097   8.892  12.665  15.157  0.0222  0.0703  0.0766
21967W        W37098   5.387  13.847  11.973 -0.2245 -0.1057  0.4066
21968W        W37099   7.792  13.990   4.549  0.0864  0.0559 -0.3225
21969W        W37100   0.242  17.838   2.453 -0.2121  0.2559 -0.1391
21970W        W37101  11.326   1.403   0.030 -0.1320  0.3229 -0.2587
21971W        W37102  16.816   0.295  14.862  0.1771 -0.3456  0.0405
21972W        W37103   5.634  13.219  13.098 -0.0862 -0.0646  0.1221
21973W        W37104  10.774   0.957   2.323  0.5852 -0.1513 -0.3340
21974W        W37105   4.249   5.903   3.725  0.1072  0.2134 -0.0004
21975W        W37106  10.728   2.188   4.335 -0.1125  0.1240 -0.1008
21976W        W37107  11.422  14.072   3.811 -0.2781  0.1680  0.1396
21977W        W37108   4.836  13.397  14.155 -0.1210 -0.1037 -0.1307
21978W        W37109   1.753  11.712  11.480 -0.0449 -0.0206  0.0695
21979W        W37110  17.109   5.880  11.871  0.2424  0.2495 -0.1927
21980W        W37111   6.855   5.586  14.290  0.0286  0.1735  0.0872
21981W        W37112  15.935   7.954  11.487  0.1690  0.3105  0.3168
21982W        W37113  10.301   9.321  16.065  0.0696 -0.1932 -0.0003
21983W        W37114  10.125   7.297   4.742  0.0112 -0.1766 -0.0773
21984W        W37115  12.751  12.312   4.782  0.1865  0.0771  0.2705
21985W        W37116   3.973   2.845   3.457 -0.3450  0.0326 -0.1127
21986W        W37117   7.814   6.214   3.907  0.1184 -0.3648 -0.2974
21987W        W37118   8.256   8.188  11.315 -0.1336  0.0949  0.4300
21988W        W37119  14.024   7.449   1.674 -0.1227  0.0508  0.1434
21989W        W37120   5.240   6.596   4.250 -0.1206 -0.1407 -0.2644
21990W        W37121   7.279  10.608   3.603  0.2109  0.1311  0.1680
21991W        W37122   6.644   0.109   4.203 -0.2248 -0.2000  0.0356
21992W        W37123   1.374   9.713  11.223 -0.2676 -0.1214 -0.2063
21993W        W37124   2.739  17.426   0.119  0.0312  0.0127  0.0587
21994W        W37125  15.129  17.442   4.333 -0.0785 -0.2403 -0.0425
21995W        W37126   2.747  13.575  12.592 -0.0766 -0.1377 -0.1756
21996W        W37127  12.894  17.796   4.656 -0.2503  0.0132  0.0500
21997W        W37128  11.359   5.669   2.143 -0.0677 -0.1589 -0.2718
21998W        W37129  11.100   6.678  14.848  0.1387 -0.0409 -0.3422
21999W        W37130  16.046   8.143   2.644  0.0779  0.2476  0.0337
22000W        W37131  17.693   1.036   2.211  0.0034  0.0166  0.0633
22001W        W37132   1.028   8.405  14.810 -0.2341  0.0152  0.0988
22002W        W37133   4.421   2.461  14.915  0.0290 -0.3539 -0.0578
22003W        W37134  12.194   8.020  14.951 -0.1422 -0.1121  0.0361
22004W        W37135   2.055   9.022  11.680 -0.0861 -0.0232 -0.1885
22005W        W37136  17.844   7.743   0.922  0.0471 -0.0559  0.1341
22006W        W37137   8.847   9.337  10.746  0.1556  0.0520 -0.0669
22007W        W37138  11.093   6.212  13.948 -0.0255  0.1499  0.1095
22008W        W37139  15.560  13.322   0.343  0.3505  0.3201  0.2688
22009W        W37140   9.818  11.637   1.861 -0.0172  0.3131 -0.2398
22010W        W37141   7.756   4.617   4.674 -0.0355  0.1500 -0.2458
22011W        W37142   8.500   8.164  11.719 -0.1541  0.0387  0.0822
22012W        W37143   3.581  14.217  12.056 -0.1419 -0.0571 -0.1938
22013W        W37144   0.104   9.629   3.587 -0.0534 -0.1153 -0.0411
22014W        W37145   9.982   6.865   4.615 -0.1184 -0.2618  0.2382
22015W        W37146   1.494  11.644   1.425  0.0645 -0.0285  0.1043
22016W        W37147  10.740  17.245  11.797  0.2445  0.0889 -0.0964
22017W        W37148   2.801   4.538  10.554 -0.1999 -0.0185  0.2001
22018W        W37149   1.121  13.035  11.620  0.3578  0.2396 -0.1641
22019W        W37150  17.285   5.786  15.160 -0.2994 -0.0188 -0.3593
22020W        W37151  17.112  14.777  11.847  0.0005 -0.0325  0.2175
22021W        W37152   7.430   5.145   4.084 -0.2840 -0.2068 -0.0796
22022W        W37153   2.611  12.440   3.518  0.0968  0.0337 -0.2763
22023W        W37154   8.330   9.850   0.071 -0.0298  0.1014 -0.1080
22024W        W37155   7.596  13.887  11.315  0.1809  0.0331  0.0191
22025W        W37156   6.037  12.487   5.115  0.0057  0.1759 -0.1437
22026W        W37157   2.737  16.287  10.749 -0.1139 -0.1183 -0.3276
22027W        W37158   6.607   4.831  15.019  0.0738 -0.1683  0.1307
22028W        W37159  17.655   2.891  11.243  0.1211  0.0003 -0.1701
22029W        W37160   0.978   2.979  12.280 -0.2323 -0.0720 -0.0492
22030W        W37161   2.922  11.577   2.699  0.3187  0.1277  0.1307
22031W        W37162   4.253  13.587   2.683  0.2437  0.1723 -0.0661
22032W        W37163   9.506   0.739  10.063 -0.2306 -0.1789  0.1736
22033W        W37164  10.691   6.499  15.367 -0.0953 -0.0403  0.1740
22034W        W37165   8.925  10.042   4.064 -0.0505 -0.0914 -0.2988
22035W        W37166   5.338  14.757   4.683 -0.1673 -0.0712 -0.2305
22036W        W37167   3.343  17.021  10.543 -0.1540 -0.2575  0.1789
22037W        W37168  15.744  16.618   4.296  0.0630  0.0212 -0.1307
22038W        W37169  13.264  12.296  10.947 -0.2808  0.1531 -0.5173
22039W        W37170  17.351   3.281  11.166  0.0656 -0.1637 -0.0103
22040W        W37171   3.791   0.640  13.823  0.2676  0.2530 -0.0858
22041W        W37172   3.666   0.243  14.360  0.1394 -0.1125  0.3203
22042W        W37173  10.271  10.694  10.978  0.0972  0.0595 -0.0249
22043W        W37174  10.313  11.759   4.135  0.1327  0.1166  0.0382
22044W        W37175  14.474  14.786  14.417  0.0480 -0.1779  0.0711
22045W        W37176   4.711   7.247   2.953 -0.2636  0.2075  0.0482
22046W        W37177   3.008  16.874   3.000 -0.0916 -0.1787 -0.1658
22047W        W37178   1.923  14.543   2.954 -0.0408 -0.3478 -0.2101
22048W        W37179   7.296  17.225  16.101  0.1956 -0.2571  0.1641
22049W        W37180   7.445  12.473  11.852 -0.2040  0.1572 -0.0326
22050W        W37181   0.062  10.544   1.780 -0.2075 -0.2256 -0.0837
22051W        W37182   1.351  12.582  14.251 -0.1144 -0.0416  0.0232
22052W        W37183   3.921  12.468  13.967  0.1574  0.0467 -0.2992
22053W        W37184   6.595  10.791   0.382  0.4090  0.1676 -0.2207
22054W        W37185  12.638   0.717   4.495  0.1389 -0.1670 -0.0797
22055W        W37186  13.679   1.640  13.111  0.2391 -0.0628 -0.2117
22056W        W37187  15.773   5.354   3.168 -0.0672 -0.0035 -0.0297
22057W        W37188  17.500  14.528  11.666  0.2253 -0.1695  0.0290
22058W        W37189   7.244  15.936   3.991 -0.0265  0.0635 -0.0744
22059W        W37190   8.834  15.182   0.514 -0.1785 -0.1398 -0.0275
22060W        W37191   8.458  15.093   1.386 -0.0164 -0.2417  0.0275
22061W        W37192  12.513  13.762  12.143 -0.3898  0.1285 -0.0864
22062W        W37193   0.177   3.407  10.946  0.1861  0.1324  0.2339
22063W        W37194  11.011   1.159  15.967  0.2797 -0.0876 -0.0866
22064W        W37195   6.504   0.964   1.578 -0.1480 -0.0951  0.1265
22065W        W37196   2.555  14.942  15.842  0.0238  0.2230  0.2560
22066W        W37197   7.586   8.667   3.069 -0.1416 -0.0729 -0.4314
22067W        W37198   1.892  16.436  11.781  0.0025 -0.2330 -0.2132
22068W        W37199  13.366   7.673  12.653  0.3766  0.1717 -0.0889
22069W        W37200  16.854   7.256  12.965 -0.0597  0.0932 -0.1175
22070W        W37201  10.259   8.565   4.033 -0.0402 -0.1062 -0.0795
22071W        W37202   5.945   2.678  14.184  0.3107  0.0451 -0.4000
22072W        W37203   8.312   5.676  14.625 -0.1943  0.2820 -0.2293
22073W        W37204   5.498  10.219   4.933  0.0814 -0.0355  0.2143
22074W        W37205  17.730   2.300  11.448 -0.1424 -0.0792  0.1387
22075W        W37206  12.195   6.551   0.276  0.1912 -0.0391  0.3126
22076W        W37207   3.534  13.201  14.456  0.2491 -0.0139  0.3900
22077W        W37208   5.299  16.773  15.517 -0.0125 -0.0936 -0.0401
22078W        W37209  16.244  12.422   3.213  0.0755 -0.1640 -0.1607
22079W        W37210  11.486   4.930  13.957  0.0852 -0.2782 -0.1353
22080W        W37211   3.723   0.340   1.493 -0.1269 -0.0831 -0.1064
22081W        W37212  15.034  17.050  12.679  0.0490 -0.0109  0.1360
22082W        W37213   8.557  13.060   5.340  0.2259  0.0322 -0.0696
22083W        W37214   6.382  10.377  13.147  0.1135 -0.2047  0.1534
22084W        W37215   8.300   3.568  12.233 -0.0775  0.1112 -0.0914
22085W        W37216   4.717   5.392   4.628 -0.0516 -0.0956  0.0709
22086W        W37217   9.855  10.748  13.342  0.0979  0.1524 -0.2063
22087W        W37218  16.789  17.093  14.087  0.1273  0.2334 -0.0113
22088W        W37219   2.687  13.596   2.324 -0.0216  0.1049 -0.1529
22089W        W37220   1.447   4.322  13.361 -0.1246 -0.0095  0.1525
22090W        W37221  17.920  15.648  12.588 -0.0914  0.1746  0.0890
22091W        W37222  16.659   7.955   4.652  0.2190  0.3612 -0.1366
22092W        W37223  17.241  14.104   9.929 -0.0164 -0.2043  0.1598
22093W        W37224   6.114   9.216  12.753 -0.1023  0.2849  0.3991
22094W        W37225   8.801   8.779   3.856  0.2555  0.0179  0.1802
22095W        W37226   4.886  12.681  16.002  0.0318 -0.1641  0.1025
22096W        W37227   0.727   6.055  12.169  0.3792 -0.2216  0.1416
22097W        W37228  13.839   0.840  13.600 -0.1712 -0.0969 -0.1491
22098W        W37229  16.625   5.872   1.272 -0.0256  0.0620 -0.0844
22099W        W37230  15.276  13.276   1.117  0.1943  0.0155  0.2100
22100W        W37231  10.291  16.593  11.889  0.2011  0.0474  0.1953
22101W        W37232   7.597  11.696   5.975  0.0626  0.0294 -0.1975
22102W        W37233  16.764   8.339  16.072 -0.3884 -0.1544  0.0509
22103W        W37234   4.563  16.610  14.783  0.0174 -0.0425 -0.0952
22104W        W37235   9.289   3.112   2.877  0.2165  0.3378 -0.3085
22105W        W37236   6.233  10.416  11.918 -0.1001 -0.0183 -0.0175
22106W        W37237  16.473  17.757   4.602 -0.3000 -0.0428  0.0966
22107W        W37238   3.935  12.849   2.073  0.1345 -0.0891  0.1507
22108W        W37239  11.502  16.233   4.392  0.1737 -0.1453  0.0636
22109W        W37240  13.311  17.118  16.114  0.2010  0.2330 -0.1111
22110W        W37241  15.376   0.821   3.438 -0.2638  0.1948  0.0358
22111W        W37242   5.751   6.903  13.395  0.1997 -0.0847  0.0830
22112W        W37243  12.969   3.625   6.354  0.4793 -0.0533  0.1645
22113W        W37244   4.980  11.024   3.236 -0.2077 -0.1319 -0.0068
22114W        W37245   5.022  12.057  12.165  0.0741 -0.0807  0.0723
22115W        W37246  16.059  16.246   1.095 -0.0167  0.0711  0.1421
22116W        W37247  10.015  14.606  12.470  0.2138 -0.2304  0.0255
22117W        W37248  16.363  13.648   1.963 -0.0884 -0.0124 -0.0448
22118W        W37249  12.412  15.590   2.240 -0.2874  0.0462  0.0083
22119W        W37250   2.324  17.885  13.120 -0.0718  0.0539 -0.1998
22120W        W37251  11.898   7.856  13.143  0.2846  0.0903 -0.0647
22121W        W37252  16.056   1.957  10.183  0.2914 -0.2351 -0.0780
22122W        W37253  12.806   3.036  15.542  0.2146 -0.0277 -0.2123
22123W        W37254   9.887  15.002   4.126  0.0864 -0.1302  0.1776
22124W        W37255  18.000   7.593  11.021  0.2658  0.4275  0.3063
22125W        W37256  13.013   5.799  12.339  0.0192 -0.1796  0.2700
22126W        W37257   5.735   7.101  14.024 -0.1256  0.0654  0.2078
22127W        W37258   9.966  14.359  16.128  0.0550  0.0327  0.0336
22128W        W37259   5.587   2.249   3.508 -0.1424 -0.1314 -0.1104
22129W        W37260  11.555   2.783  15.474 -0.1922  0.1049 -0.2538
22130W        W37261   8.384   6.808   2.037  0.1381 -0.0866 -0.0356
22131W        W37262   5.503  10.310   2.338  0.0627 -0.2151 -0.1708
22132W        W37263   7.647  11.444   1.139  0.0724 -0.0461  0.0554
22133W        W37264  16.653  12.898  11.536 -0.0924 -0.0640 -0.1128
22134W        W37265   2.771  15.840   0.921 -0.2599  0.2224 -0.0922
22135W        W37266  11.906  14.586  15.139 -0.0999  0.1467 -0.4936
22136W        W37267   7.650  15.452  13.443 -0.2119 -0.4349 -0.0530
22137W        W37268   4.935  13.797   3.825  0.1192 -0.0896  0.0420
22138W        W37269   5.349  13.927   4.338 -0.3362 -0.3006 -0.3123
22139W        W37270   3.356   6.390  13.987  0.1057  0.3466 -0.0832
22140W        W37271   7.532  17.678   1.172  0.1709  0.1628 -0.2797
22141W        W37272  15.467  17.564  13.224  0.1620  0.2722 -0.1822
22142W        W37273   0.582   7.279   3.575 -0.0190 -0.2347  0.1065
22143W        W37274   0.962   8.480  10.373 -0.3259  0.4256  0.1832
22144W        W37275   1.999   8.076  13.356 -0.1664  0.1060  0.2190
22145W        W37276   5.851   1.138  13.574 -0.0949 -0.0497  0.1217
22146W        W37277   1.874  11.856  15.191  0.2558  0.0462 -0.1005
22147W        W37278   6.587   7.754  10.922  0.0630 -0.1510  0.2550
22148W        W37279  10.491   3.506   3.259 -0.2236  0.0533  0.1078
22149W        W37280  16.270   0.297   2.478 -0.1085  0.1322 -0.0503
22150W        W37281   4.691   1.907   2.902  0.0223 -0.0558  0.1442
22151W        W37282   3.094  11.858   0.275  0.0693 -0.0632 -0.2369
22152W        W37283   3.279  13.745   0.048 -0.0944 -0.0542  0.1078
22153W        W37284   2.139  18.017   2.792 -0.1631  0.2139 -0.1832
22154W        W37285  16.504  12.039   2.901  0.2759 -0.2726  0.3985
22155W        W37286  10.432  14.964   3.105  0.2959 -0.0298 -0.1284
22156W        W37287   7.151  10.756   2.680 -0.0903  0.0615 -0.0729
22157W        W37288   0.088  12.762   3.092  0.0990  0.0889 -0.0832
22158W        W37289  16.489   9.034   2.012 -0.2182  0.0381  0.1111
22159W        W37290   0.800   9.415   0.527 -0.1382 -0.0010 -0.1734
22160W        W37291  17.675  14.400  14.897  0.3416 -0.1658  0.1108
22161W        W37292   1.906   2.006  16.151 -0.0563 -0.0236  0.4344
22162W        W37293  18.050  17.275  12.229 -0.2288  0.1020 -0.3063
22163W        W37294   5.384   2.166   2.206 -0.1430 -0.4645 -0.0177
22164W        W37295  10.347   0.809   1.066  0.2006  0.0031  0.1287
22165W        W37296   5.180  10.315  12.857 -0.0663 -0.0945 -0.0133
22166W        W37297  13.153   4.542   5.260 -0.0846 -0.1290 -0.0215
22167W        W37298  16.971   1.723   2.957  0.0150 -0.3419 -0.1159
22168W        W37299   8.026  12.833  15.124  0.1440  0.0400  0.4553
22169W        W37300   6.955  13.977   6.021  0.1638  0.0313 -0.4118
22170W        W37301   0.078  12.062  15.198 -0.1412 -0.0348  0.1934
22171W        W37302   0.754   7.533   2.584 -0.2148  0.3744 -0.1861
22172W        W37303   0.079  14.370  14.006 -0.0264 -0.2305 -0.0913
22173W        W37304  16.099  13.507   5.964 -0.1821 -0.4089  0.0312
22174W        W37305   1.557   3.452  13.436  0.1146  0.0223 -0.1627
22175W        W37306  10.778  14.569  14.272  0.0577 -0.0062  0.1175
22176W        W37307  11.563   7.830  10.960 -0.0058  0.2043 -0.3466
22177W        W37308   3.577   3.240   0.721 -0.1828 -0.1344 -0.1252
22178W        W37309   8.594  17.130  14.362  0.1988 -0.0865 -0.1735
22179W        W37310   5.497   0.288  13.719  0.0896  0.3071  0.0533
22180W        W37311  13.656   3.077   4.832 -0.3299  0.2786  0.2891
22181W        W37312   5.520   8.174   3.171 -0.0996  0.1614  0.0792
22182W        W37313   2.995  12.681  15.276 -0.0515  0.0729  0.0705
22183W        W37314  11.419   0.746  11.207  0.0236  0.0706  0.0382
22184W        W37315  10.752   6.404  11.972  0.2107  0.2805 -0.1684
22185W        W37316   0.661   8.499  14.443  0.0341  0.1080 -0.0856
22186W        W37317   5.483   3.467  11.978 -0.0433  0.1004  0.0144
22187W        W37318  11.346   3.340  13.171 -0.0048 -0.0409 -0.2960
22188W        W37319   7.857   0.678   2.844 -0.0251 -0.0001 -0.0605
22189W        W37320   2.630   9.298  14.940 -0.0547  0.0599  0.0250
22190W        W37321   4.266   9.002  10.158 -0.1814  0.2899 -0.1078
22191W        W37322   0.194   3.733   5.964  0.2031 -0.1190  0.0618
22192W        W37323   3.552   1.369   3.771  0.2307 -0.1584  0.1857
22193W        W37324   3.717   8.251   1.924 -0.3299  0.1625 -0.1863
22194W        W37325  13.789   7.269   5.423 -0.0180 -0.0776  0.0751
22195W        W37326  11.531   4.881   1.011 -0.0659  0.3029 -0.2188
22196W        W37327   1.831   4.520  10.899 -0.0787 -0.1485 -0.1189
22197W        W37328  14.618   3.673   2.407  0.3964 -0.0386 -0.0192
22198W        W37329   7.798  13.808   2.686 -0.1208  0.1284 -0.1446
22199W        W37330   5.542   8.903   3.418  0.0427 -0.1901 -0.1748
22200W        W37331  13.780  11.606   2.376  0.0418 -0.0599 -0.1691
22201W        W37332   9.239  13.975   1.674  0.0489 -0.1016 -0.1253
22202W        W37333   3.994   2.698  12.942 -0.0835  0.3780 -0.1358
22203W        W37334  10.783   4.558   2.240  0.0890 -0.0617 -0.1240
22204W        W37335   3.875  15.928   1.900 -0.1213 -0.0947  0.1845
22205W        W37336   0.460  13.422   3.794  0.1376  0.0752  0.0197
22206W        W37337   7.729  14.763  12.550 -0.3931 -0.0324 -0.2135
22207W        W37338   0.369   4.798   3.452  0.0313 -0.0641  0.1552
22208W        W37339  15.861  17.191  10.622  0.2182  0.1151  0.0067
22209W        W37340  10.407  15.278   4.772 -0.0746 -0.2604  0.1174
22210W        W37341   4.932   4.811  13.539 -0.1539  0.0707  0.1781
22211W        W37342  15.678   8.723  11.587  0.2044 -0.0723 -0.1862
22212W        W37343   9.398  17.943  10.113 -0.0821 -0.1383 -0.2708
22213W        W37344  14.078   2.399  13.470 -0.1756 -0.1652  0.1049
22214W        W37345   4.034  10.422   3.445  0.0366 -0.1290 -0.0887
22215W        W37346  16.615   4.082   0.181 -0.0131 -0.0644  0.1215
22216W        W37347   9.377  16.981   2.830 -0.1301 -0.4045 -0.0829
22217W        W37348   0.574   0.159  13.614  0.0705  0.0948  0.0650
22218W        W37349  12.269  11.198   4.117  0.2870  0.0681 -0.1629
22219W        W37350  17.910  15.003   5.274  0.0119 -0.0452  0.3429
22220W        W37351   9.494  11.043   4.487  0.2445 -0.0765 -0.1534
22221W        W37352  11.203  17.422  15.666 -0.1125 -0.0085 -0.3498
22222W        W37353   6.746  10.303   4.556  0.0469  0.0629  0.1560
22223W        W37354  10.076  10.993   3.050 -0.1542  0.1758 -0.0074
22224W        W37355  12.058  13.041   1.811 -0.2085  0.0017 -0.1211
22225W        W37356   6.168   2.132  10.707  0.0128  0.3936  0.0403
22226W        W37357  11.014   8.046   3.977  0.2904  0.4222 -0.2419
22227W        W37358   9.602   4.781  12.840 -0.0127 -0.1196  0.0438
22228W        W37359   4.917   3.319  16.138  0.0846 -0.2765 -0.0782
22229W        W37360  13.481   3.532   0.366 -0.0346 -0.3955 -0.0107
22230W        W37361  11.092  12.567   5.286 -0.0484  0.2086 -0.2712
22231W        W37362  10.601   1.858   0.886  0.0445 -0.4340  0.1911
22232W        W37363   0.556   1.669  15.503  0.2609  0.0403  0.0962
22233W        W37364   4.268  11.754  14.601  0.0486 -0.0351  0.2339
22234W        W37365  14.526   6.297   4.204 -0.2392  0.1560 -0.2566
22235W        W37366  17.645   1.789  13.056 -0.0286  0.3748  0.2247
22236W        W37367  13.044   0.412  13.809 -0.1861  0.1148 -0.0464
22237W        W37368   2.121   9.920   4.531 -0.0297 -0.0533 -0.1209
22238W        W37369  11.726   5.580  10.019  0.0848  0.0946  0.1359
22239W        W37370  15.861  12.509   4.548  0.3221  0.2227 -0.4352
22240W        W37371   9.118  10.314  16.138 -0.0094  0.1529  0.1998
22241W        W37372   7.630  12.023   4.718  0.2352 -0.0239  0.1037
22242W        W37373  11.006   3.004  12.199 -0.0737 -0.1381  0.1610
22243W        W37374   0.915   0.696   0.378 -0.0009 -0.3085 -0.1382
22244W        W37375  16.514   8.805  16.076 -0.1294  0.1160 -0.2640
22245W        W37376   0.859  11.564  15.200 -0.1956 -0.2324  0.0700
22246W        W37377  14.725   1.546   3.750  0.0646  0.0472 -0.1759
22247W        W37378  15.813   0.650  14.064 -0.0620  0.0095 -0.0065
22248W        W37379  13.200   3.720   2.698 -0.0292 -0.0266 -0.0054
22249W        W37380   4.367   9.248  15.581  0.2183  0.0180  0.1332
22250W        W37381   8.970   7.313  14.771 -0.0151  0.3640  0.0613
22251W        W37382   9.733   3.319   4.308  0.2661  0.0906 -0.0815
22252W        W37383  17.255  11.732   5.069 -0.1256  0.1618 -0.1263
22253W        W37384   5.861  16.249   3.335 -0.0574  0.4064  0.0604
22254W        W37385  16.822   1.127   1.088  0.0460 -0.1598 -0.1491
22255W        W37386  14.930  11.102  11.828 -0.1157 -0.2456 -0.1393
22256W        W37387   2.460   7.752   3.099  0.0090 -0.4050 -0.3771
22257W        W37388  10.291   8.009   1.360 -0.1522 -0.0940  0.2775
22258W        W37389  13.005  10.060  15.316  0.0086 -0.0222 -0.1736
22259W        W37390   4.517   0.049   2.711 -0.3460 -0.0944 -0.0069
22260W        W37391   8.062   4.893  13.431  0.0659 -0.2275  0.0408
22261W        W37392   8.296  14.576  13.203 -0.1223  0.0011 -0.0060
22262W        W37393   0.692   1.446   4.881  0.0647 -0.2081 -0.0432
22263W        W37394  16.675   3.472  12.064  0.0291  0.1195 -0.0914
22264W        W37395   3.164  17.051  14.807 -0.2298 -0.1096 -0.0661
22265W        W37396  16.921  15.809   2.300  0.0114  0.4291  0.1342
22266W        W37397  12.156   6.374  14.355  0.1644  0.0384  0.1334
22267W        W37398  15.442  15.456  15.362 -0.0375  0.2342 -0.0559
22268W        W37399   6.872   3.884   3.819  0.0563 -0.0930  0.0279
22269W        W37400  16.983  11.404  12.135  0.0843  0.0906  0.0021
22270W        W37401  17.144   8.788  11.725  0.1684 -0.0723  0.4381
22271W        W37402  17.491  15.109   2.744  0.1131 -0.1327 -0.0115
22272W        W37403   6.382  14.996   1.050  0.1632 -0.0094  0.0126
22273W        W37404  13.859   3.414  13.052 -0.1426  0.1826 -0.0442
22274W        W37405   5.718  11.281  13.864 -0.0258 -0.0858 -0.0821
22275W        W37406   4.443   9.476   3.757  0.3718 -0.0211 -0.1077
22276W        W37407  14.701   3.345   0.895 -0.0893  0.1769  0.3544
22277W        W37408  10.227  12.602   0.572  0.1703 -0.0378 -0.0477
22278W        W37409  13.544  11.925   4.539 -0.0359 -0.1405  0.1759
22279W        W37410  12.512  17.100  15.275 -0.2283  0.1818  0.3355
22280W        W37411   0.791  13.921   2.821 -0.0006 -0.2280  0.1133
22281W        W37412  15.246  10.924   3.378  0.1071  0.1122  0.0826
22282W        W37413   7.599   4.015  13.240  0.0927  0.0756 -0.2512
22283W        W37414  12.184  10.814   0.166  0.1218  0.2078 -0.0214
22284W        W37415   9.895   0.111  12.273 -0.0016  0.0267 -0.0687
22285W        W37416   6.026   6.463   0.493 -0.0989 -0.0222 -0.0089
22286W        W37417   6.128  18.083   4.961 -0.2658  0.2835  0.1367
22287W        W37418   5.177   6.988  14.855  0.0219  0.3512  0.2419
22288W        W37419  15.306   1.360   5.930  0.1827  0.1135 -0.2240
22289W        W37420   2.694   6.156   4.782  0.1903 -0.2691 -0.1237
22290W        W37421   1.977   6.881  15.447  0.1956 -0.1241  0.0085
22291W        W37422   8.101  15.855   0.461  0.5217 -0.1211 -0.0031
22292W        W37423  17.204   5.523   3.415 -0.0536  0.4308 -0.2473
22293W        W37424  16.714  11.312   3.650 -0.0340 -0.3812  0.1616
22294W        W37425   5.199   2.119  10.689 -0.0167 -0.2039  0.3945
22295W        W37426   2.715   7.148  12.532 -0.0118 -0.0593 -0.0207
22296W        W37427  13.029  18.089   3.112  0.1451  0.1619  0.0922
22297W        W37428  15.162   2.756  13.448 -0.1097 -0.1339  0.0991
22298W        W37429  14.648   4.725  14.946 -0.0492  0.1459 -0.3056
22299W        W37430  10.729   0.631  11.255  0.0513 -0.1754  0.2802
22300W        W37431   8.153  12.515  13.164 -0.0528  0.0436  0.1626
22301W        W37432  10.709   5.388  11.253 -0.2160 -0.0337  0.1636
22302W        W37433  13.573  13.118  13.605 -0.1999 -0.0137  0.3204
22303W        W37434  13.121  12.238  12.243 -0.0998  0.0347 -0.2993
22304W        W37435   3.588   2.647   3.168  0.0095 -0.3008 -0.0918
22305W        W37436  12.800   4.077  12.622  0.0696 -0.0317 -0.1664
22306W        W37437  15.767  14.066   4.902 -0.1073  0.1385 -0.1321
22307W        W37438   4.757   1.293   4.592 -0.3354 -0.1282  0.1277
22308W        W37439  11.484   7.171   0.787  0.0709 -0.2620  0.0951
22309W        W37440   0.814  17.862  11.882 -0.1933 -0.1658 -0.5267
22310W        W37441   1.233   7.143   2.579  0.2217 -0.3271 -0.0949
22311W        W37442   8.741  11.477  14.912 -0.0455  0.0495  0.0572
22312W        W37443  15.268   0.877  10.479 -0.0388 -0.6111 -0.0312
22313W        W37444   8.287  15.127  13.008  0.1278 -0.0360  0.3019
22314W        W37445  13.322  12.117  11.776  0.2090  0.0463 -0.0431
22315W        W37446   8.784   0.885  16.081  0.1541 -0.0490  0.0178
22316W        W37447   3.260  14.153   0.633  0.2008  0.0293 -0.1562
22317W        W37448   8.060  10.485  12.399 -0.1705 -0.1426 -0.2176
22318W        W37449   7.333   0.350  12.726 -0.0394  0.3329  0.0701
22319W        W37450  12.103   0.157  15.350 -0.1209 -0.2915 -0.1139
22320W        W37451  12.813  11.657   1.130  0.1034  0.0693  0.0856
22321W        W37452   0.274  16.976  14.813  0.1042  0.0204 -0.0972
22322W        W37453  16.962  10.194   4.341  0.1159  0.1289  0.1505
22323W        W37454   5.076   0.619  14.007 -0.1674  0.0872  0.1336
22324W        W37455  14.691  12.835  14.563 -0.0562  0.0721 -0.0958
22325W        W37456   7.289  15.813  13.637  0.1565 -0.1652  0.4055
22326W        W37457   0.507  14.848   3.354 -0.0524 -0.1041  0.1488
22327W        W37458   5.149   6.055   0.363 -0.1046  0.0549  0.0656
22328W        W37459   4.313   6.330   2.504 -0.2594  0.0862  0.0549
22329W        W37460   2.929   4.438   3.073 -0.0843  0.1036  0.1530
22330W        W37461   0.735  13.407   2.020 -0.2861 -0.0550  0.0973
22331W        W37462  16.078   7.007  14.971  0.2312 -0.1131  0.1162
22332W        W37463   0.660  10.632   4.447 -0.0547 -0.1776  0.3224
22333W        W37464   4.881  12.065   0.922  0.0870 -0.1641 -0.0917
22334W        W37465  12.667   5.086  13.024  0.1245  0.1290  0.0180
22335W        W37466   7.612   2.772  15.270 -0.2456  0.1359  0.0619
22336W        W37467   6.382   5.694  13.345  0.0200  0.2458 -0.0389
22337W        W37468  10.046   8.504  12.907  0.2682 -0.0368 -0.0278
22338W        W37469  13.647   7.003   3.622  0.0993  0.3061 -0.0652
22339W        W37470  14.065  13.684   0.497 -0.1713  0.0293 -0.0122
22340W        W37471   5.870  14.760  14.846 -0.0371  0.1891  0.0916
22341W        W37472  10.427  15.402  12.854 -0.2108  0.1052  0.1384
22342W        W37473  12.901  17.743  12.320 -0.0504 -0.1323 -0.0408
22343W        W37474   8.505   3.407   4.089 -0.1833  0.0071 -0.0480
22344W        W37475   7.661   3.633   4.347 -0.0047 -0.1242  0.1200
22345W        W37476  10.432   4.060   0.967  0.1595  0.0356  0.0907
22346W        W37477  14.240  18.020  15.231 -0.4957  0.1539 -0.0187
22347W        W37478   0.231  11.613   3.113  0.0260 -0.2233  0.0039
22348W        W37479   5.927   0.097  13.758 -0.0707 -0.1082  0.0187
22349W        W37480   2.731  16.568   4.364 -0.2126  0.0419 -0.0282
22350W        W37481   2.795  15.750  10.591 -0.2282  0.0077 -0.0717
22351W        W37482   8.690   2.122  11.203 -0.0865  0.1175 -0.0685
22352W        W37483   7.294   7.520   2.231  0.3710 -0.0506 -0.4592
22353W        W37484  15.446   6.334  12.525  0.1814  0.1429 -0.3486
22354W        W37485   4.039   7.860  15.811  0.1645 -0.0292 -0.2646
22355W        W37486  12.908  17.910  13.871  0.0886  0.0303 -0.1588
22356W        W37487   3.780  10.264  11.382 -0.0133  0.2346  0.1378
22357W        W37488   7.950   3.787   4.844 -0.3398 -0.0936  0.0705
22358W        W37489   2.046   0.676   4.586 -0.0466  0.1349  0.0187
22359W        W37490   9.689   1.482   0.684 -0.3329  0.3844 -0.1372
22360W        W37491   5.083  17.831  15.194  0.1519  0.1418  0.0695
22361W        W37492   4.505   5.061   1.758 -0.1654  0.0192  0.0105
22362W        W37493  10.224   2.024   2.527  0.4412  0.0931 -0.1259
22363W        W37494  13.995   1.914  15.681  0.2739  0.0508  0.1114
22364W        W37495  14.906  12.494   4.516  0.1834 -0.1567  0.1794
22365W        W37496  12.847   3.447  11.766  0.2871 -0.3618 -0.0166
22366W        W37497   5.243   5.817  15.062  0.4017  0.0421  0.1893
22367W        W37498  15.007  15.017  13.018  0.4409  0.2125 -0.0212
22368W        W37499   4.094   0.348  12.800 -0.2563 -0.2890 -0.1018
22369W        W37500   5.494   8.220  11.299 -0.0680  0.0546 -0.1241
22370W        W37501   4.190  17.257   1.382  0.0902 -0.2642  0.0549
22371W        W37502   1.248   2.786   0.720 -0.0782  0.1158 -0.1981
22372W        W37503  14.490   7.232  16.124 -0.1930 -0.2060  0.0749
22373W        W37504   4.107   4.412   5.436 -0.0307 -0.0231  0.0594
22374W        W37505   5.259   0.752  16.150  0.0257 -0.0410  0.2160
22375W        W37506   2.991  13.094   3.207  0.1532  0.2219 -0.0279
22376W        W37507   2.396   2.630  11.246 -0.2745 -0.1018 -0.1870
22377W        W37508   9.812  17.337   3.964 -0.2200  0.2288 -0.0919
22378W        W37509   1.234  16.524   5.045 -0.0116  0.2980 -0.3136
22379W        W37510   6.105  14.366   0.433 -0.0909 -0.1381  0.1557
22380W        W37511  10.297   5.930   4.501 -0.1174  0.1508  0.2668
22381W        W37512   5.615  15.067   0.567  0.1049  0.1148 -0.0423
22382W        W37513   7.657  16.292   0.214 -0.0309  0.1198  0.1134
22383W        W37514   2.907  17.551   4.309  0.0267 -0.1636  0.1373
22384W        W37515  13.828  15.494   2.268  0.0671  0.0501  0.0837
22385W        W37516   6.046   8.400  12.978  0.3197  0.0927 -0.5088
22386W        W37517   3.961   4.347   3.318 -0.2814  0.0352  0.2920
22387W        W37518   1.471  17.488  15.843 -0.0063 -0.0026 -0.0102
22388W        W37519   0.498   3.148  15.592  0.0759 -0.3124  0.1418
22389W        W37520  16.058   8.617   1.863 -0.0438 -0.0879  0.0085
22390W        W37521   1.758   4.816  13.284  0.1834 -0.1782  0.0869
22391W        W37522   6.487  13.025  14.329 -0.0120  0.1460  0.2617
22392W        W37523   9.517   5.382  10.849  0.2526 -0.2748 -0.3950
22393W        W37524   3.765   0.674   4.504  0.1314 -0.2311 -0.1760
22394W        W37525  13.715  16.982  14.595 -0.0810  0.3017  0.0440
22395W        W37526   3.463  12.718  14.526 -0.0194 -0.1170  0.2163
22396W        W37527   4.840   1.578   6.041  0.0072 -0.0671  0.1791
22397W        W37528  15.539  13.513   1.992 -0.2711 -0.0970 -0.1475
22398W        W37529   5.884  17.249  12.821  0.0759 -0.2104  0.1401
22399W        W37530  14.087   9.935   3.131  0.0342  0.0000 -0.0068
22400W        W37531  13.058   6.090   5.245  0.2148 -0.0138 -0.0056
22401W        W37532  16.666  15.713  14.104  0.0639  0.1730 -0.2114
22402W        W37533   0.735  10.904  13.338 -0.0683 -0.0728  0.0214
22403W        W37534   5.351  14.984   5.473  0.1530 -0.0503  0.0023
22404W        W37535   0.105   7.658   4.300 -0.1516 -0.1275 -0.1196
22405W        W37536   3.735  17.390   2.530 -0.0436  0.1186  0.2052
22406W        W37537  16.916   0.360  11.040 -0.0810 -0.2056 -0.1156
22407W        W37538   6.123  10.952   1.114  0.1163  0.2536 -0.3390
22408W        W37539  13.564   6.977  14.784  0.1870 -0.1616 -0.0131
22409W        W37540  14.607  16.545  10.229  0.3611  0.3193 -0.1262
22410W        W37541   3.835   5.269   4.228  0.1554  0.2079 -0.0595
22411W        W37542  14.430   1.368   3.320 -0.2746  0.1286  0.0496
22412W        W37543   9.405  15.296  12.295 -0.1624  0.1790  0.1597
22413W        W37544  11.647   8.844   3.015 -0.2520  0.0971 -0.0891
22414W        W37545   5.640   5.397   4.114  0.1837 -0.0501 -0.0213
22415W        W37546  10.306   8.191   5.848  0.0898  0.1558 -0.3993
22416W        W37547  12.529   0.510  14.026  0.1958 -0.2141  0.4045
22417W        W37548   2.688  17.185   3.551  0.1539 -0.1853  0.0120
22418W        W37549   3.347  12.413   0.129 -0.2754 -0.1081 -0.0033
22419W        W37550   0.091  12.470   3.499  0.3364  0.0852 -0.1014
22420W        W37551   6.100   6.362   1.657 -0.1112 -0.0475 -0.1781
22421W        W37552  17.044  13.078   1.411  0.0940  0.0276 -0.3602
22422W        W37553   7.734  10.106   6.263 -0.1394 -0.3242  0.0787
22423W        W37554   7.749  11.536  14.928 -0.1233  0.1127  0.2204
22424W        W37555   3.860   9.313   0.855  0.2824  0.0197  0.0717
22425W        W37556   3.111   9.608   4.305  0.0816 -0.1353  0.2115
22426W        W37557   9.177   6.315  12.530  0.2679  0.1562 -0.0275
22427W        W37558   5.825  15.106  13.430  0.1372  0.1483  0.2015
22428W        W37559  15.360   8.407  11.808  0.0166  0.2060 -0.2122
22429W        W37560  14.077  14.703   6.274 -0.1768  0.1406 -0.2142
22430W        W37561  16.067   4.812  10.636 -0.2136 -0.0994 -0.0781
22431W        W37562  15.710  11.029   2.822  0.1434  0.0119  0.2311
22432W        W37563  17.454   0.176   5.171  0.0738  0.0280  0.0914
22433W        W37564   5.923  16.173   4.827 -0.0692 -0.1601  0.0081
22434W        W37565   3.003   6.031   0.456  0.3663 -0.1278  0.1559
22435W        W37566  12.084  17.075   2.044 -0.1064 -0.2989  0.0274
22436W        W37567  10.354   1.265  14.700  0.0158  0.0536  0.1105
22437W        W37568  16.474  16.219   6.204 -0.1686 -0.3059  0.0550
22438W        W37569  15.691   6.889   0.957  0.0536  0.1645 -0.0961
22439W        W37570  17.913   8.830   3.625  0.0854  0.0739 -0.1959
22440W        W37571   8.604   2.824   2.081  0.0967  0.0251 -0.3181
22441W        W37572   7.155   9.679  11.084  0.1173  0.0201  0.2024
22442W        W37573   3.252   2.786   2.676  0.0183 -0.0199  0.1009
22443W        W37574   7.758   0.944   4.251 -0.3772 -0.2125  0.0399
22444W        W37575  16.629  15.267  15.372  0.2775  0.3037 -0.0210
22445W        W37576  13.073   0.904   1.268  0.1540  0.2640  0.0983
22446W        W37577   3.149  17.553   1.342  0.0482 -0.0672 -0.0533
22447W        W37578   5.270   1.694   5.260 -0.1932  0.2007  0.0007
22448W        W37579  12.839   5.483   2.515 -0.2494 -0.2238  0.0477
22449W        W37580   1.070  16.572   0.499  0.3226  0.0681 -0.0718
22450W        W37581   8.657  17.132  11.164 -0.1286 -0.3501 -0.1671
22451W        W37582  15.829   1.887  12.790  0.0911  0.0130  0.0300
22452W        W37583   1.186   8.589  13.334  0.1006  0.3394  0.1168
22453W        W37584  10.231   7.104   3.322 -0.2750  0.1180  0.0039
22454W        W37585   9.558   9.367  16.195  0.1619 -0.0082 -0.2403
22455W        W37586   0.053   5.916   0.354 -0.0945  0.3003  0.3788
22456W        W37587  15.959   9.551   2.583 -0.1187  0.2104  0.2217
22457W        W37588  11.073  13.658  14.246  0.1832 -0.0926 -0.0201
22458W        W37589   0.390   8.047  12.364  0.3645  0.3474 -0.3746
22459W        W37590   8.056   6.330   1.245  0.3356 -0.1279  0.1670
22460W        W37591  17.249  14.186  10.696 -0.1875  0.0431  0.1317
22461W        W37592  16.868   8.028  12.661 -0.2584  0.0840  0.1733
22462W        W37593  12.652  16.219  14.320  0.1321 -0.0540  0.0676
22463W        W37594   5.054  12.231   1.749 -0.0001 -0.1089  0.1985
22464W        W37595   6.711   2.918   3.212  0.1580  0.2554  0.2056
22465W        W37596  10.220   1.093   1.447 -0.2691  0.0846 -0.0125
22466W        W37597   2.185  17.649   2.435 -0.1797 -0.1266  0.3386
22467W        W37598   4.240   0.759   5.312 -0.0789 -0.2597  0.0833
22468W        W37599  17.403  12.279   4.540 -0.0089 -0.0460 -0.0739
22469W        W37600   6.908   9.944  12.006 -0.0351  0.1200 -0.0634
22470W        W37601  13.690   3.459   2.827 -0.1907 -0.2830  0.0407
22471W        W37602   6.727   0.855  16.021 -0.1075 -0.2532 -0.1820
22472W        W37603  13.476  11.242   2.631  0.1168  0.0631  0.1669
22473W        W37604   9.501   8.732  15.134 -0.0170 -0.0757  0.0899
22474W        W37605  16.515  14.046  13.634  0.2216 -0.1824  0.2437
22475W        W37606  12.678  14.652  13.419  0.0418 -0.1509  0.0120
22476W        W37607  16.531   0.518  11.313  0.0535  0.0744  0.0428
22477W        W37608  15.431   4.345  14.057 -0.3137 -0.0893 -0.1071
22478W        W37609   9.167   6.179  11.402 -0.0240  0.1275  0.0267
22479W        W37610  17.493  14.250  13.489 -0.1530  0.1311  0.0178
22480W        W37611   0.192   3.120   2.432  0.2416 -0.0583 -0.0070
22481W        W37612   4.903  12.064   3.472 -0.0160  0.2362  0.0903
22482W        W37613   7.125   6.709  15.027 -0.0925 -0.4600  0.1017
22483W        W37614   0.965  16.723   3.137 -0.0759 -0.3350 -0.1214
22484W        W37615  15.003   7.784   3.267  0.0609  0.2115 -0.2419
22485W        W37616  15.715  13.174   0.794  0.0745 -0.2442 -0.0953
22486W        W37617   6.651   6.682   5.175  0.1519  0.0616  0.1987
22487W        W37618   2.648   4.979   5.642 -0.1122 -0.1018  0.0886
22488W        W37619   1.243  13.298   0.310  0.0611  0.1448  0.0642
22489W        W37620   9.296  12.568   4.882 -0.1953  0.1797 -0.0419
22490W        W37621   9.818   5.252  15.919  0.0591 -0.1133 -0.2517
22491W        W37622   6.554   5.307  14.613  0.3222  0.0512 -0.1250
22492W        W37623  16.440   1.336   4.606  0.1940  0.0952  0.0694
22493W        W37624  14.355  14.429   0.402 -0.0414 -0.1798 -0.1920
22494W        W37625  11.226   8.371   1.507 -0.0353  0.1357 -0.0815
22495W        W37626   6.560  16.308   4.710  0.1540  0.1839  0.0497
22496W        W37627   2.132  16.022  12.584  0.3325  0.1275 -0.1771
22497W        W37628  13.041   9.905   3.969 -0.2919  0.2618 -0.2073
22498W        W37629   2.449   5.393   4.148  0.0038  0.0084  0.0173
22499W        W37630   2.236  11.032  14.035 -0.0647 -0.0718 -0.0691
22500W        W37631   8.935  17.214   2.942  0.1703 -0.0685  0.0090
22501W        W37632   0.433   4.935   4.029 -0.0214  0.1204  0.2267
22502W        W37633   1.998   7.845  12.769  0.1370 -0.1679  0.3618
22503W        W37634  16.791   7.678  11.415  0.1610  0.3676 -0.0592
22504W        W37635  10.986   9.367  14.210  0.0622  0.0871  0.3940
22505W        W37636   9.413   2.301  14.478  0.0501 -0.3324 -0.0137
22506W        W37637   6.452   1.687  12.964 -0.0540 -0.1091 -0.0083
22507W        W37638   7.870   3.609  11.074 -0.1896  0.0989 -0.2294
22508W        W37639  16.837   2.984   3.846 -0.1530 -0.2937 -0.0850
22509W        W37640  17.745   0.345   2.740 -0.0089  0.2439 -0.1189
22510W        W37641   8.940  18.100  11.829 -0.2266  0.1857  0.3103
22511W        W37642  16.871   8.181  15.575  0.0653 -0.0449  0.0395
22512W        W37643  12.126   0.502  13.735  0.0587 -0.0729 -0.0016
22513W        W37644  12.356   2.879  11.338 -0.1234  0.0130  0.0723
22514W        W37645   6.166  16.324  12.647  0.2582 -0.0034  0.1773
22515W        W37646  15.452  11.788  11.258 -0.0153  0.2991  0.0944
22516W        W37647  12.520  12.207   4.335  0.1193  0.3263  0.0007
22517W        W37648   5.289  11.590   0.101 -0.0271 -0.0981 -0.1736
22518W        W37649  14.759  16.089   0.174  0.0100 -0.0557  0.1352
22519W        W37650  15.363   5.392  15.083 -0.2595 -0.1737 -0.1411
22520W        W37651  12.118  12.479   3.552 -0.0529  0.0132 -0.2280
22521W        W37652  11.580  17.760   4.723  0.0690  0.0609  0.4054
22522W        W37653   0.561   7.043  12.005 -0.0111 -0.1046  0.0008
22523W        W37654  17.991  12.757  12.954 -0.1587 -0.1631 -0.1654
22524W        W37655   6.481   9.136  12.321  0.3557 -0.0613  0.1834
22525W        W37656  15.497  16.311  13.000  0.1146  0.1763  0.0292
22526W        W37657  14.578  18.041  11.190 -0.1820 -0.2571 -0.1489
22527W        W37658  13.674   2.248  13.925  0.3735 -0.2565  0.2056
22528W        W37659  14.761   5.175  10.589 -0.2648 -0.1152  0.1120
22529W        W37660  10.655  16.077   3.963  0.0856  0.0832 -0.2993
22530W        W37661   4.668   8.144   3.947  0.1307 -0.0913  0.0573
22531W        W37662   1.838  16.633  12.283  0.0799 -0.0831  0.0144
22532W        W37663  17.476   0.756  13.457  0.1586 -0.0311 -0.2450
22533W        W37664   1.934   8.155   5.415  0.1651 -0.2160 -0.0573
22534W        W37665   2.857   2.960  13.569  0.3844 -0.0891 -0.0651
22535W        W37666  15.580   6.648  13.482 -0.1212 -0.0217  0.3127
22536W        W37667   5.294   8.664   2.503 -0.0814 -0.2803  0.0010
22537W        W37668  15.234   6.076   5.621  0.1032  0.0155 -0.1266
22538W        W37669   7.895  17.393  15.338  0.1344  0.0500 -0.2015
22539W        W37670   1.134   4.509   0.908 -0.2162 -0.0645  0.0036
22540W        W37671   1.653   0.253   1.354  0.4040  0.1491  0.3107
22541W        W37672   0.897   2.531   2.820  0.1999 -0.1170 -0.0175
22542W        W37673   0.168  13.856   4.509 -0.1106  0.5268  0.1931
22543W        W37674   2.683  15.327   5.125  0.1647  0.1970 -0.0155
22544W        W37675  16.991  17.040   0.209  0.1676 -0.0370  0.1055
22545W        W37676   7.124   1.344   3.474 -0.0915 -0.0068  0.1637
22546W        W37677  14.336  16.331   3.310  0.0274 -0.0064 -0.0179
22547W        W37678   4.268   3.895   0.209 -0.0792 -0.1922 -0.0794
22548W        W37679  16.336  17.292   3.787 -0.0482  0.0030  0.0258
22549W        W37680   7.937   8.275  14.799 -0.2016 -0.0448  0.0171
22550W        W37681   0.778  14.763  12.097  0.1007  0.2210 -0.1199
22551W        W37682   0.377   7.338   2.283  0.1541 -0.2952 -0.1759
22552W        W37683   7.482  11.450  15.750 -0.1109 -0.1588 -0.2180
22553W        W37684  10.429   8.668  14.770 -0.0172  0.3550 -0.1180
22554W        W37685   8.093  17.554  11.741 -0.0547  0.0658 -0.0633
22555W        W37686  11.698   9.924   0.646 -0.1639  0.1065 -0.3980
22556W        W37687  10.189   8.601   0.049 -0.2598  0.1158  0.2127
22557W        W37688   7.136   1.157  14.178  0.0033  0.1335 -0.2349
22558W        W37689  12.469   3.380  15.295 -0.1706 -0.0515  0.1835
22559W        W37690  14.788  11.212   5.287 -0.2874  0.0026 -0.1469
22560W        W37691  15.239   0.055  13.980  0.1887  0.1820 -0.0018
22561W        W37692   1.941  12.455   1.017 -0.1908  0.0815  0.1124
22562W        W37693   0.890  14.699   0.562  0.0403 -0.0711  0.0441
22563W        W37694   8.503  17.991  15.949  0.1557 -0.1145 -0.0376
22564W        W37695   2.672   4.243  15.722 -0.0979 -0.0802 -0.1982
22565W        W37696  17.054   2.820   1.489 -0.2048  0.1203 -0.0275
22566W        W37697   1.533  10.823  15.210  0.0722 -0.0216 -0.0415
22567W        W37698   9.238   7.225   4.916 -0.2434  0.1039 -0.1862
22568W        W37699  15.853  11.857   4.554  0.2552  0.1954  0.0655
22569W        W37700   6.947  16.049   3.348 -0.1222 -0.1054  0.2117
22570W        W37701   0.026   0.516   0.496 -0.0437 -0.3675 -0.2444
22571W        W37702   9.314   2.967  12.085 -0.0756 -0.4018 -0.0084
22572W        W37703  16.629   5.711  14.619  0.0594  0.0103 -0.1621
22573W        W37704   5.084   8.441   0.947 -0.1064  0.2928  0.1212
22574W        W37705  15.965  14.463   0.124  0.1123  0.1363 -0.0845
22575W        W37706  17.287   9.439  12.873  0.0733  0.2321  0.2722
22576W        W37707   1.196  15.112   1.998 -0.0664 -0.0010 -0.1759
22577W        W37708   0.117  15.897   2.544  0.3217 -0.0047 -0.1560
22578W        W37709  15.878  17.326  12.489 -0.1746  0.3376  0.3385
22579W        W37710  13.894   6.149   4.224  0.3826 -0.0127 -0.1950
22580W        W37711   5.756  10.773  11.236 -0.2512  0.1319  0.0973
22581W        W37712   7.622  16.006  14.900  0.1174  0.0443  0.1937
22582W        W37713   9.576  14.271   3.998 -0.0257  0.0935 -0.0197
22583W        W37714   0.531   2.550   4.654 -0.3288  0.0448  0.0057
22584W        W37715   6.557  10.610   1.722 -0.0501  0.2342  0.1280
22585W        W37716  15.457   0.162   3.894 -0.1276 -0.0937  0.3354
22586W        W37717   7.532   6.597  12.398  0.0412 -0.2273  0.0214
22587W        W37718  10.788   4.701   0.364 -0.0232 -0.2595 -0.2938
22588W        W37719   3.762  16.825  10.116  0.0103 -0.0007 -0.1618
22589W        W37720   2.378  10.268   1.433  0.4074  0.1891 -0.1901
22590W        W37721  16.546  11.836  11.520  0.2636  0.0463  0.0358
22591W        W37722   6.776   7.956  15.919 -0.0577 -0.0843 -0.3558
22592W        W37723  13.374   3.190   5.228 -0.2865  0.0009  0.0765
22593W        W37724  17.387   7.048  15.306 -0.0961  0.3901  0.2281
22594W        W37725   0.659  16.369  10.728 -0.0475 -0.0821  0.0540
22595W        W37726   4.404  14.448  11.982  0.2671 -0.2736 -0.3745
22596W        W37727  10.940  11.776  16.115 -0.2267  0.0794 -0.0567
22597W        W37728   0.288   6.071   3.292  0.1613  0.0279  0.0803
22598W        W37729  16.805   1.813  13.725 -0.1689 -0.3574 -0.0108
22599W        W37730  17.769   9.398  15.665 -0.0296 -0.2589  0.0317
22600W        W37731  13.106   4.556  13.831 -0.1294  0.2235  0.2470
22601W        W37732   3.924  13.788  14.195 -0.2207 -0.0519 -0.1020
22602W        W37733   1.497   8.853   4.960 -0.0834  0.2185 -0.1578
22603W        W37734  13.531   3.750   4.575  0.0599  0.2074 -0.2033
22604W        W37735  17.301   1.612   2.566  0.1866  0.1660  0.3819
22605W        W37736  11.339   4.697   2.375  0.0160  0.1668  0.1362
22606W        W37737   2.101  12.630   1.598 -0.1072  0.3128  0.1963
22607W        W37738   8.818  16.530  13.538 -0.0546  0.1921  0.0517
22608W        W37739   4.471   4.638  15.255 -0.1487  0.2238  0.2172
22609W        W37740   0.578   0.714  14.779 -0.3413 -0.1289 -0.0071
22610W        W37741   4.057   3.161  15.562 -0.1297 -0.3621  0.0383
22611W        W37742   4.089  17.552   4.579 -0.1062  0.1157 -0.1153
22612W        W37743   5.253   2.976  11.196 -0.0690 -0.0936 -0.1604
22613W        W37744   4.029  17.318  15.963 -0.0792  0.1622  0.1599
22614W        W37745  11.865  16.283   3.613  0.3945  0.1922  0.4470
22615W        W37746  11.446  10.088  12.546 -0.1187  0.0407  0.5022
22616W        W37747   1.092   9.504  14.861  0.1841 -0.3112  0.0362
22617W        W37748  13.453  16.469   4.735  0.1610  0.1793  0.0742
22618W        W37749   9.293   8.619  15.746  0.1019 -0.2614  0.0553
22619W        W37750   7.197   1.235  10.747  0.1213 -0.4770  0.0345
22620W        W37751   3.690  11.181  11.399  0.2834  0.1281 -0.3205
22621W        W37752   2.966   1.424   2.185 -0.2831  0.1246 -0.1181
22622W        W37753  10.442   9.824  14.879  0.1710 -0.0586  0.0342
22623W        W37754   8.703  14.815  12.956 -0.1614  0.1680  0.2059
22624W        W37755  13.844   0.466   0.853  0.1807  0.0041 -0.0799
22625W        W37756   3.197  12.627  11.207  0.2385 -0.2992 -0.1085
22626W        W37757   8.597   2.539   4.691  0.1850  0.1663  0.0866
22627W        W37758   4.088   2.871  14.824 -0.1884  0.0018 -0.0572
22628W        W37759   9.163   4.618  15.453 -0.0119 -0.3250  0.0633
22629W        W37760  14.487  17.875  13.806 -0.0216 -0.0710  0.1566
22630W        W37761   0.835  13.547  11.524 -0.0981 -0.0847  0.0388
22631W        W37762  18.011   9.572  12.753  0.1246 -0.0140  0.1305
22632W        W37763  16.099  10.355  14.582 -0.4421  0.1974 -0.2654
22633W        W37764  15.424   8.920   3.842  0.0466 -0.0890  0.0479
22634W        W37765   0.708  12.780  13.383 -0.1209  0.0674 -0.1065
22635W        W37766   1.732   6.045   3.267 -0.1468 -0.1915  0.2127
22636W        W37767  11.347  12.661  10.934 -0.3882  0.3336 -0.0980
22637W        W37768  11.483  11.611  15.354  0.0339 -0.0237  0.1569
22638W        W37769   5.389  12.222  11.342  0.1183  0.0348 -0.2433
22639W        W37770   9.452  13.342   4.242  0.1977 -0.1249  0.1070
22640W        W37771  15.256  13.424   5.514 -0.0224 -0.0370  0.1809
22641W        W37772  15.546   8.338  10.327  0.3062  0.2546 -0.3347
22642W        W37773   0.163   3.185   0.286 -0.2561  0.1693  0.1830
22643W        W37774   3.608  12.918  11.304  0.0737  0.1531  0.0174
22644W        W37775   2.255  11.479  13.120 -0.2680  0.2734 -0.1153
22645W        W37776  12.027   9.727  11.295 -0.1703 -0.3984  0.3629
22646W        W37777   4.361  16.054   2.698 -0.1952  0.0856 -0.2530
22647W        W37778   2.053  15.106  10.997 -0.0487 -0.0517  0.0572
22648W        W37779  13.719   8.300   4.968  0.1648  0.2807  0.0353
22649W        W37780  13.353   4.520   1.719 -0.0608  0.2751  0.1572
22650W        W37781   8.812   6.635  13.162 -0.1368 -0.2806 -0.0623
22651W        W37782   4.141  14.822  13.757  0.1911  0.0891  0.2786
22652W        W37783  11.715   8.634   2.533  0.0686  0.0182  0.1351
22653W        W37784   6.526  13.666   3.869 -0.2431 -0.0765 -0.2866
22654W        W37785   4.510   2.738  10.717  0.0123 -0.0259 -0.0161
22655W        W37786   3.997  14.503   4.208 -0.1186 -0.0162  0.1552
22656W        W37787  12.910   0.281  10.313  0.3487 -0.1949  0.1305
22657W        W37788  14.342  13.493  14.194  0.1974  0.1386 -0.4634
22658W        W37789  17.450   9.114   5.275 -0.0241  0.2175 -0.2171
22659W        W37790  10.448   6.689  12.899 -0.1471  0.0046  0.0521
22660W        W37791  17.180   0.683   2.176 -0.1714 -0.1478 -0.0476
22661W        W37792   8.371   6.940   0.338  0.2611 -0.0357 -0.0989
22662W        W37793  17.789  16.966  11.906 -0.2071 -0.1891 -0.2828
22663W        W37794  10.254   7.285   6.188 -0.0853  0.0260 -0.0144
22664W        W37795  17.294   9.615   0.723  0.0052 -0.0613 -0.3796
22665W        W37796   5.315  16.351  14.246 -0.3255 -0.4433  0.1782
22666W        W37797  12.165   6.525   0.864 -0.0941 -0.0930  0.1778
22667W        W37798  10.939   3.360   5.141 -0.1030  0.2958  0.1828
22668W        W37799   1.616  17.372   4.422 -0.1671 -0.1217 -0.0588
22669W        W37800   5.257   0.803  15.677  0.1043 -0.1728 -0.0143
22670W        W37801   0.035  14.740   0.832  0.1746  0.0048  0.0250
22671W        W37802   5.744   2.587   2.234 -0.1163 -0.0889 -0.4563
22672W        W37803   4.227   1.674  14.615  0.1585 -0.2544 -0.1833
22673W        W37804   8.796  14.457  11.871  0.1301  0.1894 -0.0894
22674W        W37805  17.600  10.687  14.986  0.1940 -0.0699 -0.2316
22675W        W37806  13.456   6.997   0.106  0.1535 -0.1585  0.2689
22676W        W37807  16.345  13.539  12.922 -0.3784  0.1893 -0.1286
22677W        W37808   6.451  12.024  14.385 -0.0773 -0.1033 -0.0824
22678W        W37809   8.493  11.805  12.730  0.0863 -0.1412  0.0827
22679W        W37810   8.064   9.481  16.023  0.0238  0.1497  0.1638
22680W        W37811   7.321   1.246  13.068 -0.1632 -0.0535  0.1257
22681W        W37812   9.300   1.199  10.163 -0.1204  0.2513 -0.1907
22682W        W37813   8.166  13.833  12.138  0.4403  0.5803 -0.0479
22683W        W37814  13.467  12.831   0.514 -0.2524 -0.1086  0.1441
22684W        W37815   6.821   7.328  14.757  0.1542  0.0301 -0.1167
22685W        W37816   9.344   3.858   3.058  0.2848 -0.0578  0.3036
22686W        W37817   9.390   7.502   5.352  0.0130  0.0562  0.0169
22687W        W37818   9.359   3.264  15.267  0.0770 -0.3155 -0.1033
22688W        W37819   8.371  16.332  13.559  0.0826  0.3890 -0.0278
22689W        W37820  15.338  17.627  11.517  0.0460  0.2537  0.0265
22690W        W37821   5.030  11.584   0.627  0.1359  0.0253 -0.2550
22691W        W37822  16.236   4.485   5.972  0.2554 -0.0902  0.0417
22692W        W37823   8.615   2.363  10.767  0.2106 -0.2776 -0.1558
22693W        W37824   3.422   2.793  15.759 -0.0072  0.1898  0.4569
22694W        W37825  11.497   9.824   2.960  0.2194  0.0176  0.2458
22695W        W37826   6.757   0.851  10.237 -0.2670  0.0506  0.1457
22696W        W37827   5.341   8.633  14.279  0.3957  0.0528 -0.0189
22697W        W37828  10.690   9.464   3.545  0.2283  0.1854 -0.0269
22698W        W37829  13.741  12.186  12.213 -0.1139 -0.0009 -0.0407
22699W        W37830  10.355   7.366  11.198  0.0488 -0.2075 -0.2018
22700W        W37831   2.601   0.042  14.319 -0.1087 -0.0385  0.0126
22701W        W37832   2.597   2.286   4.356  0.0991 -0.4046  0.0245
22702W        W37833  14.991  16.044  13.683 -0.3279  0.0554 -0.3835
22703W        W37834   7.161   4.141   4.122 -0.0702  0.2427 -0.0464
22704W        W37835   6.600   9.466   4.786  0.0570  0.2496 -0.0955
22705W        W37836  14.190  10.729   5.104  0.0071  0.1515  0.0203
22706W        W37837   1.666   2.983  14.306 -0.0297 -0.0076 -0.0557
22707W        W37838   5.580   6.860  12.559 -0.2734  0.1197  0.1113
22708W        W37839  17.591  15.756   2.896 -0.2824  0.2099  0.2507
22709W        W37840   8.195   8.596  11.713 -0.0500 -0.0775  0.2606
22710W        W37841  12.261   3.043  13.243 -0.1807  0.2203  0.0163
22711W        W37842  16.391  10.605  13.156 -0.0420  0.1429 -0.0991
22712W        W37843   2.647  10.630   5.605 -0.1641  0.0628  0.0064
22713W        W37844   7.812  11.863   2.776  0.1864  0.0412 -0.0388
22714W        W37845  13.067  16.021   4.089  0.1252 -0.1682  0.0276
22715W        W37846   9.280  11.914   2.775 -0.1249 -0.1444 -0.0667
22716W        W37847  10.838  12.130  12.984 -0.0340  0.0696  0.0704
22717W        W37848   1.291  15.858  15.659  0.1477  0.1616 -0.0445
22718W        W37849   5.210  18.089  15.957 -0.0529 -0.1964  0.1608
22719W        W37850   2.841   2.583   5.347  0.0052  0.2507 -0.0975
22720W        W37851  17.864   5.376  11.798 -0.5531 -0.1762  0.3678
22721W        W37852   1.086   1.447   1.944  0.2082  0.1887  0.2670
22722W        W37853   9.214   8.333  15.326 -0.0581 -0.0429 -0.0674
22723W        W37854   6.790   9.268  10.893 -0.1749 -0.0608 -0.1653
22724W        W37855   2.077  14.080   2.915 -0.0362 -0.2656  0.0576
22725W        W37856   2.982   5.085   4.493 -0.0276  0.0859 -0.3111
22726W        W37857   4.691   4.648   2.909 -0.4806  0.0125  0.1978
22727W        W37858   1.720  15.626  11.274  0.4008  0.0382 -0.0094
22728W        W37859   8.167  17.306   4.730  0.1925 -0.2649 -0.2528
22729W        W37860   0.787   8.994   3.726  0.0499 -0.1151 -0.1463
22730W        W37861  12.322  11.986   4.787 -0.2674 -0.0643  0.0324
22731W        W37862   3.204   3.234   3.685 -0.0234 -0.2705 -0.4078
22732W        W37863   3.038   1.841  12.364 -0.0063 -0.0150 -0.1696
22733W        W37864   7.362  12.581   2.287  0.1408 -0.1077 -0.2938
22734W        W37865   6.877   4.945  11.650  0.3516 -0.1053  0.1688
22735W        W37866  17.542   1.613   3.974 -0.2878  0.2434 -0.0098
22736W        W37867   5.180  11.406  10.904 -0.0173  0.1331  0.0487
22737W        W37868   4.369   2.302  13.074  0.0357 -0.1073 -0.2749
22738W        W37869  15.550   0.925   2.381  0.1496 -0.0730  0.1755
22739W        W37870  15.547  12.810  12.402 -0.1058  0.0152  0.2931
22740W        W37871   0.708  13.275   2.862 -0.0409  0.0804  0.2737
22741W        W37872   4.263   0.417  13.861 -0.3191 -0.1935  0.0878
22742W        W37873   3.856  15.189  10.846  0.3275 -0.1847  0.1468
22743W        W37874  17.006   0.273   4.822  0.0555 -0.2428 -0.1485
22744W        W37875   0.517  10.215  15.930 -0.0508 -0.0885  0.0041
22745W        W37876   7.592   5.081  15.947 -0.0727  0.4048  0.0793
22746W        W37877  11.149   2.038  12.365  0.4738  0.2478  0.0242
22747W        W37878  14.377   7.358   2.140 -0.4931 -0.0007 -0.0881
22748W        W37879  16.752   2.012  12.268 -0.4104 -0.2620 -0.0544
22749W        W37880   3.085  14.932   5.314 -0.3057 -0.2271  0.0580
22750W        W37881   4.791   5.204  13.241 -0.0187  0.1376 -0.1184
22751W        W37882  15.477   6.716  12.968  0.0781 -0.2057 -0.1553
22752W        W37883   6.671   5.572  12.157  0.1313  0.0956 -0.1636
22753W        W37884   1.939   8.949   3.716 -0.1013  0.0959  0.0302
22754W        W37885  16.785  14.406   3.518 -0.3099 -0.1268 -0.0869
22755W        W37886   4.073   4.255   2.080  0.1359 -0.0119  0.0063
22756W        W37887   6.039  17.337  15.280 -0.0932  0.0775  0.1276
22757W        W37888  10.433  11.008   3.464 -0.0951  0.1458  0.1277
22758W        W37889  14.503  13.516   1.277  0.1321  0.1297 -0.1420
22759W        W37890   9.487  13.724  15.881  0.0642  0.0199 -0.1021
22760W        W37891   5.882  13.288  15.709  0.1396  0.1524 -0.1625
22761W        W37892  11.070  17.245   3.559  0.0575 -0.0185 -0.4872
22762W        W37893  17.025  11.574   1.600  0.2285  0.1120  0.0363
22763W        W37894   5.393   3.919  12.619  0.3211  0.4029 -0.1319
22764W        W37895  15.849   7.451  14.011  0.0230 -0.0846  0.1502
22765W        W37896  16.438   1.658   5.052 -0.1504 -0.1917 -0.2998
22766W        W37897   3.660  12.020  10.032 -0.2038  0.1227 -0.2228
22767W        W37898   0.058  18.022  13.049  0.2881  0.1679 -0.0227
22768W        W37899  17.265  17.230   4.432 -0.0433 -0.1779  0.1418
22769W        W37900  11.997   6.572   1.966 -0.4151  0.1339  0.3268
22770W        W37901   4.362  17.275  10.637  0.1376  0.1271  0.1607
22771W        W37902   3.360   0.623  16.236 -0.1312 -0.2153  0.2087
22772W        W37903   0.598  16.015  12.019  0.0519 -0.2551 -0.0779
22773W        W37904   4.511   5.019   0.648 -0.0550  0.1799 -0.0536
22774W        W37905  13.647   7.991   2.916 -0.1209  0.0332  0.3851
22775W        W37906   9.418  13.484   1.621 -0.2635 -0.1928 -0.4387
22776W        W37907  11.861  15.731  14.393 -0.0075 -0.2244  0.1575
22777W        W37908   9.122   5.085  13.293  0.2162  0.1620 -0.0491
22778W        W37909   7.553   1.337  11.446  0.1824  0.2497 -0.1516
22779W        W37910  15.179   1.461   5.030  0.3187  0.0046  0.4364
22780W        W37911   3.867   1.691  12.644 -0.0948  0.0300  0.0043
22781W        W37912   1.855   7.541   5.325  0.1820 -0.0034 -0.2143
22782W        W37913  16.894   9.979   6.395  0.1456 -0.0701  0.0426
22783W        W37914  18.001   6.258   0.021  0.2630  0.0096  0.1662
22784W        W37915  12.497   3.709   4.156  0.1288  0.1037 -0.0660
22785W        W37916  17.912  17.055   3.852  0.0240 -0.1188  0.1327
22786W        W37917   4.505   2.775   5.215 -0.1687  0.1606 -0.0520
22787W        W37918  15.697   2.228   9.898 -0.0526 -0.2315 -0.1707
22788W        W37919  15.598   8.058   1.372 -0.1325 -0.2185  0.2948
22789W        W37920   5.212  13.057   1.123 -0.0183  0.0875 -0.0982
22790W        W37921   5.412   4.852   1.439 -0.0057 -0.1119  0.1919
22791W        W37922   5.639   8.069  10.802  0.2198 -0.1736  0.2242
22792W        W37923   6.954  13.284   1.657 -0.2708 -0.0585  0.0881
22793W        W37924   7.873   6.594  13.138 -0.0169 -0.0102 -0.0419
22794W        W37925   5.980   0.796   5.137  0.1047 -0.0944  0.0549
22795W        W37926  13.118   0.647   4.698  0.1285 -0.1265  0.0634
22796W        W37927   9.801  14.740  15.743  0.1264  0.2332 -0.0842
22797W        W37928   3.935   9.316   3.817  0.2416 -0.0012  0.0414
22798W        W37929  13.937  17.384  15.319 -0.0891  0.1681 -0.0211
22799W        W37930  10.080   1.369   1.928  0.0744 -0.0859 -0.4703
22800W        W37931  10.931  14.290  11.570 -0.0451 -0.1525  0.0026
22801W        W37932  12.405  13.181   4.208  0.1244  0.1367  0.1088
22802W        W37933   2.744   0.517  14.604 -0.2462 -0.2646 -0.0193
22803W        W37934   0.741  13.406  14.326 -0.1791 -0.1563 -0.0247
22804W        W37935   7.270  17.979  15.568  0.0929  0.1183  0.0652
22805W        W37936   6.569   8.170   1.130  0.0164 -0.0063 -0.1440
22806W        W37937  12.256   4.722  12.043  0.0025 -0.0779 -0.0690
22807W        W37938   2.632   8.289   5.325 -0.0572 -0.0754  0.2321
22808W        W37939   3.104   6.782   4.085  0.1647 -0.2570 -0.0572
22809W        W37940   0.840   2.972  11.223  0.1799 -0.3063  0.0021
22810W        W37941  10.254   2.127   4.195  0.0451 -0.1231 -0.0438
22811W        W37942  15.384   9.739  16.002 -0.0282 -0.1074 -0.0026
22812W        W37943   6.282  16.630   5.022 -0.0732  0.1056  0.0213
22813W        W37944  14.903   1.730  14.161  0.1161 -0.0815 -0.2095
22814W        W37945   3.000  17.465  13.917 -0.0634  0.1200 -0.6472
22815W        W37946  17.801  15.531   1.705 -0.1481 -0.0144  0.0310
22816W        W37947  13.536   7.838   4.714  0.1247  0.0776 -0.2787
22817W        W37948   8.968  11.242  11.817  0.3824 -0.2796 -0.0248
22818W        W37949  15.663   9.398   1.309  0.1199 -0.0666  0.2714
22819W        W37950   6.829  11.607  13.143  0.0813 -0.1834  0.1049
22820W        W37951   2.510   3.494   3.710 -0.0618  0.1678  0.2476
22821W        W37952   0.607   1.702   3.561  0.0264  0.0398  0.1077
22822W        W37953   7.322   7.981  12.566  0.0345  0.1195  0.1036
22823W        W37954  15.999  14.164  14.520  0.0850 -0.3891 -0.2396
22824W        W37955  12.648   5.811   0.327 -0.2360  0.0927 -0.3631
22825W        W37956   7.990   2.210  14.391 -0.1143 -0.3055 -0.0360
22826W        W37957   1.969  10.076   1.200 -0.1046  0.1188 -0.0971
22827W        W37958   4.725   1.827  13.877  0.1942 -0.1809  0.0374
22828W        W37959  16.490  10.382   2.843  0.2163  0.3428 -0.0184
22829W        W37960   9.614  14.677   0.038  0.0357  0.0553 -0.0493
22830W        W37961  13.015   1.116  12.926 -0.0079  0.3534 -0.0466
22831W        W37962  13.242   9.442   3.823  0.0330 -0.0348 -0.1111
22832W        W37963   3.078   2.905  15.344 -0.3520  0.0726 -0.1140
22833W        W37964  12.019   9.422  15.355 -0.1263 -0.1076 -0.0137
22834W        W37965   6.603   9.321  15.451 -0.1632 -0.2537  0.0414
22835W        W37966   7.011  17.109  10.697 -0.0524 -0.0480  0.0916
22836W        W37967   9.187   5.185  14.419 -0.1569  0.0731  0.2652
22837W        W37968   4.766   4.193   1.923  0.2143  0.2254  0.3579
22838W        W37969  12.989   7.453  12.317 -0.2733 -0.0999  0.2702
22839W        W37970  13.444   6.764   3.078  0.2006 -0.0852 -0.0040
22840W        W37971   3.961  14.760  14.227 -0.4761  0.1205  0.1934
22841W        W37972  15.516  11.985  14.561 -0.0828  0.2321 -0.1382
22842W        W37973  13.725  14.723   1.485 -0.1362  0.2401  0.0574
22843W        W37974   4.221  17.257  11.642  0.1878  0.1277 -0.0928
22844W        W37975   8.311   3.146  14.475  0.3230 -0.0438 -0.4285
22845W        W37976  17.250   2.128  12.284  0.0855  0.0695 -0.1172
22846W        W37977  11.858  13.730  13.722 -0.0016 -0.1059  0.0089
22847W        W37978  11.859  15.357  11.961 -0.0296 -0.2571 -0.1505
22848W        W37979   4.282  10.201  12.037  0.1656 -0.1033 -0.2478
22849W        W37980   4.767   6.233   4.992  0.2852 -0.0312 -0.0526
22850W        W37981  17.072   2.340  15.102 -0.3319  0.0498 -0.1408
22851W        W37982  11.423  15.567  11.866  0.2158  0.0682  0.0606
22852W        W37983  16.045   6.310   4.481  0.0121 -0.0722  0.1677
22853W        W37984  12.833   9.729  12.890 -0.3461  0.0850 -0.0257
22854W        W37985   1.828  13.576   0.212 -0.0874 -0.0299  0.3827
22855W        W37986  12.552   5.230  15.321  0.1216  0.0707 -0.1067
22856W        W37987  12.873  13.087  14.520 -0.2382  0.4851 -0.2217
22857W        W37988   6.094  10.679   0.251  0.0669  0.3008  0.4582
22858W        W37989   7.875  11.403  11.443  0.3321  0.0100 -0.1360
22859W        W37990  12.410   9.987  14.156  0.0174 -0.2642  0.2451
22860W        W37991   1.683  16.094   1.961 -0.0213  0.1791  0.3465
22861W        W37992  12.065   4.133  11.246  0.2134 -0.2341 -0.0737
22862W        W37993  12.712  10.631   5.197  0.2609 -0.1051  0.2383
22863W        W37994  10.432   7.414   5.724 -0.0226  0.2096  0.1321
22864W        W37995  14.182  11.116   4.200  0.2825 -0.0048  0.1614
22865W        W37996   7.329  16.772   0.122  0.1762  0.0824  0.2018
22866W        W37997   5.467   0.396  15.854  0.0328 -0.0416  0.0803
22867W        W37998   7.070  12.505  10.977 -0.1267  0.0160  0.0211
22868W        W37999   9.122   5.581   0.740  0.0796 -0.1835  0.0610
22869W        W38000  13.326  13.485   4.540 -0.3319 -0.1605 -0.0138
22870W        W38001   8.025  10.979  10.933  0.0659  0.1378 -0.4936
22871W        W38002   2.680   6.140  13.374 -0.2001  0.0418  0.0268
22872W        W38003  17.846   0.252   1.826 -0.0940  0.3995 -0.1369
22873W        W38004   4.267  17.611  14.393 -0.0523 -0.0952 -0.1289
22874W        W38005   5.116   6.875  12.322  0.1121 -0.3335 -0.0817
22875W        W38006   2.063   2.171   4.315 -0.0731 -0.0424  0.0793
22876W        W38007  15.379   7.373   5.472 -0.0583 -0.1286 -0.0198
22877W        W38008  10.364   8.346  11.696 -0.2100 -0.0274 -0.1831
22878W        W38009  11.875  14.323   2.769  0.1198  0.0353 -0.2935
22879W        W38010  14.031  11.233   2.735  0.1188  0.0213  0.2904
22880W        W38011   9.227  14.021  14.749  0.1602 -0.0125 -0.3034
22881W        W38012  12.534   0.173  13.469 -0.1846 -0.1379 -0.1096
22882W        W38013   5.395   9.906   2.120  0.1663  0.0950  0.2172
22883W        W38014   9.834   8.523  10.954  0.0675  0.1439 -0.3263
22884W        W38015   2.765  12.950   3.668  0.0287  0.0424  0.0056
22885W        W38016   9.713  13.849  14.833  0.3653 -0.1329  0.1424
22886W        W38017   0.824  11.604   1.781  0.0431  0.2048 -0.2945
22887W        W38018  17.005   2.309   1.263  0.0207 -0.2198  0.2114
22888W        W38019  12.632   3.902  14.691 -0.0078  0.0989  0.3264
22889W        W38020  15.236   0.403   5.955 -0.1520 -0.0924 -0.0978
22890W        W38021   5.030  11.850  11.691  0.1946  0.0949  0.1388
22891W        W38022   9.686   6.910   1.781 -0.0653 -0.0491  0.1537
22892W        W38023   4.304  13.362  15.016 -0.1930  0.0346  0.1195
22893W        W38024   0.216   7.695  11.450  0.1305 -0.0044 -0.1883
22894W        W38025   5.747  12.227  12.758 -0.3233  0.2262  0.1334
22895W        W38026   4.638   4.625  12.565 -0.0731  0.3267  0.0115
22896W        W38027   2.264  10.734  13.625  0.1075  0.0437 -0.2261
22897W        W38028   5.118  15.502  10.984  0.0046  0.1507  0.1168
22898W        W38029  12.220  16.713   1.245  0.0393  0.2424  0.3094
22899W        W38030   0.790   6.618  14.356 -0.0022  0.2828 -0.3454
22900W        W38031  15.532   6.174   2.641 -0.2640  0.2202 -0.1557
22901W        W38032   3.130  14.680   4.314  0.0589 -0.1245  0.0775
22902W        W38033   3.446   0.602  15.729 -0.0861  0.3806 -0.1330
22903W        W38034   9.594   6.107   0.865 -0.1574 -0.2328 -0.0019
22904W        W38035  13.442   4.834  11.205 -0.1370  0.0681 -0.0406
22905W        W38036  14.800  10.746   5.913  0.0161 -0.0364 -0.0449
22906W        W38037  13.510  10.517  10.273  0.2014  0.0298  0.2578
22907W        W38038   1.377  17.509   3.010 -0.1524  0.0465 -0.1306
22908W        W38039   8.790   9.513   0.507 -0.1659  0.1287  0.0491
22909W        W38040   2.803   2.044   0.392 -0.2266  0.1015 -0.2126
22910W        W38041   6.040   2.550  12.569  0.0722 -0.0150  0.0224
22911W        W38042   1.967   8.673  13.338  0.0345  0.1487 -0.0287
22912W        W38043  14.849  12.361  15.786  0.0471 -0.2089  0.0288
22913W        W38044  14.880   2.987   1.602  0.0982 -0.0184 -0.3441
22914W        W38045   2.465   5.815  12.035  0.2895 -0.1525  0.0019
22915W        W38046   4.677   5.651  11.290 -0.3576 -0.1239 -0.3381
22916W        W38047   5.738   0.152  10.788 -0.1156  0.0768 -0.0011
22917W        W38048  14.839   9.244  13.277 -0.2697 -0.1461  0.2368
22918W        W38049   0.347   6.847   0.557  0.1749 -0.1138  0.0451
22919W        W38050  16.697  14.506   3.005 -0.1420 -0.1412 -0.0041
22920W        W38051   5.982  16.735   4.604  0.2739 -0.0791  0.1180
22921W        W38052   0.033   2.659   5.818  0.1067 -0.2190  0.1574
22922W        W38053   2.429   4.653  15.533 -0.2966  0.1132 -0.1318
22923W        W38054  10.717   3.745  14.279  0.3469  0.1766 -0.0142
22924W        W38055   0.832   2.373   9.974 -0.2176  0.0467  0.0120
22925W        W38056  17.314   2.445  16.184  0.1789 -0.0362 -0.0380
22926W        W38057   0.118   8.665   1.585 -0.0862  0.1862 -0.3706
22927W        W38058   8.108  14.278   1.924  0.3198  0.1897  0.0564
22928W        W38059   4.222   7.415  16.143  0.5491  0.0943  0.2615
22929W        W38060   8.967   4.843   0.133 -0.0640 -0.2462 -0.3182
22930W        W38061   6.043  10.816   2.795 -0.1053  0.1331 -0.1509
22931W        W38062  15.160  17.211   4.925  0.1851 -0.1510 -0.1843
22932W        W38063  10.839  13.903  14.842 -0.0341  0.2823  0.0611
22933W        W38064   7.184  11.072   3.798  0.2192 -0.2463  0.0034
22934W        W38065   6.075   7.309  15.767 -0.1303 -0.0326  0.2377
22935W        W38066  15.305   9.071  14.863  0.0193  0.3516  0.0579
22936W        W38067   6.097   3.299  11.152 -0.0541 -0.1072  0.1106
22937W        W38068  16.368  16.350   2.209 -0.0084  0.1302  0.0847
22938W        W38069   9.589  14.385   1.819  0.3272  0.1545  0.1721
22939W        W38070  12.486   4.024  14.200 -0.0221 -0.1512  0.0822
22940W        W38071  16.612  10.670  16.108 -0.2714  0.3025 -0.0286
22941W        W38072   4.166   3.181  10.967  0.2436 -0.1691  0.0870
22942W        W38073   0.695   2.442  16.242 -0.2183  0.0464 -0.0917
22943W        W38074   6.115  17.359  12.362 -0.3181 -0.0496  0.0752
22944W        W38075  10.296   3.035   3.276  0.1664  0.0684  0.1400
22945W        W38076   2.361   5.076  15.285  0.3108  0.0666  0.0069
22946W        W38077  12.479  13.540  15.973 -0.1110 -0.1532 -0.1545
22947W        W38078   7.120   0.285   5.133  0.1227  0.3690 -0.0016
22948W        W38079  18.017  16.504   1.976 -0.0096  0.3031 -0.1497
22949W        W38080   3.037  11.381  16.234 -0.1484  0.0464 -0.1204
22950W        W38081   2.816  11.924   9.431 -0.1880 -0.2158 -0.2273
22951W        W38082   9.998  11.343   0.935  0.0832 -0.1523 -0.0757
22952W        W38083   7.655  15.022  15.780 -0.0378 -0.0934  0.2194
22953W        W38084  10.483   8.242  15.636  0.3330 -0.0473 -0.1388
22954W        W38085   0.026  10.352   2.649  0.0280  0.2010 -0.2090
22955W        W38086  17.185   4.143   2.868  0.1340  0.0914  0.0054
22956W        W38087   0.425  11.017  10.414  0.2331 -0.3931 -0.1123
22957W        W38088   3.631   0.993  15.951  0.1934  0.0943 -0.2702
22958W        W38089  14.862   2.055   2.609 -0.1040 -0.1998 -0.1300
22959W        W38090   1.739   8.284  11.440  0.1730  0.1128 -0.2652
22960W        W38091   7.980  11.707  12.633 -0.1763 -0.1554  0.1337
22961W        W38092  12.983   0.780  11.249 -0.1094  0.2852 -0.4414
22962W        W38093   3.011  15.839  12.801  0.0689 -0.0210  0.0414
22963W        W38094   7.674   6.840   3.775  0.1828  0.1782 -0.1596
22964W        W38095  14.122  14.327   1.528  0.0810 -0.0796  0.0557
22965W        W38096  14.059   7.475   0.789 -0.2681 -0.1004 -0.1020
22966W        W38097  10.923   1.715   9.782  0.0905 -0.0248 -0.2059
22967W        W38098  13.750  17.638  12.450 -0.0016 -0.1166 -0.0109
22968W        W38099  14.699  13.974   1.229  0.5412  0.3046 -0.1353
22969W        W38100  17.486  12.949  13.918  0.1013 -0.1279  0.0685
22970W        W38101  15.031  14.012  12.813 -0.1939 -0.1290 -0.3522
22971W        W38102  11.987  14.589   1.684  0.0400  0.5356 -0.1178
22972W        W38103   3.791   6.312  15.520 -0.0995  0.0962 -0.0115
22973W        W38104   7.476  16.507  15.014 -0.3203  0.1251 -0.0811
22974W        W38105  17.046  16.527   2.066 -0.1676  0.1830  0.0263
22975W        W38106  15.144   4.296   4.244  0.0011 -0.1150 -0.1029
22976W        W38107  16.052   9.202   0.265  0.2794 -0.0396  0.1751
22977W        W38108   0.904   7.035   5.428  0.2528 -0.0353  0.1606
22978W        W38109  14.207  13.956  14.260 -0.2774 -0.1562  0.0024
22979W        W38110  13.527   9.184  13.526  0.3473  0.0640 -0.4476
22980W        W38111   2.806   2.346  13.963 -0.1553 -0.0221 -0.4103
22981W        W38112   6.307   2.864   4.094  0.0762  0.0113  0.2834
22982W        W38113   0.944  11.287   5.325 -0.1907 -0.0722  0.2235
22983W        W38114  12.602   2.634   0.448 -0.1406 -0.1421 -0.2480
22984W        W38115   3.239   4.161  15.276 -0.0475  0.2757  0.1114
22985W        W38116   5.624  13.010  13.907 -0.1641  0.0542 -0.3754
22986W        W38117   5.158  15.409  14.446 -0.0526  0.0464  0.0685
22987W        W38118   1.195   1.938   3.603  0.0043  0.0180 -0.0614
22988W        W38119   9.144  16.870  11.181  0.2552  0.3451  0.0191
22989W        W38120   3.548  13.295   5.552 -0.1923 -0.1377 -0.2615
22990W        W38121   3.510   7.978  16.021  0.1719 -0.0669 -0.2539
22991W        W38122  17.437   2.116   1.412 -0.0048  0.0217 -0.0798
22992W        W38123  10.222   3.275  11.587 -0.0448 -0.1584 -0.1239
22993W        W38124   3.848   5.408  11.645 -0.0818  0.1003 -0.1431
22994W        W38125   3.920   4.496   4.317 -0.1305  0.3465  0.0390
22995W        W38126   9.800   1.939   0.139  0.0337  0.1817 -0.0835
22996W        W38127   5.094  15.593   3.890  0.0295 -0.2013 -0.1528
22997W        W38128   1.684  16.809  15.383  0.0483 -0.1182  0.5349
22998W        W38129  10.919  11.395  11.527  0.1737  0.1683 -0.1147
22999W        W38130   3.803  10.584   2.615 -0.1298  0.1130 -0.2054
23000W        W38131   6.974   9.425  14.700 -0.2026 -0.1798 -0.0792
23001W        W38132   1.562  17.719  12.510 -0.1219  0.0190  0.4487
23002W        W38133   7.150   9.887  11.578  0.4460 -0.1596 -0.2194
23003W        W38134  14.070   6.986  14.955  0.0453 -0.1816 -0.2292
23004W        W38135  10.969   9.916   3.485 -0.0820  0.0203  0.0122
23005W        W38136   6.499   7.642   1.948 -0.0586 -0.1844  0.0474
23006W        W38137   4.961  13.191  16.084  0.1394 -0.0028 -0.3624
23007W        W38138   6.320  17.860   2.034  0.1337  0.0887  0.0794
23008W        W38139  17.964  15.868   3.283  0.1274 -0.1817  0.4150
23009W        W38140   5.226   5.382   2.908  0.1125 -0.2931 -0.1356
23010W        W38141  14.034   9.749   5.356  0.2666 -0.0801  0.0205
23011W        W38142  13.208   5.555   1.903  0.0035 -0.2055  0.2153
23012W        W38143  13.841  10.962  15.686 -0.1286 -0.0150 -0.0635
23013W        W38144  17.624   7.100   2.674  0.1862  0.1164  0.0631
23014W        W38145  15.600   5.766   1.182 -0.0465 -0.1548 -0.0733
23015W        W38146  15.410   4.527  13.185 -0.3892  0.0594  0.0304
23016W        W38147  11.080  11.731  10.678 -0.0866 -0.0043  0.1176
23017W        W38148   9.180  13.503  14.717  0.0122 -0.4463 -0.3761
23018W        W38149  10.011  12.204  15.302  0.3373 -0.1429 -0.1112
23019W        W38150   6.971   5.751  13.115 -0.0802 -0.1720 -0.0653
23020W        W38151   0.489   2.838  15.992 -0.2064  0.2150 -0.0411
23021W        W38152  11.033   9.624  13.723  0.2264  0.2488 -0.0765
23022W        W38153   5.267  11.382  15.849 -0.4462 -0.2765  0.0857
23023W        W38154   5.324   9.319   5.234 -0.0819  0.2014  0.1187
23024W        W38155   6.579   1.971   3.630  0.1477  0.1608  0.1557
23025W        W38156  13.551   9.235  11.822 -0.4850 -0.2370  0.1864
23026W        W38157   7.008   6.927  16.085 -0.0208  0.0873  0.0856
23027W        W38158  15.825   8.155  13.336 -0.1361 -0.1506 -0.1015
23028W        W38159   1.265   1.273   4.169 -0.2545 -0.2206  0.1375
23029W        W38160  15.865   5.975  13.409  0.4307  0.1732  0.0824
23030W        W38161   2.115   2.883   4.425  0.0165 -0.1110 -0.4527
23031W        W38162  10.840  15.510   0.071  0.0726  0.0858  0.0197
23032W        W38163   2.816   1.794  15.858  0.0378  0.2873  0.2620
23033W        W38164   9.355   3.439   3.929  0.2330 -0.1290 -0.1625
23034W        W38165  12.990  14.081   0.889 -0.0075  0.0361 -0.3513
23035W        W38166  10.681  10.590  11.286  0.0348  0.1766  0.0910
23036W        W38167  12.992   4.833   1.757 -0.2954 -0.1034  0.4096
23037W        W38168  15.994   3.264  11.473 -0.1395  0.0107  0.0591
23038W        W38169   3.047   5.370  13.196 -0.1528 -0.1271 -0.1479
23039W        W38170   9.990   6.045   0.336  0.2618  0.1004  0.0480
23040W        W38171  15.927   2.202   2.826 -0.1397  0.0117  0.1040
23041W        W38172  17.923   5.586  13.213 -0.0855 -0.0963  0.1108
23042W        W38173  16.196   7.114  10.193 -0.0279  0.2663  0.1145
23043W        W38174  16.294  17.585  12.438 -0.1247  0.0030  0.3702
23044W        W38175  16.231  15.621   4.493 -0.3012 -0.0459 -0.3628
23045W        W38176   8.276  13.036  13.887 -0.0816 -0.0539  0.1442
23046W        W38177   4.039   1.289   4.051 -0.0894  0.0630  0.0854
23047W        W38178  14.757   6.585   4.583  0.1439  0.1707 -0.0877
23048W        W38179  14.610   2.267   0.556 -0.0532  0.2646  0.2616
23049W        W38180   5.736   6.699   4.209  0.2075  0.2613  0.1747
23050W        W38181   2.790  17.710  12.849 -0.1366  0.1562 -0.2417
23051W        W38182   8.381  12.528  11.619  0.0426 -0.2524  0.0159
23052W        W38183  17.685   2.468  10.961 -0.2390  0.2458 -0.0518
23053W        W38184   4.537  17.126  13.069  0.0046 -0.3873  0.1013
23054W        W38185  17.135  15.460   0.543  0.1177  0.3456 -0.0726
23055W        W38186  15.521   5.880   3.889 -0.0374 -0.0473 -0.0153
23056W        W38187  15.412  13.841  15.064 -0.1861 -0.1418 -0.1276
23057W        W38188  17.607  16.135  15.719  0.0980 -0.3293  0.0899
23058W        W38189   1.517   7.954   2.876 -0.1259  0.1810  0.0918
23059W        W38190   3.266   2.432  15.235  0.0690 -0.0053 -0.1785
23060W        W38191   7.921   2.463   1.812  0.0230 -0.3164  0.0389
23061W        W38192   2.385  18.033  14.909  0.0802  0.2876 -0.3505
23062W        W38193  11.334  13.119  14.231 -0.2967  0.0579 -0.1348
23063W        W38194  12.800  15.708   5.012  0.1443  0.2377  0.2123
23064W        W38195   9.914  13.991   5.158 -0.1377 -0.1785 -0.0096
23065W        W38196  12.646  12.999  15.470  0.0643  0.1058 -0.0034
23066W        W38197  14.022   1.013  10.113 -0.1311 -0.1303  0.3238
23067W        W38198  12.349   5.730   4.119 -0.0479  0.1169 -0.0526
23068W        W38199  12.593   7.499   5.251  0.0840 -0.2552  0.2250
23069W        W38200  11.554   0.822   2.933  0.2989 -0.1719 -0.0653
23070W        W38201  14.642  11.977  10.988  0.3576 -0.0809 -0.5084
23071W        W38202   2.158   1.176   2.061 -0.5196 -0.3707  0.1308
23072W        W38203   3.458  12.857   1.893 -0.0348  0.2231 -0.0543
23073W        W38204  14.859  10.003   4.891 -0.1665  0.0878  0.2881
23074W        W38205  12.897  10.706  11.410 -0.3160 -0.4043 -0.1411
23075W        W38206  10.062  12.462  12.648  0.0877 -0.1353 -0.0036
23076W        W38207  17.728  12.308  13.185  0.0504 -0.2356 -0.2542
23077W        W38208  10.532  12.520   4.438 -0.5527 -0.1645  0.0697
23078W        W38209  17.912   0.388  10.975  0.3599  0.1388  0.0744
23079W        W38210   7.324  14.154   4.331 -0.1049 -0.0552 -0.2552
23080W        W38211   6.420  17.915   3.164  0.2841 -0.2575  0.1808
23081W        W38212  15.336  11.289   2.356  0.3225 -0.3390 -0.4060
23082W        W38213  17.047  16.674  13.218  0.0828 -0.3754 -0.0023
23083W        W38214  14.493   8.274  11.311  0.0605  0.2756 -0.0250
23084W        W38215  17.273   4.980   0.565 -0.0623 -0.2326 -0.4711
23085W        W38216   0.909  15.966  11.086  0.0453  0.1849  0.0842
23086W        W38217   3.149  15.619   3.939  0.0633  0.2643  0.0922
23087W        W38218   6.127   0.627  12.070  0.1822 -0.0505 -0.1770
23088W        W38219   2.557  16.770  10.732  0.3993 -0.1614 -0.3120
23089W        W38220   9.515  16.276   0.927  0.0413  0.2636  0.1177
23090W        W38221  12.357  12.104   1.792 -0.1263  0.0079 -0.1764
23091W        W38222   5.916   3.008  13.315  0.1794 -0.0104 -0.4509
23092W        W38223   2.083   6.418  12.065  0.1287 -0.0729 -0.1467
23093W        W38224   4.810   3.350   2.145  0.1272  0.0229  0.0339
23094W        W38225   7.111  16.351   1.344 -0.1528 -0.0745 -0.3487
23095W        W38226   7.896  11.858  15.755  0.0129 -0.1260  0.1817
23096W        W38227   5.601   8.056  15.817  0.0470  0.0456  0.0815
23097W        W38228   6.729   7.592   3.943 -0.0983 -0.1194  0.1241
23098W        W38229   5.143  17.183  15.240 -0.3015  0.1372  0.2318
23099W        W38230   2.421   3.228  13.597 -0.0750 -0.0337  0.3399
23100W        W38231   6.183  12.606   1.913 -0.2886 -0.1597 -0.2487
23101W        W38232  13.214  13.907  13.492  0.0066 -0.3536 -0.0601
23102W        W38233   6.041   1.788  11.653 -0.1450  0.2281  0.1996
23103W        W38234  18.072   4.367  11.978  0.3244 -0.0291 -0.1252
23104W        W38235   1.955   7.537  13.410 -0.0710 -0.2178  0.2284
23105W        W38236   5.781   8.441   5.247 -0.0078  0.1606 -0.1290
23106W        W38237   9.245  10.516   5.182 -0.0301 -0.0014 -0.0789
23107W        W38238  12.575   3.834   1.307 -0.3682 -0.2617 -0.1404
23108W        W38239  11.459   2.438   5.244  0.2286 -0.0600  0.0554
23109W        W38240   7.157  17.411  15.628 -0.0932  0.1160 -0.1017
23110W        W38241  12.286  12.365  15.103  0.0127  0.0162 -0.2732
23111W        W38242   1.398  15.863   1.595  0.4697  0.3955 -0.2023
23112W        W38243  13.504   5.357  13.596 -0.0454  0.0318 -0.0095
23113W        W38244  16.040   9.004  12.496 -0.0807  0.2381 -0.1613
23114W        W38245   5.735   9.895  14.963  0.0709 -0.0570  0.0599
23115W        W38246   7.883  16.054   4.650 -0.0192 -0.1132 -0.0414
23116W        W38247  10.653   0.249   4.399 -0.1071  0.1803  0.0017
23117W        W38248  13.700   8.310  14.999  0.2268  0.0953 -0.1329
23118W        W38249  18.070  16.089   0.964  0.1230 -0.2704  0.0508
23119W        W38250  11.229  16.126  14.109 -0.0584 -0.0131  0.1115
23120W        W38251   8.435  13.489  13.464 -0.2254  0.2491  0.2744
23121W        W38252   0.544  14.926   0.800  0.1047  0.0238 -0.0446
23122W        W38253   3.863   7.935  12.164 -0.0054  0.0870  0.0890
23123W        W38254  15.835   3.319  12.938 -0.0064 -0.0556 -0.1137
23124W        W38255  17.652   8.573   1.605  0.5138 -0.1395  0.2849
23125W        W38256   1.452   3.013   1.229  0.2310  0.0880 -0.1277
23126W        W38257   4.868   7.445   3.469  0.0006 -0.1436 -0.2348
23127W        W38258   8.831   0.092   9.697 -0.1177  0.1534 -0.1376
23128W        W38259   7.845   8.982  15.852 -0.0599 -0.0990 -0.2313
23129W        W38260  11.345  14.000  15.697  0.4569 -0.2538 -0.1668
23130W        W38261   1.127   9.477  13.907  0.0337 -0.1216 -0.3464
23131W        W38262  12.703  12.691  13.236  0.1970  0.2109 -0.2370
23132W        W38263   4.736   2.106   4.015  0.2978  0.2559 -0.0222
23133W        W38264   2.534  12.748  14.510 -0.0661  0.1825  0.3609
23134W        W38265   4.367  14.373  10.925 -0.0778  0.1516 -0.2206
23135W        W38266  17.213   1.513   1.954 -0.1719 -0.1176 -0.0771
23136W        W38267  11.747  13.420   4.350 -0.0664 -0.1416  0.2478
23137W        W38268   7.562   0.064   1.175 -0.1509 -0.2007  0.0566
23138W        W38269   9.480  14.322  11.220 -0.1362 -0.0344  0.1650
23139W        W38270   8.174  15.801   3.633 -0.0663  0.1112  0.1707
23140W        W38271   6.419   2.875  10.816 -0.0443 -0.1140  0.0813
23141W        W38272   0.520   1.659  13.718  0.1548 -0.0590 -0.4078
23142W        W38273  14.678   9.983   2.278  0.0003 -0.3948 -0.1685
23143W        W38274   4.505  13.395  10.286  0.1445 -0.0330 -0.0755
23144W        W38275  12.950   0.218  13.188 -0.0167  0.0544 -0.1042
23145W        W38276  16.517   5.513  14.100  0.3021 -0.1133 -0.2050
23146W        W38277  17.820  13.268  14.267 -0.2736  0.2829 -0.0459
23147W        W38278   7.388   9.523  15.015  0.1624 -0.1419 -0.2893
23148W        W38279   9.304   0.172  12.107 -0.2766 -0.3274  0.0541
23149W        W38280   3.248   4.923  13.245 -0.1124 -0.0773  0.2173
23150W        W38281  10.964   3.470   4.322  0.1808  0.2764 -0.1017
23151W        W38282  15.741   7.700  15.732  0.1499 -0.1106 -0.3480
23152W        W38283  14.542  14.886  12.913  0.0813  0.2621 -0.0188
23153W        W38284  16.052   5.695  16.133  0.0537  0.3565  0.1668
23154W        W38285  11.215   3.080   3.257 -0.3191  0.1434  0.1718
23155W        W38286   0.748  11.095   4.584  0.2241 -0.1243 -0.1557
23156W        W38287  15.260   4.843   1.444  0.0286  0.0926 -0.3870
23157W        W38288   5.228  12.348   4.486 -0.0685  0.0673 -0.1456
23158W        W38289  13.646  17.202   0.780 -0.1086  0.1887  0.1283
23159W        W38290  11.580  16.690  10.598 -0.2191 -0.2260 -0.2281
23160W        W38291   3.683   5.868   1.511  0.3008  0.0013 -0.0662
23161W        W38292  17.883   5.795  14.212  0.4346  0.1601  0.0013
23162W        W38293   7.117   5.202   0.553  0.1271 -0.1097  0.1492
23163W        W38294  15.684   0.507  11.634  0.1220 -0.1685 -0.0971
23164W        W38295   3.310   3.350   4.624  0.0187 -0.1086  0.1634
23165W        W38296  11.805  14.723  15.933 -0.2728  0.0104 -0.1613
23166W        W38297  16.003   0.259   2.085 -0.2018  0.0397  0.0141
23167W        W38298   8.732   4.833   3.570  0.3348 -0.0688 -0.0945
23168W        W38299   1.361   9.258  14.528  0.0267 -0.0322  0.1578
23169W        W38300   8.672   9.194   2.049 -0.0078  0.1519 -0.1272
23170W        W38301  10.104  14.748   6.258 -0.1974 -0.0118 -0.1494
23171W        W38302  16.570  10.854   3.809 -0.3153  0.0489  0.0955
23172W        W38303  15.449  13.796   4.634  0.0632  0.0085 -0.1668
23173W        W38304  16.479  16.243  15.718  0.1710 -0.0135 -0.1327
23174W        W38305   9.275   1.541   4.881 -0.4406  0.0450  0.0077
23175W        W38306  17.374   1.678  12.571 -0.3946  0.0711  0.1221
23176W        W38307  15.306  16.107   4.084  0.0558 -0.2452 -0.2679
23177W        W38308  14.236   0.091   1.600  0.1165  0.0296  0.1189
23178W        W38309   6.197  13.262  15.316  0.0953  0.0983  0.3162
23179W        W38310  14.177   0.533   4.565  0.2451 -0.1230  0.2115
23180W        W38311  17.061  18.025  14.353 -0.1466 -0.1125 -0.0245
23181W        W38312   5.168   1.308   1.129 -0.0713 -0.0760 -0.0003
23182W        W38313  14.571  12.622  11.584  0.0461  0.3211 -0.1215
23183W        W38314  17.219  12.527   0.028  0.0354 -0.1160  0.0399
23184W        W38315  13.828   1.054  11.634  0.2993  0.0372 -0.1287
23185W        W38316  15.300   2.507  12.141 -0.1460 -0.2193 -0.0509
23186W        W38317   2.405   9.467  13.468  0.0767  0.2016  0.0733
23187W        W38318   0.239  15.789  14.028  0.1448  0.0390  0.2488
23188W        W38319  11.514  15.752   1.851 -0.1667 -0.0828  0.0699
23189W        W38320   5.243   2.963  12.186  0.0896  0.0491  0.2229
23190W        W38321  11.198   5.214   0.282  0.1008 -0.3405  0.2058
23191W        W38322  10.742  11.660   1.146 -0.0470 -0.0958 -0.1314
23192W        W38323  17.128   0.817  14.993  0.4667 -0.0029  0.3027
23193W        W38324   7.387  13.180  14.337 -0.0628  0.0601 -0.3943
23194W        W38325  15.197  11.893  15.683  0.1960 -0.0718  0.0905
23195W        W38326  11.262   5.663   0.441  0.0079 -0.3279  0.2444
23196W        W38327   8.591   0.382   4.545 -0.2971 -0.1686  0.3351
23197W        W38328   5.312   3.812   3.712 -0.0895 -0.0633  0.2736
23198W        W38329  18.012   7.198   3.037 -0.1305  0.0056  0.1932
23199W        W38330   4.088   1.172  13.434 -0.3034  0.0704  0.2196
23200W        W38331   1.592   6.214   0.274  0.1368 -0.1674  0.0962
23201W        W38332   3.425  11.579  14.184 -0.0691 -0.2395  0.0753
23202W        W38333  17.470  13.306   4.696  0.1225 -0.0187  0.0592
23203W        W38334  17.290  18.076  13.805  0.0131  0.2184  0.0950
23204W        W38335   3.658   4.202   4.625  0.1207  0.1757  0.0814
23205W        W38336  11.296  14.648   4.585  0.2586  0.2932 -0.1950
23206W        W38337   4.541  14.207  15.051  0.0499 -0.1472  0.2499
23207W        W38338   5.848   9.058  15.488  0.0171  0.2462 -0.0712
23208W        W38339  15.564   7.476  16.175 -0.0188  0.0479  0.0289
23209W        W38340  14.970   1.408   0.536  0.1179 -0.1149 -0.1143
23210W        W38341  13.873  11.192   5.045 -0.2771 -0.0428  0.2306
23211W        W38342  17.878  12.898   1.213  0.1853 -0.1821 -0.5564
23212W        W38343   0.732  12.738   1.520  0.4112 -0.1740  0.4226
23213W        W38344  17.679   6.485  13.044  0.0227  0.0421 -0.1851
23214W        W38345   5.447   2.846  13.417  0.1559  0.0884 -0.0882
23215W        W38346  14.796  16.796  11.247 -0.0104  0.3297  0.2742
23216W        W38347  13.482   4.806   2.735 -0.1281  0.2044  0.0895
23217W        W38348  17.580   9.872  15.812 -0.0963  0.0113  0.1430
23218W        W38349   9.353   0.563  15.859 -0.2936 -0.0421 -0.2193
23219W        W38350  11.040   5.756  15.167  0.1063  0.0533  0.0398
23220W        W38351  12.635   3.228   3.326 -0.0485  0.1033  0.0030
23221W        W38352   9.226   0.358   3.092 -0.1785 -0.1806 -0.0259
23222W        W38353   3.874  13.041   1.473 -0.0848  0.2012  0.4596
23223W        W38354   8.146  12.472   3.761 -0.0832  0.0100 -0.0143
23224W        W38355   0.485   2.309   3.054 -0.0054  0.1115 -0.1934
23225W        W38356   4.851   5.668   3.131  0.1124  0.0756 -0.0013
23226W        W38357  15.127   3.555   1.062  0.1403  0.0003 -0.1585
23227W        W38358  13.706   3.291   4.369 -0.1327  0.1101  0.1853
23228W        W38359  16.920   9.916   0.504 -0.0934  0.0155  0.1625
23229W        W38360   6.014  11.699  13.726  0.1791 -0.1716  0.1887
23230W        W38361  18.076   2.864  10.966  0.0244  0.0493  0.0209
23231W        W38362   2.775   1.291   1.452 -0.0306 -0.1541  0.2037
23232W        W38363  14.094  14.687   0.071  0.2266  0.3418 -0.1187
23233W        W38364   2.833   8.951   4.310  0.0035 -0.2220  0.4543
23234W        W38365  15.224  15.284   1.255 -0.3594  0.0728 -0.0251
23235W        W38366   1.057   1.197   0.273 -0.1546  0.1539  0.2910
23236W        W38367   3.968   1.129  14.384  0.2105 -0.0728  0.0175
23237W        W38368   7.789   1.526  13.088 -0.1548  0.0510 -0.2306
23238W        W38369  16.337  12.084  13.367  0.2115 -0.3136  0.1531
23239W        W38370   5.646  17.520   3.688  0.1955 -0.1895  0.0884
23240W        W38371   6.295   8.120  15.915 -0.1412  0.0474  0.3624
23241W        W38372  12.438  12.115   3.803 -0.0097  0.1476  0.4373
23242W        W38373   2.897   4.142  12.750  0.1144 -0.0784 -0.1128
23243W        W38374   8.242   3.922  13.477 -0.0414  0.0705 -0.1771
23244W        W38375  15.181  14.754  14.783 -0.1937 -0.0641 -0.2085
23245W        W38376  14.544   6.773  15.723 -0.2488 -0.0222  0.0608
23246W        W38377   5.419  13.524   3.882 -0.0625  0.3008 -0.0695
23247W        W38378   6.027  17.471  15.753 -0.1549 -0.4558  0.0408
23248W        W38379  16.496   6.345   0.363  0.0394 -0.1121 -0.0234
23249W        W38380  14.299   7.846   2.084  0.0987  0.0740  0.0278
23250W        W38381   1.718   4.952   0.181 -0.2083 -0.2731  0.3518
23251W        W38382  16.242  16.288  11.549  0.2375  0.2578  0.1997
23252W        W38383   5.306   6.310   2.662  0.1015  0.0614 -0.3292
23253W        W38384  14.640  12.538  16.223 -0.1551 -0.0121  0.1064
23254W        W38385  11.193   0.491  15.309 -0.1833  0.2813 -0.3293
23255W        W38386  10.137  12.673   2.250  0.0177 -0.0041 -0.0831
23256W        W38387  13.171   1.532   1.834  0.0836 -0.1770 -0.2762
23257W        W38388   0.260  13.637  12.609  0.0773  0.3513 -0.0531
23258W        W38389   4.633   6.860  14.485  0.4784  0.0622 -0.1891
23259W        W38390  17.825   4.492   4.634  0.0803  0.1434 -0.1239
23260W        W38391  10.415  10.584   3.130  0.0880 -0.0581  0.3573
23261W        W38392   3.362  11.024  14.413 -0.1704  0.0061  0.1193
23262W        W38393   7.630   5.647   5.226  0.2088  0.0459  0.2331
23263W        W38394   1.168   5.988  13.966 -0.0967  0.0971  0.1009
23264W        W38395  14.229   0.923   0.293 -0.1064 -0.0361 -0.4433
23265W        W38396  14.400   5.485   3.041 -0.0025  0.0800  0.1473
23266W        W38397  17.719   2.288  15.019 -0.0588  0.0968 -0.0184
23267W        W38398   5.760  10.603   1.043 -0.2652  0.0834  0.1870
23268W        W38399   1.662  15.007   2.777  0.0096  0.0022 -0.0965
23269W        W38400   4.702   4.554  14.831  0.0137  0.0505  0.3132
23270W        W38401  10.204   1.676  13.627 -0.0610 -0.1220  0.0105
23271W        W38402  17.658  17.825  13.322 -0.1161 -0.1672  0.1375
23272W        W38403  11.223   6.628   1.816 -0.2257  0.2106 -0.0421
23273W        W38404   6.492   3.691  12.941 -0.2321  0.0351 -0.1807
23274W        W38405  11.399  13.417  11.469 -0.0957 -0.2972 -0.1548
23275W        W38406   0.613   3.962   3.276 -0.3320 -0.2306  0.2432
23276W        W38407  15.812  11.917  14.961  0.1021  0.0944  0.3693
23277W        W38408   2.829  17.613  14.952  0.0833  0.0067  0.1543
23278W        W38409  18.051  13.047   5.529  0.1857 -0.0745 -0.0793
23279W        W38410  15.616   2.587   2.053  0.2016 -0.1291  0.3774
23280W        W38411   1.950  17.936   1.697 -0.2058  0.0390  0.0179
23281W        W38412   3.706   8.354   1.427  0.1127 -0.1081  0.0792
23282W        W38413   0.151   1.123   0.843  0.0074  0.4926 -0.2611
23283W        W38414   0.297   0.860  10.929 -0.0114  0.1014  0.3245
23284W        W38415   7.826   4.244   2.667  0.1398  0.1210 -0.1040
23285W        W38416  14.290   2.930   0.223  0.0066  0.0027  0.0234
23286W        W38417  17.755  15.170  12.737  0.0357  0.1908  0.3010
23287W        W38418   7.745   1.657   2.746 -0.2466 -0.1861 -0.1922
23288W        W38419   5.028  14.978  15.138  0.0758 -0.2156  0.1634
23289W        W38420  14.877  17.181   3.357 -0.1080 -0.1701 -0.1497
23290W        W38421  12.547  10.444   0.060  0.3131  0.0623 -0.0253
23291W        W38422   8.942   1.439   1.230 -0.4343 -0.1036 -0.2044
23292W        W38423   7.507  13.420   2.069 -0.0942  0.1935 -0.1265
23293W        W38424  13.549  13.850   4.136 -0.1473  0.1346 -0.3166
23294W        W38425  11.942   7.731   1.484  0.5478  0.0208 -0.1931
23295W        W38426  17.628  12.456  15.819 -0.2274 -0.0515  0.0709
23296W        W38427   2.199   4.917   5.232 -0.0555 -0.0474  0.0280
23297W        W38428   4.468   1.154   1.238 -0.1217  0.1637  0.1172
23298W        W38429   3.186   3.398   4.151 -0.1147 -0.1844  0.0679
23299W        W38430  13.569   7.395  14.473 -0.0187 -0.0031  0.0832
23300W        W38431   7.748  17.969   3.361  0.4227 -0.0503 -0.0160
23301W        W38432   8.637  14.935  11.944  0.0193  0.1078 -0.1109
23302W        W38433   4.386   6.778  13.688 -0.2039 -0.0630 -0.0336
23303W        W38434   1.633  12.994   2.061  0.3541 -0.0826  0.0552
23304W        W38435   9.810  12.048   5.595  0.1955  0.0878  0.0792
23305W        W38436  15.746  14.562  14.845 -0.1421 -0.0900 -0.1634
23306W        W38437  16.924  10.213   5.892  0.3155  0.3368  0.3187
23307W        W38438  10.067   7.326   1.787 -0.2282 -0.0290 -0.3701
23308W        W38439  10.678   7.795   3.642 -0.0221 -0.1265  0.3066
23309W        W38440  14.455  10.531   0.560 -0.0585 -0.2925  0.0613
23310W        W38441   2.688   2.186  12.962 -0.1219  0.0777 -0.1571
23311W        W38442  11.787   0.294  10.588  0.1648  0.2026  0.2142
23312W        W38443   2.025   7.660   2.814  0.3116 -0.0263 -0.3575
23313W        W38444   5.455  12.820  14.701  0.0295  0.1575 -0.1205
23314W        W38445  14.517  10.825  12.501 -0.2402 -0.1163 -0.2445
23315W        W38446  10.072  14.253  10.778 -0.0986  0.1146  0.0213
23316W        W38447   4.671  15.310  14.264  0.0542 -0.1790 -0.4047
23317W        W38448   6.831  14.109   3.873 -0.1178 -0.0601  0.0545
23318W        W38449  16.714  12.423  15.405  0.4641  0.2564  0.2504
23319W        W38450   7.619   1.080  14.225 -0.0988  0.0052 -0.3838
23320W        W38451  17.730   0.881   4.687  0.0423 -0.1930 -0.2074
23321W        W38452   4.025   3.680  10.913 -0.1684 -0.2529 -0.1708
23322W        W38453   9.936  11.962  12.943  0.1653  0.0524  0.2323
23323W        W38454  13.340   6.101  13.755 -0.0236 -0.1184  0.1520
23324W        W38455   6.995   5.374  10.033  0.2184 -0.1656 -0.1798
23325W        W38456   7.593  14.233  13.679 -0.0593  0.0884 -0.2926
23326W        W38457   2.389   7.193   3.815  0.0925 -0.0565 -0.1989
23327W        W38458  16.367   5.631   5.064  0.1162  0.1035  0.0993
23328W        W38459   6.398   3.181  13.001 -0.0082  0.1950  0.2331
23329W        W38460   9.902   1.688  15.662 -0.2617 -0.1436 -0.0494
23330W        W38461  17.676  17.343  11.153  0.0560  0.2076 -0.0338
23331W        W38462   6.653  11.763  11.761 -0.0614 -0.0713 -0.0493
23332W        W38463   6.220  10.484  15.041 -0.1731 -0.0554 -0.2127
23333W        W38464   4.737   4.670   1.938  0.0268  0.1866 -0.1823
23334W        W38465  11.728   9.335  13.309 -0.1445 -0.3352  0.1258
23335W        W38466  15.639  11.326  10.701 -0.0970  0.2223  0.2614
23336W        W38467  16.389   2.857   4.916 -0.1074  0.3742  0.1034
23337W        W38468  10.706  15.589   3.912 -0.0165 -0.1600  0.0433
23338W        W38469   6.985   1.663   5.573 -0.0254  0.0579 -0.0315
23339W        W38470   2.068   5.885   0.313 -0.0306  0.0421 -0.0562
23340W        W38471   3.834   8.344  14.798 -0.2792  0.2667  0.5094
23341W        W38472  17.152   6.875  12.683  0.0945  0.0312  0.4496
23342W        W38473  17.696  11.528   2.550  0.2607  0.3309  0.2536
23343W        W38474   1.545  12.816  13.480 -0.2182  0.1016  0.0287
23344W        W38475   7.492  10.069  13.626  0.2476  0.1754  0.1108
23345W        W38476  15.449   5.748  12.748  0.2453 -0.0731  0.1539
23346W        W38477   1.995  13.616   1.620  0.0001 -0.0919  0.1513
23347W        W38478  12.603  15.436  12.355 -0.3028 -0.1637 -0.2348
23348W        W38479   9.216   8.114   0.108  0.0222  0.1342  0.1853
23349W        W38480  11.765  10.049   4.229 -0.2527  0.0712  0.0755
23350W        W38481  13.188   8.721  12.708 -0.1143  0.0573  0.0774
23351W        W38482   2.464  13.785  10.742 -0.1522  0.4165 -0.3763
23352W        W38483  10.644   9.831  12.510  0.1526 -0.1312  0.1231
23353W        W38484   4.380  10.736  14.444  0.1227 -0.1486 -0.2458
23354W        W38485   0.448  10.648   0.171 -0.2704  0.1619  0.0857
23355W        W38486   9.586   3.284   4.795 -0.0305  0.2982  0.1231
23356W        W38487  17.975  13.597  11.627  0.1783  0.1277 -0.0592
23357W        W38488  10.412  10.658  12.528  0.2202  0.0431  0.1090
23358W        W38489   1.615   2.411  16.016 -0.0410  0.1228  0.0058
23359W        W38490   1.785  11.290   1.112  0.0236 -0.0741 -0.2511
23360W        W38491   2.934  14.753  16.162 -0.2001 -0.1053 -0.1296
23361W        W38492  11.904   5.639  14.953 -0.2875  0.0057  0.0120
23362W        W38493   1.786   4.630   4.970 -0.1506  0.2096  0.1264
23363W        W38494  10.912  13.427   4.575  0.2383  0.2726  0.1079
23364W        W38495  16.408   5.353  12.060  0.1542 -0.1664  0.1768
23365W        W38496  13.886  13.518   2.987 -0.1239  0.2371 -0.0349
23366W        W38497   0.356   2.679   0.290 -0.2941 -0.1792  0.2391
23367W        W38498   9.734   8.636   1.975 -0.2699 -0.4320  0.2974
23368W        W38499  10.113  13.033  14.862  0.1396  0.0105  0.0124
23369W        W38500  12.213  13.639   1.563 -0.0458 -0.0276  0.0282
23370W        W38501   1.095  15.410   1.610  0.0241 -0.0528 -0.0501
23371W        W38502  12.480   3.056  12.504  0.1522  0.2443  0.0663
23372W        W38503   1.918   4.618  16.115 -0.1449  0.1346  0.2889
23373W        W38504  10.171  11.539  12.124 -0.2829  0.0849 -0.1520
23374W        W38505   8.076   1.915  13.316  0.0127 -0.1725 -0.3490
23375W        W38506   8.865   4.063  12.856  0.2245  0.1269  0.1291
23376W        W38507   6.830  13.056   0.792  0.2346  0.0313 -0.0515
23377W        W38508   2.140  16.708  15.604  0.2201 -0.1518 -0.1258
23378W        W38509  16.227   2.195  12.517  0.0914 -0.2210 -0.1029
23379W        W38510   5.930   9.839  11.909  0.2432  0.1068  0.0055
23380W        W38511   1.086  11.101  11.992  0.1279 -0.2444  0.0874
23381W        W38512  11.832   7.319   4.927 -0.1578 -0.0731 -0.1172
23382W        W38513  10.923  14.211   2.761 -0.4017 -0.0395 -0.1788
23383W        W38514   4.703   1.207  12.723 -0.1595  0.4896  0.2127
23384W        W38515   0.823   7.782  13.759 -0.4835 -0.0467 -0.0556
23385W        W38516  16.626  18.002  12.603 -0.0251 -0.0335  0.1266
23386W        W38517  11.562  17.448  16.013 -0.0616 -0.0228  0.0549
23387W        W38518  11.996   7.336  12.929  0.0252  0.0571  0.1659
23388W        W38519  16.271   8.191  16.222  0.0212 -0.1795  0.2589
23389W        W38520   4.442  15.968  12.592  0.3919  0.0806  0.0322
23390W        W38521   9.092   8.690   3.446 -0.1228  0.0417  0.0617
23391W        W38522   8.897   0.475  15.661  0.0599  0.0497 -0.2796
23392W        W38523   2.047  17.900   4.674 -0.0807 -0.2657 -0.0151
23393W        W38524  10.973  11.071   3.999 -0.0602 -0.0983 -0.2038
23394W        W38525   8.405   2.577   1.634  0.1177 -0.0527 -0.1025
23395W        W38526   8.642   9.771  13.963 -0.2731 -0.2658 -0.1214
23396W        W38527   4.605   0.470  11.265 -0.3541  0.3636  0.0202
23397W        W38528  14.336  13.054   0.485 -0.0975 -0.1832 -0.5370
23398W        W38529  15.383  14.762   2.416 -0.1330 -0.0587 -0.2775
23399W        W38530  16.755   5.484  15.128  0.0838  0.3836 -0.4318
23400W        W38531   8.966   2.008   2.162  0.0837  0.0170  0.0355
23401W        W38532   4.892  17.501   3.110 -0.1007  0.0072  0.2704
23402W        W38533   5.786   9.480  15.925  0.2649  0.1399 -0.0891
23403W        W38534  11.400   4.561   3.774 -0.1437  0.0350  0.1785
23404W        W38535   0.105   3.930   3.235 -0.0813 -0.0330  0.1664
23405W        W38536   1.899  14.050   3.978  0.1380  0.0923 -0.2837
23406W        W38537  14.192   5.747  16.229 -0.0322  0.1795  0.0662
23407W        W38538   1.344   7.730   1.481  0.2022 -0.1441 -0.2931
23408W        W38539   2.506   7.989  16.235  0.1741 -0.0378 -0.0924
23409W        W38540  17.773  12.196  13.700  0.3022  0.1678 -0.2980
23410W        W38541  15.034   7.679  11.531 -0.3994 -0.0113  0.4201
23411W        W38542   7.295   8.606   6.250 -0.2189 -0.3151  0.2023
23412W        W38543   0.896  15.814  13.676  0.1865  0.0330  0.0720
23413W        W38544  12.279   8.551   3.358  0.1924 -0.1248 -0.5866
23414W        W38545  12.202   1.089  11.736  0.0951 -0.1301 -0.0143
23415W        W38546  16.888   8.057   5.689  0.0124 -0.2732 -0.0724
23416W        W38547   0.212   9.401   2.429 -0.0501  0.0469  0.0307
23417W        W38548   5.077   9.602  15.319 -0.2930 -0.2469 -0.0554
23418W        W38549   1.973   0.556  15.269 -0.1028 -0.1002 -0.1449
23419W        W38550  10.258   3.657   1.649 -0.1812 -0.0495 -0.0708
23420W        W38551   3.994   6.596  13.445  0.1011  0.0216 -0.1050
23421W        W38552  16.783   6.595   2.753  0.1018 -0.1270  0.0966
23422W        W38553   3.463   0.740   2.654  0.1182 -0.1302 -0.2015
23423W        W38554   7.624   8.868  13.391  0.0793  0.0671  0.1076
23424W        W38555  15.271  14.434   1.998  0.1172  0.1561 -0.1166
23425W        W38556  15.735   4.069  15.810  0.1532 -0.1825 -0.1466
23426W        W38557   1.679  13.467   3.355  0.3352  0.1965 -0.1495
23427W        W38558  18.094  11.374  13.046 -0.0436 -0.2080 -0.1096
23428W        W38559   0.116   2.500  13.202  0.2870 -0.0083 -0.2242
23429W        W38560  12.808   3.811  13.409  0.2483  0.3548 -0.1496
23430W        W38561  11.658  14.584   0.653  0.0002  0.0146  0.1544
23431W        W38562  14.012   1.115   3.181  0.0254 -0.1728 -0.0245
23432W        W38563   9.598   9.822  13.176  0.1646 -0.0675  0.3647
23433W        W38564   9.954  16.775   2.753  0.1970  0.2265  0.2977
23434W        W38565  16.299  11.300   5.087 -0.2194 -0.0738  0.0057
23435W        W38566   2.283   3.735   0.485  0.1773  0.0840 -0.1659
23436W        W38567  14.985  16.390  11.502 -0.0435 -0.1580  0.2449
23437W        W38568   8.799  15.662   1.575  0.1567 -0.1056 -0.1206
23438W        W38569  16.950  14.847  14.441 -0.0199  0.0005 -0.1004
23439W        W38570   9.382  15.279  15.201  0.3024  0.0760 -0.2519
23440W        W38571   8.127  12.445   6.230 -0.1042 -0.4700  0.0379
23441W        W38572  14.949   5.069   3.737 -0.3040 -0.0094  0.1088
23442W        W38573  12.420  15.514  11.045  0.0874 -0.0696  0.1177
23443W        W38574   9.350   6.498  14.604 -0.0067  0.0238 -0.1026
23444W        W38575   4.848   6.964   0.037 -0.2111 -0.1385 -0.4961
23445W        W38576   3.389   4.828  12.392 -0.2009  0.4926 -0.0185
23446W        W38577   6.879  10.557   5.489  0.2004 -0.1247 -0.0820
23447W        W38578  11.086   6.169   5.735  0.1623 -0.1284  0.1877
23448W        W38579  15.904  17.560  14.266  0.0849 -0.2173 -0.2698
23449W        W38580   1.139  10.792   4.445  0.1958  0.0089  0.0042
23450W        W38581  12.536   6.116   4.503  0.2066 -0.0570  0.0696
23451W        W38582  14.497  10.140  12.388  0.0979  0.1341  0.0149
23452W        W38583   5.545   5.136  14.536 -0.0467 -0.2481  0.0018
23453W        W38584   0.240   1.536  14.614 -0.0713  0.2324  0.0115
23454W        W38585  12.987   7.237   2.044 -0.3541  0.2547  0.0396
23455W        W38586   2.756  11.077   5.313  0.1574  0.1565  0.0172
23456W        W38587   2.997   5.214   1.774 -0.2401 -0.2762  0.0539
23457W        W38588   2.190   3.336   5.069  0.4227  0.0097  0.0980
23458W        W38589   7.044  11.422  12.483  0.1135 -0.0651 -0.1838
23459W        W38590  14.702  10.767   4.970 -0.0347  0.0441  0.0752
23460W        W38591   7.029   9.471   5.103 -0.2334  0.3309 -0.0575
23461W        W38592   8.524   4.263  11.496 -0.2496  0.2086 -0.1903
23462W        W38593  12.721   8.807   2.072 -0.0525 -0.2558 -0.1472
23463W        W38594   4.206  12.612   0.428  0.0739  0.0292 -0.2619
23464W        W38595  15.612   5.957   2.204 -0.1623 -0.1147 -0.2980
23465W        W38596   0.001  10.443   6.038 -0.2601  0.0634 -0.0751
23466W        W38597   5.042   4.847  15.201 -0.4634  0.0912  0.0046
23467W        W38598   7.037   4.748   3.014  0.2152 -0.2583  0.0293
23468W        W38599   2.224  12.334  14.380  0.3894 -0.2654  0.1298
23469W        W38600   8.297   7.652   0.195  0.0681  0.2080  0.0268
23470W        W38601  12.289   5.166   4.343  0.1317 -0.3647  0.0327
23471W        W38602   1.927   5.618  13.086  0.1237  0.1820  0.1588
23472W        W38603   5.259   1.652   3.348 -0.1680 -0.1079 -0.0175
23473W        W38604   2.099  17.317   3.702 -0.4012 -0.0504 -0.1854
23474W        W38605   6.910   1.788   0.719  0.0535  0.1822 -0.2342
23475W        W38606  14.915  12.230   0.326 -0.0974  0.1735  0.2411
23476W        W38607   1.800  16.048   3.327  0.0217 -0.2326 -0.1443
23477W        W38608  14.634   8.133   1.790 -0.0934  0.1031  0.3190
23478W        W38609   6.834  15.273   1.104  0.0570  0.3952 -0.0295
23479W        W38610  10.834   5.416  13.474  0.1615  0.2615 -0.2213
23480W        W38611   6.708  13.035  13.087  0.2525 -0.0784  0.2696
23481W        W38612  17.504  13.888   4.080 -0.0911  0.0436  0.0751
23482W        W38613   1.928  17.930   5.142  0.0708  0.2624 -0.1302
23483W        W38614  11.054   2.773  15.624  0.1121  0.0021 -0.0080
23484W        W38615   8.245   3.110   3.025  0.2880  0.0010  0.2095
23485W        W38616  13.909   4.898   0.997 -0.1288  0.1205  0.0021
23486W        W38617   0.365  17.553   5.007 -0.0329 -0.2268  0.1179
23487W        W38618   2.654  17.134  13.899  0.3671  0.0551  0.0353
23488W        W38619   2.210  14.952   4.737  0.0818  0.0930  0.1110
23489W        W38620   8.163   4.828  12.930  0.0042  0.2362  0.1577
23490W        W38621   8.664  12.405   2.748  0.0961 -0.0178  0.0645
23491W        W38622   4.623  13.166  13.666 -0.0900  0.0050 -0.0476
23492W        W38623  13.343   1.307   1.434  0.0588  0.1937  0.1095
23493W        W38624  16.933   2.198   3.879 -0.0511 -0.0094 -0.0731
23494W        W38625  13.641  15.102   3.480  0.1244  0.0997  0.1320
23495W        W38626   4.303   4.185  14.925  0.3644  0.0852 -0.1766
23496W        W38627   2.433  12.541  13.476  0.0648 -0.2309 -0.2501
23497W        W38628  15.996  17.874  13.261 -0.0191  0.0965  0.0756
23498W        W38629  17.064  16.653   2.691  0.0964 -0.0706 -0.0361
23499W        W38630  15.376   7.051   2.229 -0.2418  0.2873 -0.0385
23500W        W38631   5.398  10.266   3.316  0.0373 -0.2189  0.1750
23501W        W38632   5.506   9.075  16.116 -0.0865  0.0898  0.1160
23502W        W38633   4.032  11.856  15.388 -0.2960 -0.0926 -0.0953
23503W        W38634   0.224  15.479  12.842 -0.0281 -0.0863 -0.0068
23504W        W38635  16.934   0.965  13.648 -0.0475  0.2143  0.0333
23505W        W38636  13.641   8.831  12.437  0.5397 -0.1454  0.1265
23506W        W38637   4.468  13.927   0.303  0.1864  0.0368 -0.0437
23507W        W38638  12.045   2.442   3.772 -0.0704 -0.1769  0.1641
23508W        W38639   2.311   6.265  15.044 -0.1210 -0.0887 -0.0811
23509W        W38640  14.458  13.797   4.553  0.0799  0.0161  0.0890
23510W        W38641   8.984   3.117  14.963 -0.0726 -0.0672 -0.2162
23511W        W38642   0.941  15.212  12.269 -0.2142  0.1026  0.1055
23512W        W38643   1.019   0.041  15.288 -0.3005  0.1826 -0.0212
23513W        W38644   3.293   5.654   1.255  0.1500  0.1125 -0.4786
23514W        W38645  13.577   3.642   5.622  0.3503  0.1982  0.1417
23515W        W38646  13.739   9.723  11.530 -0.2091 -0.1373  0.1359
23516W        W38647   6.667   1.641  11.307  0.1005  0.3092  0.0777
23517W        W38648  10.382   8.786  13.894 -0.0128  0.3113 -0.0023
23518W        W38649   4.061  11.948  11.760 -0.1142  0.0736 -0.1828
23519W        W38650   5.177   9.779   3.214  0.1144 -0.2471 -0.1059
23520W        W38651   4.860   4.175   1.188  0.0823  0.1115 -0.1233
23521W        W38652   4.177  17.338   4.998  0.3450 -0.1350 -0.1928
23522W        W38653  13.819  15.937   0.214 -0.1051  0.2684  0.0753
23523W        W38654   0.355  11.353  15.816 -0.0659  0.0363  0.0286
23524W        W38655  10.255  16.841  15.709  0.0870 -0.1261 -0.1395
23525W        W38656   9.255  16.751  13.509  0.3223  0.1606 -0.0083
23526W        W38657  18.063   7.728   1.447 -0.0495  0.1280 -0.0551
23527W        W38658   9.088   7.904  13.378  0.2244 -0.3537 -0.0765
23528W        W38659  10.883   6.828   1.517 -0.4150 -0.0575  0.2017
23529W        W38660   4.763  10.286   5.538 -0.1452  0.0223 -0.0438
23530W        W38661  17.567   5.969  12.292 -0.2443  0.1277 -0.2150
23531W        W38662   1.661  12.001   4.802 -0.0298  0.0883 -0.0482
23532W        W38663  10.174   1.816  16.044 -0.2920  0.0424 -0.1338
23533W        W38664   2.785  10.945  11.630 -0.0914 -0.1258 -0.1728
23534W        W38665   4.461  16.948  14.033 -0.0123 -0.1972  0.3255
23535W        W38666   4.382   3.130  15.920 -0.1006  0.0544  0.1892
23536W        W38667   2.190   2.261  10.331 -0.4108 -0.0706  0.1827
23537W        W38668   0.692   1.548   2.623 -0.1348  0.1757 -0.2560
23538W        W38669  17.417  15.752   1.407  0.2128  0.1167 -0.0476
23539W        W38670  17.391  17.209  10.764  0.0666 -0.2124  0.1530
23540W        W38671   8.830  17.057  13.562 -0.0738  0.1003  0.0950
23541W        W38672  11.535  17.761  12.295  0.1706 -0.5161  0.0570
23542W        W38673   9.472  18.043  11.288 -0.3134 -0.3795 -0.2073
23543W        W38674  14.032  17.908  14.748  0.0257  0.1851  0.0735
23544W        W38675   0.095   3.469  15.613  0.1893  0.1909  0.1836
23545W        W38676  16.976   8.432  12.946  0.0020  0.3475  0.1377
23546W        W38677   8.294   5.951  11.553  0.3537  0.0415 -0.1445
23547W        W38678  16.826   3.768   3.253 -0.3589  0.0017  0.0607
23548W        W38679  13.502   1.035   5.375 -0.4321  0.2168  0.0980
23549W        W38680   1.066   2.683   1.281  0.2156 -0.1013  0.0298
23550W        W38681  16.512  13.093   0.105  0.1783 -0.0348 -0.2222
23551W        W38682   0.166  11.623  14.920  0.3383  0.0127  0.1603
23552W        W38683  17.392  12.893  12.463 -0.0645 -0.0194 -0.0512
23553W        W38684   5.210   7.150   4.935 -0.0668 -0.1759  0.0026
23554W        W38685  17.077  13.611   4.597 -0.2449 -0.3552  0.1398
23555W        W38686   0.582   5.268   0.540 -0.4445  0.2155  0.0231
23556W        W38687  15.629   9.855   2.076 -0.1471  0.2688 -0.2211
23557W        W38688  12.489  11.855  13.902  0.2817  0.0017  0.1027
23558W        W38689   1.540   8.205  14.160 -0.1199 -0.0106  0.2180
23559W        W38690  15.062   6.131   4.068  0.1717  0.0485  0.0752
23560W        W38691   6.402   8.181  15.426 -0.2352 -0.1439 -0.2813
23561W        W38692   7.827   7.417  11.979  0.0541  0.0124  0.5318
23562W        W38693   4.236   8.517  15.118 -0.0550  0.0050  0.0910
23563W        W38694   9.710   2.087   3.504 -0.3083  0.1869  0.1304
23564W        W38695  12.379   2.755  16.188 -0.1734  0.2524 -0.2810
23565W        W38696   3.030   5.115  13.645  0.2878  0.1190 -0.0736
23566W        W38697   2.596   4.955   4.826 -0.0508 -0.3080 -0.3520
23567W        W38698  11.912  15.787   1.497  0.1519  0.0334 -0.3295
23568W        W38699   7.403   1.028   2.950 -0.0747 -0.2006  0.1084
23569W        W38700  13.502   4.862  11.757  0.0348  0.1076  0.0277
23570W        W38701   5.083  10.010   3.658 -0.0122  0.0761 -0.3152
23571W        W38702   3.466  16.788   2.828  0.0206  0.2907  0.0837
23572W        W38703   6.122   1.529   5.856  0.1957  0.1976 -0.0985
23573W        W38704  12.595  11.407   2.858  0.1545 -0.3084 -0.0759
23574W        W38705   8.991  17.276   4.430  0.0912 -0.3839 -0.0854
23575W        W38706   7.800   8.147  11.794  0.1753  0.2091 -0.0595
23576W        W38707   2.456   0.338  15.937  0.1257  0.0368 -0.1905
23577W        W38708   3.982  13.568   4.438 -0.1782  0.0757 -0.0463
23578W        W38709  15.856   4.757  15.202  0.0999  0.0170  0.1236
23579W        W38710   8.155   2.159   1.519  0.0968  0.1802  0.0009
23580W        W38711   5.364   9.024  13.086  0.4208  0.0224  0.0053
23581W        W38712   6.584   7.437  11.435 -0.3552  0.0232  0.1474
23582W        W38713   6.755   9.371   1.605 -0.0959 -0.3334  0.1781
23583W        W38714   4.248   0.310   1.540  0.1897  0.1589  0.2838
23584W        W38715   4.281   3.083  11.678  0.1307 -0.0826 -0.0816
23585W        W38716   7.983  14.231   2.909  0.0136 -0.0144  0.0776
23586W        W38717   4.793  16.893  15.641  0.1934 -0.1108  0.0825
23587W        W38718  17.963   6.600   5.330 -0.0977 -0.2475  0.4186
23588W        W38719   6.415   1.069   3.308 -0.1992 -0.0740 -0.2570
23589W        W38720   4.003  16.867  13.239  0.0140 -0.0066  0.0497
23590W        W38721  15.135   7.388   3.635 -0.2208 -0.0487 -0.1968
23591W        W38722   1.183   6.349   4.725  0.1568 -0.1360 -0.0671
23592W        W38723   8.122   0.335  16.010  0.0341  0.0720 -0.3012
23593W        W38724  10.749   1.683   4.493 -0.0499  0.1788 -0.2455
23594W        W38725   5.953   9.143   2.240  0.0342 -0.0725 -0.1802
23595W        W38726   2.248   5.064  15.790 -0.2587  0.1680 -0.3249
23596W        W38727   2.779   4.935  15.877  0.4482  0.1031  0.1646
23597W        W38728   7.256   7.730   1.664 -0.1780  0.0834 -0.1984
23598W        W38729   4.686  11.662  12.056  0.2698 -0.4732  0.0969
23599W        W38730   6.246   9.844  11.305 -0.0402 -0.0893  0.1460
23600W        W38731  10.131  10.205  12.617 -0.2657 -0.0363 -0.0202
23601W        W38732   6.193   9.375   0.334  0.2562  0.0392 -0.3911
23602W        W38733  17.894   2.547  14.559  0.0372 -0.1616  0.2363
23603W        W38734  15.695  17.724   5.797  0.1733  0.0926 -0.1004
23604W        W38735   1.569  14.064  11.217 -0.0194  0.0456 -0.0442
23605W        W38736   3.686  17.411   4.944  0.1792  0.0248  0.0509
23606W        W38737   3.389   2.101   0.491  0.1634  0.0367  0.0119
23607W        W38738  11.538   8.285   5.185 -0.2183 -0.0530 -0.1280
23608W        W38739   2.281  14.067   4.277  0.1587  0.4144 -0.2854
23609W        W38740   6.691   8.266   2.805  0.2755 -0.1542 -0.1032
23610W        W38741   7.662   3.409   4.931  0.0286  0.0252 -0.0328
23611W        W38742  17.827  11.314   2.983  0.0088  0.1541  0.1255
23612W        W38743   7.973   9.960  15.877  0.0463 -0.0023 -0.1180
23613W        W38744  10.449  11.243   3.907  0.1653 -0.1176  0.0355
23614W        W38745  16.222  16.955   2.320  0.1305  0.1718  0.2130
23615W        W38746   4.231   6.984  14.108  0.1182  0.2721 -0.4253
23616W        W38747   0.300   2.500   1.638  0.2008 -0.0301  0.0358
23617W        W38748   8.183   7.076  16.134 -0.2276 -0.0685 -0.2461
23618W        W38749  10.264   3.602   2.160  0.1491  0.0726  0.0882
23619W        W38750  15.060   1.277  11.945  0.1603 -0.0565  0.0770
23620W        W38751  14.972   6.470  12.364 -0.3312  0.0057  0.3208
23621W        W38752   2.710   1.321  14.366  0.0045  0.0364  0.1315
23622W        W38753   3.914   9.548   4.972  0.0103  0.0622  0.3442
23623W        W38754  10.105  16.365  15.372  0.1930  0.0952  0.2778
23624W        W38755  13.897   6.598   0.736  0.0935  0.1587 -0.2582
23625W        W38756  14.347   9.954  15.121  0.3905  0.1959 -0.1883
23626W        W38757   5.804   9.071  11.234  0.0512 -0.1515  0.0902
23627W        W38758  14.175  11.009  12.043 -0.0758 -0.2992 -0.2450
23628W        W38759  10.981   9.213   1.573  0.2679 -0.0971  0.0131
23629W        W38760   2.847  10.503   2.012 -0.0176 -0.1145  0.1399
23630W        W38761   4.657  14.490   2.229 -0.0457  0.1712  0.0058
23631W        W38762   5.187   4.888   0.998  0.1200 -0.0011 -0.1384
23632W        W38763   6.290  15.463   5.965 -0.0864  0.1904 -0.5579
23633W        W38764   6.565  13.877   3.420  0.1525  0.0081  0.0230
23634W        W38765  14.182   1.717   5.338 -0.0514  0.1553  0.1047
23635W        W38766  12.085  13.781  14.522  0.1009  0.1263 -0.0471
23636W        W38767   4.989   6.973   3.767  0.0337 -0.1281  0.1789
23637W        W38768  15.830  17.152   2.577 -0.0125  0.1346 -0.0729
23638W        W38769  10.177  16.928   3.181  0.1581 -0.3455  0.1101
23639W        W38770   2.035   6.932  12.122  0.0823  0.3420  0.3466
23640W        W38771  16.216  10.589   5.302  0.1894  0.1347 -0.1061
23641W        W38772  13.375   5.852   4.832 -0.2383  0.1317 -0.2041
23642W        W38773  11.355  11.597  11.291 -0.1187  0.1265 -0.2423
23643W        W38774  17.580   2.944   0.123 -0.0818 -0.1492  0.0166
23644W        W38775  12.807  18.087   1.633 -0.4235  0.1230  0.0555
23645W        W38776  11.056  16.808  15.395  0.1499  0.0988  0.2699
23646W        W38777   3.419   3.778   5.443 -0.0644  0.1082  0.0814
23647W        W38778  15.439  14.903   3.834 -0.0060 -0.0576 -0.0951
23648W        W38779   0.544  12.423   2.668 -0.0246 -0.3722  0.0607
23649W        W38780  13.057  15.305  15.653  0.0973  0.0646  0.2821
23650W        W38781   6.471  17.696   4.031 -0.2098  0.0017 -0.0743
23651W        W38782   2.928  11.728  14.972  0.3432 -0.2238 -0.0476
23652W        W38783   3.818   4.912   0.583  0.1470 -0.0520  0.0717
23653W        W38784  13.308   7.079  13.465  0.0972 -0.1272 -0.0972
23654W        W38785   3.815   7.674  12.634  0.1276 -0.0538 -0.0048
23655W        W38786  11.894   4.211   2.107  0.0616  0.2225  0.0438
23656W        W38787  13.864   4.160   4.174 -0.2404  0.1780  0.2546
23657W        W38788   9.194   9.338  12.180 -0.3477  0.3397  0.0365
23658W        W38789  13.987   1.708   2.353 -0.1613 -0.0394  0.0224
23659W        W38790   0.301   1.317   5.272 -0.0722  0.0586 -0.0542
23660W        W38791  11.222  11.223  15.089 -0.2606  0.0820  0.1715
23661W        W38792  14.345   3.845   2.032  0.2623 -0.2750  0.1132
23662W        W38793   3.724   3.873   3.292  0.0215 -0.1546 -0.1342
23663W        W38794   6.441  15.943   3.303  0.1123  0.2641  0.0490
23664W        W38795   1.849   2.536   4.073  0.3229 -0.0839 -0.1216
23665W        W38796  11.432  16.604  14.218  0.4196 -0.1299 -0.0756
23666W        W38797   5.316   3.998  14.657 -0.1337  0.1109  0.0408
23667W        W38798   1.414   5.300   0.006 -0.0009  0.1461  0.2224
23668W        W38799   5.195   3.489  14.985  0.1310  0.2942  0.1655
23669W        W38800  15.851   2.399  12.031  0.2651 -0.0996 -0.1245
23670W        W38801  12.905   9.014   2.705 -0.0174 -0.2340 -0.0323
23671W        W38802  15.103   8.040  14.685 -0.0743 -0.2347 -0.0162
23672W        W38803  15.963   7.475   3.796  0.1608  0.0756 -0.2208
23673W        W38804   2.329   8.599  12.504  0.0757 -0.0897  0.2109
23674W        W38805   7.638  17.180   0.287 -0.0980 -0.0846  0.3113
23675W        W38806  16.999   7.825   3.671 -0.1347 -0.0587 -0.3010
23676W        W38807   6.387   4.379   3.306  0.0331  0.0528 -0.0864
23677W        W38808  14.717   7.743  11.131 -0.0016 -0.3804  0.0871
23678W        W38809   1.101  11.342   4.236  0.2615 -0.0118 -0.0837
23679W        W38810   3.579   2.968  12.909  0.1394 -0.1233 -0.2536
23680W        W38811   4.238  15.785  13.418 -0.2386 -0.3090  0.0474
23681W        W38812  11.649   7.593   3.974  0.0830  0.0314 -0.0762
23682W        W38813   3.346  15.966  16.155 -0.0711 -0.1737 -0.3231
23683W        W38814  17.373   3.591  13.853 -0.0820  0.2526 -0.0666
23684W        W38815   2.230  10.550  14.788  0.0941 -0.0849 -0.0487
23685W        W38816   9.144   9.312  10.048 -0.1247  0.1819  0.2081
23686W        W38817   1.288  13.308  15.092 -0.2098 -0.2418  0.0731
23687W        W38818   3.141  12.172  15.213  0.0955 -0.3712  0.0586
23688W        W38819  13.950   1.315   0.607  0.0513  0.0975  0.1559
23689W        W38820  14.529   9.900   5.473  0.0668  0.0831  0.3270
23690W        W38821  14.607  15.413   0.528 -0.0187  0.1317 -0.0204
23691W        W38822  10.596  16.479  15.456  0.3543 -0.0661  0.0976
23692W        W38823  16.420   9.926  11.327  0.1089 -0.0232  0.0633
23693W        W38824   1.963   9.408   3.902  0.0962  0.1810 -0.1579
23694W        W38825   2.677   1.686   2.520  0.2590  0.1925  0.0340
23695W        W38826  10.169  15.246   6.128 -0.1209  0.4338 -0.0994
23696W        W38827  14.067   4.419  13.328 -0.1553  0.0084 -0.0321
23697W        W38828   9.851   5.089   1.800  0.1023 -0.0964 -0.1480
23698W        W38829   9.442   4.885   2.330 -0.3042 -0.0843  0.1678
23699W        W38830  12.997  11.047   2.784 -0.1310 -0.0179  0.2203
23700W        W38831   3.945   2.780   0.523 -0.0234 -0.1508 -0.1743
23701W        W38832   7.530   6.828   1.254 -0.1711 -0.1858 -0.0358
23702W        W38833  10.868  13.222  12.953 -0.0266  0.1439 -0.0096
23703W        W38834  13.903  14.163  12.204  0.2657  0.1759 -0.1696
23704W        W38835   4.254  12.576   1.300 -0.1231 -0.0673  0.0895
23705W        W38836  17.415  12.636  14.877  0.2019  0.1444 -0.0652
23706W        W38837   9.820   2.744  12.098  0.2144  0.0198 -0.0472
23707W        W38838   7.853   2.727   1.359  0.3538 -0.0560  0.2068
23708W        W38839   9.409   4.984   4.114  0.1546 -0.2652 -0.0650
23709W        W38840  16.196  11.477  14.076  0.4007 -0.3480 -0.1431
23710W        W38841   8.267   3.419  12.736  0.0492  0.3319  0.1795
23711W        W38842   3.874   8.258   2.842 -0.1040 -0.0091  0.0408
23712W        W38843  10.928   1.121   0.275 -0.0115  0.1234  0.0005
23713W        W38844  10.283  14.894   3.775  0.1546 -0.0824  0.0010
23714W        W38845  17.157   9.866  16.045 -0.0853  0.0704 -0.2535
23715W        W38846   0.365   7.424   2.918 -0.1084  0.0284 -0.2609
23716W        W38847  17.680   0.565  14.505  0.1636 -0.2583 -0.1472
23717W        W38848  13.479   6.818   0.918  0.0158 -0.2039  0.0139
23718W        W38849   1.043   9.469  12.028 -0.0235  0.3910 -0.1824
23719W        W38850  17.824  16.539  15.963 -0.0892 -0.1136  0.5081
23720W        W38851  16.334  17.051  10.010 -0.0321 -0.0681 -0.1420
23721W        W38852  10.634  10.248   2.850  0.0074 -0.1535  0.0990
23722W        W38853   0.620   3.366   0.540 -0.0060  0.1528  0.1271
23723W        W38854  14.859   8.488  12.049  0.0318  0.0952  0.1418
23724W        W38855   8.887  10.214   2.614 -0.2380 -0.0086 -0.1598
23725W        W38856   7.891   5.313   3.883 -0.2149  0.1993  0.1294
23726W        W38857  14.889  14.530  12.819  0.2174  0.0259 -0.0320
23727W        W38858   0.388  10.697   3.755 -0.0111  0.1783  0.0955
23728W        W38859  17.528  10.544  13.045  0.2186  0.1159  0.0649
23729W        W38860   5.957   1.695   0.401  0.1048  0.2432  0.0146
23730W        W38861   4.954   8.319  13.459  0.1019  0.1498 -0.2279
23731W        W38862  13.994   0.893  15.497  0.0045 -0.1426 -0.0839
23732W        W38863   0.500  15.741  14.437 -0.0583  0.2553 -0.2080
23733W        W38864  10.213  10.388  14.954 -0.4075 -0.1340  0.0971
23734W        W38865   4.997   7.659   0.983  0.4561 -0.1533 -0.0533
23735W        W38866  12.254  11.435   1.377 -0.2889 -0.2055  0.0407
23736W        W38867  16.590   2.797   2.435  0.2372 -0.0858  0.0450
23737W        W38868   0.865   4.934  13.434  0.0682  0.2208 -0.2048
23738W        W38869  13.923  13.495  12.949 -0.1014  0.1822  0.3269
23739W        W38870  15.279  10.455  11.304 -0.0172 -0.0644  0.1067
23740W        W38871  13.364   6.263   4.406 -0.0170  0.1654 -0.0043
23741W        W38872   0.170  13.596   1.981 -0.0416 -0.0760 -0.1738
23742W        W38873  17.817  13.984   3.691 -0.0725 -0.0551  0.0944
23743W        W38874   6.267   0.146   1.745 -0.0522 -0.0663 -0.1311
23744W        W38875   3.515   3.556  12.220  0.0435  0.1298 -0.0656
23745W        W38876   4.208   9.734  15.387 -0.0093 -0.1096  0.3203
23746W        W38877  10.026  13.335   3.462 -0.0817 -0.1090  0.1748
23747W        W38878   6.261   5.227   2.752 -0.1088 -0.0452 -0.0076
23748W        W38879  10.695  12.030  14.727  0.0689  0.0187  0.1472
23749W        W38880  13.614  11.906  13.110 -0.0020  0.1125 -0.1136
23750W        W38881  12.753  10.169   0.458 -0.2881  0.2008 -0.0628
23751W        W38882  12.948  10.566  14.659  0.0287 -0.1586 -0.0459
23752W        W38883  10.653  17.342  12.486 -0.1216  0.0658  0.1545
23753W        W38884   6.045  15.628   1.691  0.1393 -0.1024  0.0341
23754W        W38885   0.327   5.499  11.860  0.0665 -0.2386 -0.0499
23755W        W38886  15.490  12.810  14.166  0.3282  0.0352 -0.3212
23756W        W38887  17.306  11.110  12.636 -0.1046  0.1294 -0.1292
23757W        W38888  15.334  10.138   0.662  0.0655  0.0848  0.1533
23758W        W38889  15.692  13.145  11.907 -0.0364  0.0097 -0.2900
23759W        W38890  16.177  15.126   4.500  0.0492  0.1705 -0.0750
23760W        W38891  13.600  17.858  14.530 -0.1218 -0.1821  0.1761
23761W        W38892   0.202  16.131   3.020 -0.1924  0.0072 -0.0521
23762W        W38893  10.530  16.722  16.096  0.0058  0.0637 -0.0992
23763W        W38894   6.335   6.407  12.107 -0.0124  0.0867 -0.1319
23764W        W38895   1.698  11.207  11.260  0.1912 -0.1518 -0.2105
23765W        W38896   6.043  17.884  10.960 -0.0136 -0.1374  0.1207
23766W        W38897   4.945  14.372  11.740 -0.0362 -0.1586 -0.1281
23767W        W38898  10.194   0.089   5.658  0.1672  0.0545  0.1715
23768W        W38899   0.847   2.028   3.237 -0.0104 -0.2489  0.2847
23769W        W38900  12.735  14.684   5.630 -0.2167  0.1102  0.0566
23770W        W38901   3.577  14.970   1.414 -0.1184  0.0575  0.1836
23771W        W38902   4.535  13.470   4.218 -0.0078 -0.2776 -0.1612
23772W        W38903  12.096  10.617  15.253  0.0405 -0.1060 -0.1216
23773W        W38904  13.480  16.600  14.745  0.0148  0.0296 -0.0470
23774W        W38905   7.451   5.605   2.661  0.1964  0.0005  0.2154
23775W        W38906   5.228  10.801  14.499  0.0284 -0.2028  0.1376
23776W        W38907   8.610  11.785   2.021 -0.0269  0.0971  0.0239
23777W        W38908  12.805  14.115  14.220  0.0639 -0.1023  0.3967
23778W        W38909  13.507   6.131  14.263 -0.0756  0.5340  0.0392
23779W        W38910   2.360  12.316  13.924  0.0445 -0.0616  0.1135
23780W        W38911   5.978  13.551   1.713 -0.1938 -0.0891 -0.2240
23781W        W38912  15.229   2.129  15.897  0.0042  0.1250 -0.1017
23782W        W38913  12.681  15.767  13.275 -0.1046 -0.1649  0.1745
23783W        W38914  11.412   6.776   0.418  0.0637  0.0209  0.0716
23784W        W38915   2.322   9.701  14.756 -0.0404 -0.1077  0.0266
23785W        W38916   5.219  12.483   3.662  0.0578 -0.1809  0.0430
23786W        W38917   5.582  17.200   5.328 -0.1201  0.5221 -0.1516
23787W        W38918  14.498  16.880   2.625  0.0608  0.4788  0.1200
23788W        W38919  13.295   3.678  12.482  0.0405  0.1534 -0.1230
23789W        W38920  10.622   4.499   3.526 -0.1918 -0.0429 -0.2294
23790W        W38921   2.374   5.411   5.700  0.1753 -0.3016  0.0329
23791W        W38922  14.154   2.340  13.949  0.2020  0.1234 -0.0053
23792W        W38923  18.026   3.293   4.201 -0.0622 -0.1321 -0.0217
23793W        W38924   7.427   2.726  16.110  0.0899 -0.2170  0.2384
23794W        W38925  17.935  11.820  13.332  0.2373 -0.1490 -0.0525
23795W        W38926   4.510  11.188  11.175 -0.0154  0.2610  0.1311
23796W        W38927  17.589  17.796   5.215 -0.1465  0.0031  0.1229
23797W        W38928   0.913   6.783  12.598 -0.3040  0.3656 -0.0706
23798W        W38929  13.910  13.248  16.066 -0.1776 -0.0472 -0.0259
23799W        W38930  12.053   2.851   1.892 -0.0514  0.0412  0.2757
23800W        W38931   9.427  13.113   5.158 -0.1674  0.0914 -0.3095
23801W        W38932   9.232   9.071   2.792 -0.1456  0.0672  0.2454
23802W        W38933  11.348   4.912   4.153 -0.1614 -0.3406  0.1598
23803W        W38934   6.124   4.763   5.221 -0.1032 -0.2525  0.2348
23804W        W38935  15.986   5.965   4.966  0.0023 -0.1109 -0.0331
23805W        W38936   6.279   3.974  14.192 -0.1091 -0.0002 -0.1918
23806W        W38937  16.057   7.930  14.641 -0.1830  0.1114  0.0663
23807W        W38938  11.723  11.328  11.045 -0.3294 -0.0103 -0.0434
23808W        W38939  17.737   2.429   3.761  0.2645 -0.0025  0.1349
23809W        W38940   0.165  13.957   5.613 -0.0546  0.1465  0.3236
23810W        W38941   8.743   4.975  14.188 -0.0716  0.1404  0.5888
23811W        W38942   1.225   8.123  11.595  0.0558  0.2098 -0.0595
23812W        W38943  17.575   4.529  15.227  0.1791 -0.2997 -0.2445
23813W        W38944   3.101   1.221  11.161 -0.3067 -0.0010 -0.0265
23814W        W38945   6.509  13.397   1.486  0.0510 -0.0526 -0.1290
23815W        W38946   9.088  16.285   4.612 -0.0446  0.0990 -0.1983
23816W        W38947   0.055  16.634  11.729 -0.2451 -0.1112  0.0467
23817W        W38948   9.973   8.036  13.181  0.1195  0.1887  0.0812
23818W        W38949   0.878  15.025   5.234  0.2547 -0.2093  0.0435
23819W        W38950  15.031  13.420  13.585 -0.1484 -0.4497 -0.0613
23820W        W38951  12.419   2.206   0.122  0.1720 -0.0745 -0.0572
23821W        W38952   0.065   3.750  16.049  0.0626  0.0798  0.0864
23822W        W38953   6.843   9.494   3.244  0.0127  0.1079  0.0325
23823W        W38954   7.162  12.460  14.901  0.2897  0.2181 -0.1196
23824W        W38955  16.788   4.737  14.751 -0.1939  0.0195 -0.3697
23825W        W38956   2.008   5.252  13.483  0.2245 -0.0604 -0.3080
23826W        W38957   3.247  16.750  13.085 -0.1209  0.2355  0.0028
23827W        W38958  12.150   3.810   5.154 -0.2906 -0.0164  0.0840
23828W        W38959   7.534   7.239   2.596  0.2862 -0.2612  0.3414
23829W        W38960  13.271   6.541  15.045 -0.1887 -0.0312 -0.2784
23830W        W38961  13.748   2.754  16.079 -0.4471 -0.3293  0.0969
23831W        W38962  12.002  10.552   0.581 -0.1224  0.1236  0.1168
23832W        W38963  15.444   9.975   4.150  0.0340 -0.0859 -0.1398
23833W        W38964  13.973  13.907  12.618  0.0811  0.1619 -0.4203
23834W        W38965  10.655  13.219   5.097 -0.2939  0.1973  0.1402
23835W        W38966   5.140  16.674  15.964  0.1076 -0.1184  0.1164
23836W        W38967   1.994   3.785  15.708 -0.0575 -0.0100 -0.1054
23837W        W38968   2.789   9.676  15.594 -0.1228  0.1409 -0.3187
23838W        W38969   0.398  14.517   0.567  0.2900  0.0887 -0.0394
23839W        W38970  17.592   6.524   1.416  0.0673 -0.0049 -0.0571
23840W        W38971   8.420   0.961  11.810  0.1250 -0.1707 -0.0298
23841W        W38972   5.614  10.454  13.416  0.2143  0.3803 -0.0228
23842W        W38973   0.044   9.870   5.566 -0.0809  0.2648  0.0321
23843W        W38974   5.100  11.259   5.236  0.0577  0.2125  0.0202
23844W        W38975   2.157  13.396   3.437 -0.1022 -0.0400  0.1266
23845W        W38976   6.756   0.096   3.406  0.0499 -0.0240 -0.1420
23846W        W38977   9.546   6.113   5.629 -0.3451  0.1459  0.0966
23847W        W38978  16.748   3.185   3.348  0.1932  0.3086 -0.1728
23848W        W38979   4.082  15.494  11.836  0.2057  0.0799 -0.1923
23849W        W38980   1.034   0.393  12.661  0.4556  0.0453  0.0308
23850W        W38981   2.272   0.997   0.664 -0.2578 -0.0141  0.0129
23851W        W38982  14.160   5.986   5.148 -0.1797 -0.0586  0.1249
23852W        W38983  16.190  16.305  10.970  0.2685 -0.0872 -0.1989
23853W        W38984   6.645   3.096   2.001  0.3335  0.0739  0.4267
23854W        W38985  13.276   9.319   0.067 -0.1610 -0.1092  0.2049
23855W        W38986   9.148   7.622   0.424  0.3975  0.4344  0.0475
23856W        W38987   1.041   2.440   0.458  0.1184  0.0916  0.0236
23857W        W38988   1.493  12.382  13.756  0.0852 -0.1803  0.0031
23858W        W38989   4.203   1.600   1.139  0.3147 -0.1870  0.1718
23859W        W38990   6.825   3.917  14.315  0.3232 -0.0135  0.0633
23860W        W38991   6.184   8.442   4.403  0.1225 -0.3312 -0.0042
23861W        W38992  14.592  12.843  15.116 -0.1363 -0.3140  0.2631
23862W        W38993   1.529   3.163   3.633  0.2164  0.1780  0.1355
23863W        W38994  14.662   9.396  11.697 -0.0441 -0.2352  0.2040
23864W        W38995   3.330   0.573  13.612 -0.2180 -0.0375 -0.3477
23865W        W38996   1.450  15.426  13.061  0.2188  0.0673 -0.0535
23866W        W38997  17.621  13.664  13.458  0.0115 -0.0213 -0.0798
23867W        W38998   3.710  15.734   5.426  0.3359 -0.0915  0.2229
23868W        W38999   4.078  13.920   1.059  0.1273  0.0602 -0.2266
23869W        W39000   2.514   0.008  13.614  0.2185  0.0376 -0.0639
23870W        W39001   1.264  17.579  11.677 -0.0890  0.1851  0.0345
23871W        W39002  15.968   4.219  14.028 -0.5550  0.1731 -0.0604
23872W        W39003  11.503  11.929   2.303 -0.1679  0.0135 -0.2495
23873W        W39004   4.733  11.536  14.613 -0.3268  0.1466  0.0068
23874W        W39005  14.127  13.379   2.071  0.0945  0.1047  0.1615
23875W        W39006  11.336   6.054  16.209 -0.2614 -0.2063 -0.1401
23876W        W39007  16.785   6.306  11.951  0.1203 -0.0664 -0.4213
23877W        W39008   2.035   1.539  16.236 -0.1945 -0.3588  0.3625
23878W        W39009   1.068   9.997  10.958 -0.1700  0.2337 -0.0531
23879W        W39010   5.936  12.972  13.441  0.1515  0.1128 -0.1593
23880W        W39011   6.050  13.926   0.159  0.0569  0.1411 -0.1419
23881W        W39012   5.303  10.465  15.402  0.1357 -0.0804 -0.1142
23882W        W39013   6.369  15.816  10.188 -0.0347  0.1896 -0.2621
23883W        W39014  10.634   3.321  10.690  0.2111  0.3173  0.0353
23884W        W39015   5.437   3.570   4.831 -0.0372 -0.1483  0.1978
23885W        W39016   6.999   1.544   3.882  0.0477  0.3058 -0.0860
23886W        W39017   0.553   0.700   2.087 -0.1243  0.0496  0.2361
23887W        W39018   1.314  15.575   3.929 -0.0081  0.1632 -0.1073
23888W        W39019  13.889  15.516  14.556 -0.2741  0.4833  0.0032
23889W        W39020   2.617  16.679  12.612  0.1543  0.1652 -0.1757
23890W        W39021  10.335  14.933   4.363  0.1155  0.2129  0.0739
23891W        W39022   4.605  12.843   2.974  0.1443  0.2303  0.1249
23892W        W39023   4.285   3.486   1.821  0.2848 -0.0363 -0.2006
23893W        W39024  15.051  16.594   1.482 -0.0723  0.0183 -0.0311
23894W        W39025   9.614  17.247   4.855  0.0295 -0.0435  0.0031
23895W        W39026  12.035  11.433  11.958 -0.2781  0.2372 -0.2117
23896W        W39027  10.506  18.077  14.607 -0.1431  0.3390 -0.2214
23897W        W39028   7.970  16.558  13.230  0.1476 -0.0761  0.1069
23898W        W39029  15.520  10.440   1.691 -0.0008 -0.2711 -0.1617
23899W        W39030   5.642   7.046  11.604 -0.1656 -0.2570 -0.1568
23900W        W39031  16.477  10.702  13.633  0.2313 -0.0346  0.1163
23901W        W39032   2.259  17.235  15.512 -0.1728 -0.1180  0.1776
23902W        W39033   4.261  17.689   0.051 -0.0953  0.0753  0.2769
23903W        W39034   5.275   5.705  16.041  0.3680 -0.0996  0.0837
23904W        W39035   4.001   2.328  11.107 -0.0639  0.4348 -0.0710
23905W        W39036  15.945  10.328   2.017 -0.0739  0.0077 -0.3456
23906W        W39037  15.960  12.410   1.975 -0.1119  0.0640 -0.0282
23907W        W39038  11.708   0.357   6.146 -0.0900  0.1132 -0.1389
23908W        W39039   6.066  13.152   0.795  0.2251 -0.0073 -0.2548
23909W        W39040   9.242   5.165   0.408 -0.1927  0.1270  0.2216
23910W        W39041  10.838   0.208   1.139 -0.1312 -0.0055  0.0673
23911W        W39042   7.468   5.405   0.243  0.0785  0.0570 -0.2411
23912W        W39043   9.146  14.623   1.655 -0.0298  0.1090 -0.0808
23913W        W39044   2.937  14.382   3.409 -0.3626  0.1190 -0.5408
23914W        W39045   8.297  10.069   4.327  0.2017 -0.3244 -0.0684
23915W        W39046  16.103   9.329   3.922 -0.0425  0.0393  0.1664
23916W        W39047  14.517  16.078  15.669  0.1733 -0.0574 -0.1024
23917W        W39048   2.117   4.230  12.066 -0.0861 -0.5381  0.0310
23918W        W39049   4.372  14.445  11.503  0.2674  0.0831 -0.1233
23919W        W39050   5.398   2.667  10.710  0.0020 -0.1387 -0.0195
23920W        W39051  15.644  15.521   5.677  0.0103 -0.1444 -0.1511
23921W        W39052   2.378  17.520   5.425  0.0416 -0.1065  0.0039
23922W        W39053  14.746   8.213   2.304  0.0131 -0.1456  0.2169
23923W        W39054  15.497   9.597  13.699  0.1015 -0.0796  0.0089
23924W        W39055  14.136  16.438   2.809  0.3321  0.3176 -0.0435
23925W        W39056   8.050   6.326   2.568 -0.0925 -0.0974 -0.1463
23926W        W39057  13.656   6.066  15.831 -0.1424 -0.0516 -0.2197
23927W        W39058  17.918  14.135   4.307  0.1517  0.0120  0.2099
23928W        W39059   4.778   5.777   0.647 -0.0256 -0.0036 -0.1319
23929W        W39060   8.288  10.561   4.553  0.2764  0.1186 -0.0016
23930W        W39061   3.446   1.789   4.071 -0.0753 -0.2290  0.2150
23931W        W39062  11.993  14.976  11.690  0.0340 -0.1010 -0.2649
23932W        W39063   6.204  13.887  14.085  0.0537 -0.1980  0.1112
23933W        W39064  14.296  13.454  12.103  0.0057  0.0233 -0.2006
23934W        W39065   4.833   2.636   4.092 -0.0950 -0.0050 -0.0270
23935W        W39066   6.118   1.147  14.612  0.2332 -0.1118  0.1541
23936W        W39067   5.718   1.857  14.543  0.0385 -0.2809  0.1288
23937W        W39068  12.957  15.771  12.633  0.0247  0.2944 -0.1266
23938W        W39069  10.901   4.682  14.321  0.0459  0.0782 -0.1684
23939W        W39070  11.857  13.635   5.315  0.0412 -0.0468  0.0675
23940W        W39071  10.937  11.289   4.404 -0.1571  0.0618 -0.2103
23941W        W39072   0.781   7.978  14.644  0.0030 -0.0892  0.0819
23942W        W39073  17.682  11.954  10.592  0.0440 -0.0174  0.0202
23943W        W39074  15.448   0.900  14.276  0.0880  0.1206  0.0872
23944W        W39075  13.884   2.105  12.893 -0.1463 -0.0131 -0.0196
23945W        W39076  17.866   1.295  10.018  0.1359  0.0227 -0.0166
23946W        W39077  13.126   2.973   4.102 -0.0496 -0.0695  0.2531
23947W        W39078  10.382   1.282   3.200 -0.2362 -0.3660  0.2327
23948W        W39079   5.261   7.357  11.342 -0.1467  0.1926 -0.2675
23949W        W39080  11.843   8.789  14.216 -0.0787 -0.1002 -0.0437
23950W        W39081  11.632   4.105  14.253 -0.2686 -0.2254  0.2311
23951W        W39082   7.755  13.082  13.949  0.0630 -0.1132  0.3103
23952W        W39083   6.429   5.161  13.352  0.1929 -0.1519  0.3426
23953W        W39084   4.647   3.616   5.190 -0.1047  0.2311 -0.3539
23954W        W39085   8.860  11.322   0.683  0.1929  0.2457 -0.1339
23955W        W39086  13.944   5.188   3.957 -0.1434 -0.0747 -0.0146
23956W        W39087  12.867   2.096  12.352  0.0487 -0.3023 -0.2353
23957W        W39088  12.634  13.899  12.722  0.0782 -0.0077 -0.0770
23958W        W39089   4.028   0.899   1.262 -0.2719  0.1743  0.0969
23959W        W39090  15.796  15.966  10.831  0.2047 -0.0443 -0.0486
23960W        W39091  12.351  17.348   1.246 -0.0400 -0.1936 -0.1318
23961W        W39092  12.084   3.249   3.756 -0.0833 -0.2329 -0.0605
23962W        W39093   7.865   4.778  14.271 -0.4787  0.0616  0.1244
23963W        W39094   7.843   1.833  14.072  0.0418  0.0745  0.0118
23964W        W39095   6.352  15.899  12.776  0.2445  0.1691 -0.3228
23965W        W39096   1.582  12.919   1.041 -0.0731  0.0068  0.1204
23966W        W39097  10.768  17.506   0.381  0.0803 -0.0766 -0.0828
23967W        W39098   8.243  17.794   0.756  0.0243  0.0949  0.1212
23968W        W39099  13.124  14.795  11.987  0.0042 -0.3367  0.2648
23969W        W39100  17.936   5.437   5.620 -0.2166 -0.1181 -0.0759
23970W        W39101  12.782   1.014   4.972  0.1459  0.4212  0.0967
23971W        W39102  18.047   9.656   0.229  0.4129  0.0511  0.2879
23972W        W39103  17.526  16.420   2.632 -0.0983  0.1191  0.0464
23973W        W39104   9.793   1.498   4.988  0.1809 -0.0966 -0.3050
23974W        W39105  11.231   1.911   1.992 -0.0061 -0.1846  0.1669
23975W        W39106  17.295  17.604  11.571 -0.0469  0.2687  0.0976
23976W        W39107  11.844  15.837   4.567  0.1556  0.1980  0.1580
23977W        W39108  11.854   4.606  11.287 -0.3220  0.1188  0.3182
23978W        W39109   6.937  13.681  13.830  0.0335 -0.1266 -0.2980
23979W        W39110   2.325   2.434  13.729 -0.0648 -0.0426 -0.1618
23980W        W39111  15.725   1.558   3.941  0.1432  0.0151 -0.0958
23981W        W39112   9.456   1.195  12.440  0.0765  0.2948  0.0774
23982W        W39113   5.885   2.755   4.810 -0.0685 -0.2079  0.0047
23983W        W39114   3.289  10.797  11.484  0.1605 -0.1717  0.3685
23984W        W39115  13.864  16.380   4.006  0.0192 -0.0420  0.0049
23985W        W39116  17.037  13.043  14.834 -0.0193 -0.1785  0.2252
23986W        W39117  13.665   8.056  11.636 -0.0627 -0.2810 -0.0861
23987W        W39118  13.136  11.643  11.864 -0.0906  0.1475 -0.1836
23988W        W39119   5.620   1.609   4.182  0.2244 -0.0910  0.0924
23989W        W39120  17.862  12.883  15.637 -0.0480  0.0358 -0.0451
23990W        W39121   6.601   1.231  14.390 -0.1026 -0.1169 -0.1239
23991W        W39122  16.002   8.240  15.174 -0.1204 -0.0694 -0.0484
23992W        W39123   0.669  12.026   0.947  0.1392  0.0811 -0.1080
23993W        W39124  13.672  13.617  15.401 -0.1803 -0.2664  0.4717
23994W        W39125   3.312  16.819  15.904 -0.2165 -0.1302 -0.0918
23995W        W39126  12.188  17.970   0.032  0.2233  0.1344  0.0768
23996W        W39127   2.428   1.790   4.335  0.2230  0.2508  0.0169
23997W        W39128  17.745   9.078  12.750 -0.0992 -0.1453 -0.2793
23998W        W39129   8.653  10.963   3.237 -0.0048 -0.3049 -0.1162
23999W        W39130  15.533   7.676  11.137 -0.1204  0.2095 -0.0555
24000W        W39131  17.862   2.855  13.597  0.1067  0.1141 -0.2161
24001W        W39132   2.855  11.747  11.222 -0.2446  0.1031  0.1955
24002W        W39133  16.149   6.313  11.272 -0.1808 -0.0613  0.0320
24003W        W39134   3.536   6.736   0.539 -0.2846 -0.1968 -0.1572
24004W        W39135   6.881   1.660   2.121 -0.2347 -0.1778  0.0413
24005W        W39136  15.120   8.021   2.109  0.0323  0.4652  0.1300
24006W        W39137  10.848  16.304   1.363  0.0639  0.0568  0.2007
24007W        W39138   8.478  10.170   3.497  0.3287 -0.1798 -0.2377
24008W        W39139   3.831   6.945  14.583  0.2835 -0.0301 -0.3767
24009W        W39140   2.369   2.305   3.031  0.0656  0.4630  0.0678
24010W        W39141   2.730  13.787  13.080  0.0015 -0.0002  0.1596
24011W        W39142  16.334  13.463   3.885  0.1867 -0.0776 -0.0539
24012W        W39143   6.276  11.289   4.379 -0.1435  0.1518 -0.1884
24013W        W39144  14.502   4.676   5.737  0.0047  0.0650 -0.0485
24014W        W39145  14.700   7.564   4.839  0.1763 -0.1052 -0.3930
24015W        W39146  11.799   7.618   2.399  0.0050  0.3595  0.0659
24016W        W39147  17.033   8.932  15.207 -0.3315  0.0825  0.0818
24017W        W39148  15.808   9.230  14.932  0.1687 -0.2352 -0.0138
24018W        W39149  12.681   9.870  13.315  0.1672  0.1463 -0.0433
24019W        W39150  11.602  15.530   4.865 -0.0492 -0.0018 -0.0342
24020W        W39151   2.462   6.766  12.334  0.2478  0.0763  0.0253
24021W        W39152   3.026   4.349   0.300  0.0198  0.0608  0.0574
24022W        W39153  16.906  11.730   3.346 -0.0035 -0.0974 -0.0482
24023W        W39154   0.120  16.791  15.940  0.0713  0.0368 -0.0607
24024W        W39155   5.974   5.821  13.902 -0.1217 -0.2346 -0.1354
24025W        W39156  16.837   8.733   4.460 -0.4459  0.0866  0.1970
24026W        W39157  13.115  16.170  11.117 -0.0357  0.1634  0.0140
24027W        W39158   8.717  12.639   5.018 -0.1498  0.1503 -0.0690
24028W        W39159   3.517   9.626   4.045  0.0157 -0.0043 -0.0394
24029W        W39160  14.001  14.931   4.150  0.1681 -0.1659  0.2355
24030W        W39161   7.670  16.904  14.613  0.4529  0.3284  0.0260
24031W        W39162   7.961   9.607  14.469 -0.0351 -0.0343 -0.0357
24032W        W39163  17.641   8.867  13.650  0.3539 -0.2662  0.2818
24033W        W39164  10.597   5.660  12.639  0.2695 -0.1265  0.0456
24034W        W39165   6.979   9.177  15.155  0.1805  0.1387  0.0364
24035W        W39166   8.924   8.737   2.972 -0.0652 -0.1665  0.2384
24036W        W39167   8.585  10.840  13.034 -0.1226  0.0249  0.0920
24037W        W39168  11.987   3.146   0.024  0.0085 -0.0908 -0.2638
24038W        W39169  11.424  13.236   2.044  0.2208  0.3094 -0.1113
24039W        W39170  10.755  10.204  14.962  0.2153 -0.1110  0.4411
24040W        W39171  11.112  15.633   3.622 -0.0207 -0.2176 -0.1308
24041W        W39172  11.452  14.467   2.425  0.1009  0.0049  0.0628
24042W        W39173  15.584  18.080  13.043  0.3374  0.2564  0.2771
24043W        W39174  10.164  10.102   5.457  0.1232 -0.1079 -0.0169
24044W        W39175   8.294   0.351   2.885  0.2458  0.3975  0.3059
24045W        W39176   9.620  16.694   3.161  0.1097  0.0866  0.1656
24046W        W39177   1.525  16.032   4.259  0.1956  0.3093  0.5238
24047W        W39178  16.547   7.605  12.742 -0.1030  0.3310  0.1850
24048W        W39179  15.261   8.229   4.092  0.1518 -0.1131 -0.0847
24049W        W39180   9.152  16.927   4.801 -0.0403  0.0987  0.0249
24050W        W39181   8.545   9.389   4.867  0.1133 -0.3490  0.3246
24051W        W39182   7.274  15.602  14.976  0.0236 -0.1399 -0.0924
24052W        W39183   5.014   2.584  11.474 -0.1605 -0.0961 -0.0832
24053W        W39184  17.189   0.755  14.521 -0.1721  0.1687 -0.1591
24054W        W39185  11.945   1.264  11.254  0.3792 -0.2117  0.0295
24055W        W39186   9.386   5.373   5.302 -0.0424 -0.1284  0.3381
24056W        W39187  14.569  17.251  11.344 -0.1366  0.0279  0.1470
24057W        W39188  10.942  14.356   3.322  0.1274  0.3154 -0.2837
24058W        W39189  10.576   5.175  12.615 -0.1018  0.1391 -0.0591
24059W        W39190  16.449   8.992   1.511 -0.1202  0.0598  0.1856
24060W        W39191   7.962   6.014  15.504  0.1538 -0.1160  0.0156
24061W        W39192   9.117  12.945  12.242 -0.0514 -0.0455 -0.0628
24062W        W39193   5.687   6.540   1.883  0.0042 -0.0875 -0.1627
24063W        W39194  12.371   0.573  15.528  0.1847 -0.0759 -0.1475
24064W        W39195  13.500   4.766   0.713  0.0902 -0.1636 -0.0357
24065W        W39196   8.005  15.114   0.491 -0.0143 -0.2545 -0.3298
24066W        W39197   0.095   1.050   4.778 -0.1299  0.0235  0.5134
24067W        W39198  14.917  13.094   3.715 -0.1799  0.3372  0.0246
24068W        W39199  11.205   0.405  13.554  0.0015  0.0313 -0.3956
24069W        W39200  15.547   9.369   2.235  0.2652  0.1474  0.2501
24070W        W39201   3.577   0.981   1.537 -0.0386  0.3003 -0.3289
24071W        W39202   2.155  17.066   5.614 -0.1759  0.1098  0.0280
24072W        W39203   3.621   7.657   2.131  0.1234  0.1580  0.0475
24073W        W39204  14.937  14.664   4.906  0.0315 -0.0053  0.2154
24074W        W39205   6.787  15.086   4.684 -0.1334 -0.0991 -0.2058
24075W        W39206   3.327  17.465   0.257 -0.2620  0.0558 -0.0934
24076W        W39207  12.802  16.677  10.868  0.1540 -0.1382  0.1110
24077W        W39208  16.994  11.007   0.793  0.1698  0.0750 -0.0429
24078W        W39209   3.266  10.333  11.240  0.2063  0.0325  0.0678
24079W        W39210   0.115   0.217  12.626  0.0433 -0.1575  0.3308
24080W        W39211  13.097   0.142   2.047 -0.1894 -0.0173 -0.0767
24081W        W39212   5.556  12.371  10.814 -0.0820  0.1808  0.0202
24082W        W39213   5.133   3.371   5.198 -0.0454  0.0979  0.0682
24083W        W39214   4.922  10.306  11.447  0.0351 -0.2106 -0.0411
24084W        W39215   2.343  11.570  11.056  0.0917  0.1823 -0.3003
24085W        W39216  13.130  12.910  13.362 -0.1800 -0.0277  0.0851
24086W        W39217  12.007   5.298   2.931 -0.0467  0.4391  0.0655
24087W        W39218   7.118   2.549   0.874 -0.2202 -0.0148  0.0500
24088W        W39219  17.121   7.228   0.334 -0.0490 -0.0082  0.0187
24089W        W39220  15.371  18.082  10.189 -0.0573  0.0613 -0.2835
24090W        W39221  11.122   4.076   3.142 -0.2070  0.1733  0.0178
24091W        W39222   3.202   2.283  12.774 -0.1495 -0.2830  0.1870
24092W        W39223   9.185   4.202   4.337 -0.1414 -0.1033  0.3890
24093W        W39224  11.911  12.277  14.596 -0.1295 -0.0103  0.0524
24094W        W39225   3.032   6.833   3.499  0.1300 -0.1585  0.2575
24095W        W39226   7.640  16.283  12.941 -0.0991  0.2633 -0.0395
24096W        W39227   4.762   0.182   5.476 -0.0289  0.2232  0.3439
24097W        W39228  10.707  15.348   3.469 -0.1436  0.2389  0.3103
24098W        W39229  11.892   0.312  12.823  0.0285  0.1804 -0.0475
24099W        W39230  10.667   3.944  14.751 -0.0988 -0.1945  0.5409
24100W        W39231   2.963  10.552   9.791 -0.0743 -0.1253  0.1828
24101W        W39232  16.414  13.716   5.347 -0.1533 -0.1332  0.3109
24102W        W39233   9.850  10.574  11.173  0.1400 -0.0024 -0.0294
24103W        W39234   2.037  11.260  13.524  0.1894  0.0619  0.1673
24104W        W39235  10.107   8.496   4.981 -0.2305 -0.0245  0.0176
24105W        W39236   5.354   8.422  16.081  0.1794  0.2129 -0.5413
24106W        W39237  10.358  14.812  14.073  0.0875 -0.0997  0.2415
24107W        W39238   3.748  10.685  11.685 -0.2291  0.0148  0.3408
24108W        W39239   8.793  15.118   3.973  0.0317  0.3129  0.1783
24109W        W39240  16.115  16.475  14.147  0.2519 -0.0127 -0.0170
24110W        W39241  17.866  13.531   4.335  0.0427 -0.4018 -0.0229
24111W        W39242   7.266   7.090   4.080 -0.1708  0.2609 -0.0257
24112W        W39243   1.304   6.782   1.607  0.0414 -0.0689 -0.0201
24113W        W39244   8.236   1.889   5.848 -0.4568 -0.0825 -0.0545
24114W        W39245   6.123   1.524   1.859  0.2321 -0.0667 -0.0248
24115W        W39246  16.189   3.199  14.379 -0.4617  0.0101  0.0452
24116W        W39247   0.956  13.616  15.419 -0.0417 -0.2489 -0.1146
24117W        W39248  11.051  14.420  14.830  0.0921 -0.1875 -0.0245
24118W        W39249   7.177   2.375   2.714  0.0556 -0.0650  0.0864
24119W        W39250  15.065  12.374  10.170  0.2265 -0.1330  0.0036
24120W        W39251  14.683  16.447   3.015 -0.1286 -0.1526 -0.3314
24121W        W39252   2.929  10.522   4.063 -0.3230  0.1460  0.1504
24122W        W39253  17.214  14.829  13.987 -0.1947 -0.2094 -0.2574
24123W        W39254  11.422   4.813  11.379  0.1831 -0.2817  0.1979
24124W        W39255   2.065  14.008   4.779 -0.0054 -0.1547 -0.4663
24125W        W39256   6.701   6.916   2.412 -0.3599 -0.1868 -0.1432
24126W        W39257   8.415   9.524   2.397 -0.0077  0.2416 -0.1189
24127W        W39258   9.135   0.798  11.187  0.1826  0.1051  0.2193
24128W        W39259  14.828   1.258   2.871  0.0302  0.0010 -0.1147
24129W        W39260   9.811  13.847   3.904 -0.0553  0.1141  0.0763
24130W        W39261  10.190  17.681   1.282 -0.0021 -0.2456  0.2803
24131W        W39262   5.139   5.982  13.798 -0.1441 -0.3030 -0.1523
24132W        W39263   9.123  10.672   2.539  0.0319 -0.0348 -0.2332
24133W        W39264  15.485  12.170  12.847  0.2847 -0.0798  0.3549
24134W        W39265   8.517   6.559  15.103  0.1940 -0.4543  0.2250
24135W        W39266   2.911   3.147  14.407 -0.1005 -0.1137 -0.2492
24136W        W39267   8.633   4.574  12.722 -0.1539 -0.1376 -0.0381
24137W        W39268  18.042   4.883  12.655 -0.2651  0.0721  0.0576
24138W        W39269   5.402   0.889   0.765 -0.0157  0.1338  0.1552
24139W        W39270   0.821   0.136   2.997 -0.0992  0.2209 -0.0386
24140W        W39271   1.396  10.969  14.676  0.0205 -0.0906 -0.1104
24141W        W39272  15.262   6.177   3.105  0.0149 -0.1046  0.0300
24142W        W39273   7.619  14.579  14.089 -0.1501  0.0030 -0.3681
24143W        W39274  15.227  18.029   2.656  0.1961 -0.1683  0.1147
24144W        W39275   9.462  14.864   4.910  0.0313 -0.2240  0.1540
24145W        W39276   8.586   6.358  11.371  0.1007 -0.1185 -0.2525
24146W        W39277  16.345  16.146   5.724  0.1023  0.1627  0.1302
24147W        W39278  12.646   0.217   2.134  0.0015  0.1154 -0.1046
24148W        W39279  11.599   7.539   3.476  0.1640 -0.1995  0.1333
24149W        W39280   8.566   2.671  13.300 -0.0180  0.1464 -0.1861
24150W        W39281  17.369  14.232   4.971 -0.0911  0.2769  0.0954
24151W        W39282   8.012  10.521  12.985 -0.0995  0.1000  0.0314
24152W        W39283   5.616   0.989   2.860  0.0618 -0.0525  0.0395
24153W        W39284  16.569   8.863  13.001 -0.3062  0.1070  0.2997
24154W        W39285  11.042  13.305   0.056  0.0411 -0.0882  0.1232
24155W        W39286   8.249   3.194   3.491 -0.2509  0.0122 -0.0381
24156W        W39287  13.754  11.361  14.228  0.0731  0.0376  0.0726
24157W        W39288   5.022  13.298   5.161 -0.2246  0.0578  0.0384
24158W        W39289   4.313  13.213  15.913  0.2180  0.0840 -0.0880
24159W        W39290  14.539   1.524  13.157  0.1549  0.1952  0.1079
24160W        W39291  16.462   0.628  15.744  0.0224 -0.1434 -0.5658
24161W        W39292  14.982   6.032   2.196  0.1496  0.0956 -0.2913
24162W        W39293   9.764   2.267  12.680 -0.2299  0.1993  0.2077
24163W        W39294   6.108   2.227  14.429  0.0220  0.1684 -0.0880
24164W        W39295   8.650  12.224  15.233 -0.1863  0.0846 -0.1906
24165W        W39296   0.368   8.113   5.206  0.1289 -0.2320  0.2507
24166W        W39297   8.619  15.886   0.661  0.0310 -0.3375 -0.1440
24167W        W39298  14.411   2.043  13.634  0.0528  0.2199  0.1733
24168W        W39299  15.782  15.122   0.259 -0.0873  0.0064  0.1127
24169W        W39300  11.228  17.521   1.042 -0.1732 -0.1447  0.2574
24170W        W39301   8.677  12.306   4.095  0.0341 -0.0943  0.2941
24171W        W39302   8.838   0.504  12.636 -0.1142  0.3171  0.1688
24172W        W39303   8.010  15.112  11.030  0.2492 -0.0202  0.2736
24173W        W39304   0.060   5.760  11.540  0.2635  0.1107  0.2636
24174W        W39305  17.444  17.234   1.636  0.3418 -0.1272 -0.0273
24175W        W39306   2.639  11.776   0.042 -0.0832  0.1641 -0.0494
24176W        W39307   6.990  14.352  12.082  0.0941 -0.0893  0.1169
24177W        W39308  17.732   1.492  11.334 -0.3361 -0.4423  0.1201
24178W        W39309  11.607   8.635  12.515 -0.0960 -0.0379  0.0257
24179W        W39310  13.716  15.784   4.650  0.0520 -0.2718  0.1524
24180W        W39311  12.396  10.134  15.854  0.0621 -0.2887  0.1097
24181W        W39312   4.438  13.596  11.434  0.0117 -0.2317  0.2369
24182W        W39313   7.539   7.443  12.563  0.2573 -0.2655 -0.2386
24183W        W39314   0.891   3.976  15.248 -0.4314  0.1152  0.0628
24184W        W39315   0.938   9.073  14.161  0.2013  0.3285  0.0860
24185W        W39316   2.481   9.572  10.726 -0.0479  0.0842 -0.1113
24186W        W39317  12.534  15.961  14.762 -0.1678 -0.2242  0.2314
24187W        W39318   1.082   3.240   5.114 -0.2990  0.2245  0.0031
24188W        W39319  17.248   2.189  14.235 -0.3922  0.1162  0.1577
24189W        W39320  13.995   2.990   0.898 -0.0821 -0.4550  0.1361
24190W        W39321  16.430  17.577  13.006 -0.0178 -0.0646  0.0199
24191W        W39322   2.973   4.654  12.749  0.0883 -0.1526  0.0638
24192W        W39323   8.348  11.220   0.839 -0.1389 -0.1551  0.0561
24193W        W39324  16.329  12.111   1.724  0.1149 -0.1084  0.0656
24194W        W39325  17.260  12.515   3.255 -0.0164 -0.1838  0.1662
24195W        W39326   2.544  14.659   3.359 -0.1406  0.1607 -0.0464
24196W        W39327   8.944   4.348  14.198 -0.2374  0.0673  0.0602
24197W        W39328   0.449   0.226   4.293  0.0203 -0.1246  0.1324
24198W        W39329  11.249   1.686   1.537 -0.2213  0.0263  0.0927
24199W        W39330   1.685  12.861  14.930 -0.1466 -0.2011  0.0289
24200W        W39331  17.239   0.396   3.888  0.0818  0.0043 -0.0197
24201W        W39332  14.229   7.058   2.578 -0.0334 -0.1397  0.1454
24202W        W39333  12.486   4.737  15.113 -0.0129 -0.2289 -0.1393
24203W        W39334   2.303  10.197   6.223  0.0912 -0.1899  0.1188
24204W        W39335  15.442  12.513   5.296  0.0462  0.0526 -0.0346
24205W        W39336   1.731  10.466  14.666  0.1751 -0.0566  0.0256
24206W        W39337   9.664  10.948  15.679  0.1886 -0.0717 -0.1321
24207W        W39338   5.671   4.786   1.022  0.0739 -0.2063  0.2058
24208W        W39339   4.956  13.743  11.622  0.1309  0.4414  0.0478
24209W        W39340   3.377   3.471  15.951 -0.0502 -0.1495  0.0875
24210W        W39341   4.175   6.916   3.207  0.1524  0.1213 -0.1678
24211W        W39342  14.961   7.537  12.904 -0.1818 -0.1167  0.2615
24212W        W39343   9.642  11.336   4.089 -0.2318 -0.0236  0.3194
24213W        W39344   3.911   7.718  11.202  0.1829 -0.1096  0.1687
24214W        W39345  11.169  14.594  15.769 -0.1681  0.0750 -0.0728
24215W        W39346   0.936  13.797   0.144  0.2515 -0.0665 -0.1267
24216W        W39347   8.151   5.342  12.182 -0.1571 -0.1531 -0.0711
24217W        W39348   7.920   3.352   0.001  0.2048 -0.0635 -0.2278
24218W        W39349  14.635  14.985  14.865 -0.0312  0.0466 -0.0571
24219W        W39350   8.710  14.724   0.040  0.3221  0.1771 -0.2799
24220W        W39351  11.586   0.798   4.435  0.3278  0.1508  0.1641
24221W        W39352  16.245  17.134  11.005  0.0978  0.2149  0.1791
24222W        W39353   5.583   9.326  12.724  0.0349  0.1611  0.2041
24223W        W39354  13.872   9.945   2.599  0.0348  0.0948 -0.1737
24224W        W39355   0.826   9.816   0.211  0.0552  0.1345 -0.2511
24225W        W39356  14.802   6.571  10.133  0.2870  0.0449 -0.0554
24226W        W39357   2.668  10.819  13.955  0.3404  0.0696  0.3254
24227W        W39358  12.602  16.836   2.880 -0.0047  0.0825  0.0798
24228W        W39359   4.753   2.467  15.626  0.0616 -0.1458 -0.0553
24229W        W39360   2.626   4.210  10.860 -0.0983  0.1294  0.1387
24230W        W39361  11.910  10.585  15.720  0.0172 -0.3089 -0.0649
24231W        W39362  12.363   2.373   4.404 -0.0740  0.1428 -0.1827
24232W        W39363   7.850  14.174   3.610 -0.1822 -0.1261 -0.1723
24233W        W39364  11.545   2.868   4.931 -0.1823 -0.1845  0.1060
24234W        W39365  10.865   0.205   2.614  0.0780  0.1504 -0.2590
24235W        W39366   8.084  17.391   3.017 -0.1562  0.1332  0.0763
24236W        W39367  10.851   6.805   2.702  0.3426 -0.1198 -0.0201
24237W        W39368   5.745   6.410   3.731 -0.1791  0.0371  0.0928
24238W        W39369  13.102   0.313  11.621  0.0332  0.0536 -0.2013
24239W        W39370  10.103   9.226   4.325  0.0613 -0.0059 -0.0417
24240W        W39371   9.801  17.200   1.923 -0.0695  0.2898 -0.3275
24241W        W39372  13.247  10.474   4.276  0.2645 -0.0333 -0.0172
24242W        W39373  12.187   2.523   3.288 -0.3358  0.2678  0.0685
24243W        W39374   7.245   4.745   1.528 -0.1681 -0.4367 -0.1550
24244W        W39375  12.211   7.409  11.676  0.3831 -0.0762 -0.0946
24245W        W39376  11.943   5.039   2.017 -0.2691 -0.1874 -0.0726
24246W        W39377   1.476   1.664  13.948  0.1734  0.1543 -0.2382
24247W        W39378   2.101  12.332  15.881  0.1977 -0.3286 -0.4159
24248W        W39379   0.176  12.733   0.907  0.3212  0.0855  0.1887
24249W        W39380  15.264   4.003   0.960 -0.3413  0.0499  0.2473
24250W        W39381   3.266   3.887  11.527 -0.0145  0.0663  0.1070
24251W        W39382  17.205   0.013  13.282 -0.0176 -0.0940  0.0780
24252W        W39383   0.136   5.742  11.035 -0.3046  0.1194  0.0791
24253W        W39384  12.312  10.450   3.017 -0.0542 -0.1180  0.0292
24254W        W39385   5.433  14.601  14.298  0.0424  0.1632 -0.0717
24255W        W39386   3.267   2.084   1.859  0.1523 -0.1611  0.0237
24256W        W39387   0.577  17.922   3.415 -0.3044 -0.1167  0.0866
24257W        W39388   3.136  13.384  14.329 -0.1469  0.0684  0.2588
24258W        W39389  12.007   0.155  12.373 -0.2331 -0.0102  0.0413
24259W        W39390   5.328   8.758  12.637 -0.0828  0.0344 -0.1082
24260W        W39391   2.042  13.005  15.729  0.1019  0.5404 -0.0071
24261W        W39392   6.342  17.103   2.912 -0.2397  0.2047  0.1396
24262W        W39393   3.525  17.130   1.524 -0.2483  0.2391  0.0457
24263W        W39394   3.883   9.086   2.620 -0.1365 -0.0351  0.0355
24264W        W39395  13.884   5.882   4.716  0.0043 -0.2393 -0.3667
24265W        W39396   4.731   1.312  15.263 -0.2047  0.1765 -0.0303
24266W        W39397   0.189   2.437  12.309 -0.3330  0.0689 -0.3141
24267W        W39398  13.795   9.928  13.658  0.0554  0.3081 -0.2734
24268W        W39399  17.203   1.951  14.651 -0.0688 -0.0926 -0.0473
24269W        W39400  14.191  16.970  12.890  0.0500  0.0549 -0.0823
24270W        W39401  14.706   0.719  10.489 -0.0429  0.1817  0.0873
24271W        W39402  15.581   5.922  11.818  0.1595  0.0442  0.1509
24272W        W39403  13.437  10.781   0.204  0.1166  0.0633 -0.4743
24273W        W39404  14.737  13.890  10.694  0.1383 -0.2071  0.0367
24274W        W39405   6.320  10.259  11.060  0.0116  0.0730 -0.0241
24275W        W39406   3.006  12.643  14.766  0.2830  0.1527  0.3639
24276W        W39407  14.266   4.450  15.293 -0.0787  0.1015  0.2008
24277W        W39408  11.030   1.578  10.844  0.1234 -0.1284  0.3389
24278W        W39409   9.559  16.213   2.172  0.1828  0.1611  0.3236
24279W        W39410   8.129   4.929  15.561  0.0356  0.2879 -0.1063
24280W        W39411   9.020  12.694  11.554 -0.0245 -0.1525  0.1738
24281W        W39412   5.278   8.922   1.698 -0.0633 -0.3092 -0.3781
24282W        W39413  10.997   7.924  10.184  0.2821 -0.2852  0.1146
24283W        W39414   1.508   4.256   2.489 -0.0271  0.1503 -0.4545
24284W        W39415   1.259  10.947  11.544  0.1964 -0.0403  0.0222
24285W        W39416  12.692  12.083   0.834  0.0659 -0.0660 -0.2243
24286W        W39417   7.030  18.021  11.960  0.0567 -0.1078  0.0918
24287W        W39418  14.970  15.569   3.151  0.1358 -0.1614 -0.0918
24288W        W39419  14.172   9.425   4.946  0.3185 -0.3824  0.0871
24289W        W39420  14.417  15.232   3.132 -0.1615 -0.1936  0.1017
24290W        W39421   8.328   3.832   1.861  0.2321 -0.0250  0.1190
24291W        W39422   9.456  10.542   4.713 -0.3825 -0.1647  0.1175
24292W        W39423   1.852   0.417   1.805  0.1278 -0.2090 -0.3543
24293W        W39424   0.368  14.410  14.533 -0.0432 -0.1889 -0.4141
24294W        W39425   1.810  17.541  10.892  0.1089 -0.3452 -0.1007
24295W        W39426   4.544   7.713   3.017 -0.2014  0.1627 -0.0416
24296W        W39427  10.543  16.180   4.445  0.1798  0.1176 -0.3371
24297W        W39428  10.781   1.299   5.276 -0.1035  0.1112 -0.3084
24298W        W39429  14.697  16.519   6.060 -0.0633 -0.0577 -0.0094
24299W        W39430  12.387  17.868  15.388 -0.4009  0.0785  0.0664
24300W        W39431  16.433  12.322  15.033 -0.2696 -0.2373  0.3600
24301W        W39432   0.725   4.273  12.693  0.2345  0.1635 -0.0866
24302W        W39433   7.134   6.389  15.517 -0.5324 -0.4480  0.0326
24303W        W39434   0.525   4.263   2.637 -0.1201 -0.0076 -0.0070
24304W        W39435  15.093   9.317  14.456  0.2600 -0.0795 -0.0484
24305W        W39436   3.132   7.009  12.291  0.0311  0.3456 -0.0609
24306W        W39437  11.462  16.872  12.940  0.1838  0.1982 -0.1193
24307W        W39438   6.147   6.696   3.822  0.1394 -0.1799  0.0695
24308W        W39439  16.988  16.437   3.799  0.0242 -0.1741 -0.2433
24309W        W39440   0.299  12.468   1.821  0.0045 -0.0617  0.2231
24310W        W39441   4.699  13.033   4.434 -0.5183 -0.0989  0.0953
24311W        W39442  12.174  14.615   2.162 -0.0452 -0.1058 -0.3876
24312W        W39443  13.315  14.743   1.834  0.0190  0.1282 -0.1629
24313W        W39444   4.190   5.306   1.428 -0.1548 -0.3114  0.2308
24314W        W39445  10.075   4.745  15.463  0.0534  0.2685 -0.2404
24315W        W39446   3.395  11.160  11.861 -0.0020 -0.3554  0.2160
24316W        W39447   8.542  15.623  13.865 -0.1525 -0.2422 -0.0240
24317W        W39448  15.041  12.481   4.995 -0.1376  0.0505 -0.1168
24318W        W39449  16.195   0.935  11.828 -0.1381 -0.0152  0.2795
24319W        W39450   8.574   4.325  10.331 -0.0658 -0.2786 -0.1603
24320W        W39451   1.715   9.666  15.512  0.0934 -0.0890 -0.0425
24321W        W39452   3.033   3.094  12.809 -0.2006  0.0622 -0.1629
24322W        W39453  13.536  16.086  16.097 -0.0381  0.0195  0.1265
24323W        W39454  10.382  13.522  16.144 -0.3006  0.0333 -0.2891
24324W        W39455   1.540   7.264   1.757  0.0909  0.0480  0.1679
24325W        W39456   1.341   9.539  12.508 -0.3662 -0.1312  0.1788
24326W        W39457  17.037  10.732  14.744 -0.1288 -0.1590 -0.0738
24327W        W39458  12.254   9.293   0.630  0.1069  0.0743 -0.2840
24328W        W39459   9.174  18.090   1.811 -0.0438 -0.0738  0.0619
24329W        W39460  17.421   1.057   1.776  0.1010  0.2854 -0.3541
24330W        W39461  14.580  17.983   1.019  0.1332  0.0063 -0.2630
24331W        W39462   0.068  15.262   4.909 -0.0281  0.0725  0.1570
24332W        W39463  17.651  13.039  13.257  0.3962 -0.3111 -0.1581
24333W        W39464   3.046   2.554   1.734 -0.0142  0.1471  0.0549
24334W        W39465   8.686  14.014  11.557 -0.0301  0.0646  0.3464
24335W        W39466  13.852   3.034   2.433  0.2306 -0.1907  0.2507
24336W        W39467  15.826   6.345  15.433 -0.2648 -0.1253  0.0857
24337W        W39468  15.941   8.621  15.472 -0.3809 -0.1318 -0.3065
24338W        W39469  10.728  12.437  14.454 -0.1144 -0.0855  0.2278
24339W        W39470   5.669   9.071  14.283 -0.2397 -0.0062 -0.2916
24340W        W39471  13.617   2.338   4.690 -0.0505 -0.0838  0.1296
24341W        W39472   3.737  16.494   0.429 -0.0480 -0.3518 -0.0895
24342W        W39473  13.938  11.986   5.399 -0.2256 -0.2111  0.3456
24343W        W39474   8.136   3.624   2.261 -0.0414 -0.0202 -0.0184
24344W        W39475  10.333   9.066   0.225 -0.0566  0.0533  0.0204
24345W        W39476  15.385   2.045  12.955  0.0684  0.4656  0.1016
24346W        W39477  16.013  17.892  15.927 -0.0563  0.1727 -0.0344
24347W        W39478  14.992   1.660  12.868  0.0363 -0.0740 -0.1691
24348W        W39479   2.160   7.328   2.457  0.0090  0.7535 -0.0894
24349W        W39480  12.795   8.885  12.985  0.0864  0.0921  0.0784
24350W        W39481   5.471  18.041   0.562 -0.0746  0.1335 -0.0162
24351W        W39482   6.321  15.222  12.681 -0.0206  0.2790 -0.0085
24352W        W39483   1.404   1.753   3.999 -0.2136 -0.1157  0.2892
24353W        W39484  10.627  12.105  13.485  0.3517 -0.1774 -0.0571
24354W        W39485  16.032  11.529  10.474  0.1831 -0.1021  0.3904
24355W        W39486  11.114  12.566  12.242 -0.0570  0.1210  0.2195
24356W        W39487   8.695  15.954  12.169 -0.1142 -0.0961  0.1368
24357W        W39488   4.325   4.987  15.554 -0.0268  0.1200  0.2298
24358W        W39489   9.704   6.955   3.316  0.1042  0.2301 -0.2022
24359W        W39490   5.187   3.824   3.207  0.0784  0.1429 -0.1377
24360W        W39491   8.688   7.389  11.344  0.1386 -0.1744  0.0914
24361W        W39492  11.343  16.639  10.993  0.0556  0.0257  0.0453
24362W        W39493   6.905  11.916  16.097  0.1796 -0.4258  0.1857
24363W        W39494  11.131   2.232   1.124 -0.0635  0.2469 -0.2551
24364W        W39495  17.700   6.367  11.405  0.1187 -0.1525  0.0447
24365W        W39496   1.905  13.542   4.698  0.0846  0.1104 -0.0399
24366W        W39497   0.914   7.270   3.076  0.1385  0.0999  0.0191
24367W        W39498  13.339  13.226   5.017 -0.0434 -0.0117  0.1455
24368W        W39499  12.121   6.661   1.356 -0.0510  0.0616 -0.3913
24369W        W39500   4.693   9.815   3.384  0.2032  0.0302 -0.1143
24370W        W39501   3.712   4.608   2.091 -0.0191 -0.0098  0.1220
24371W        W39502  16.626   6.498  16.085  0.3026 -0.2234 -0.0807
24372W        W39503   3.393   5.375   2.653  0.1527 -0.0080 -0.0423
24373W        W39504   8.144   9.315   2.021 -0.2961  0.1567 -0.1877
24374W        W39505  15.790  16.381  15.033  0.0790  0.0757 -0.1753
24375W        W39506   0.538  17.174   4.638 -0.0128  0.3692  0.1706
24376W        W39507   4.903   0.972   0.859  0.1431  0.1759 -0.1369
24377W        W39508   5.879   9.754   0.066  0.1255 -0.0630 -0.2102
24378W        W39509  17.213  11.417   4.578 -0.0838 -0.1042 -0.0369
24379W        W39510   0.455   3.474  13.020 -0.0423 -0.0501 -0.0724
24380W        W39511  17.160  18.032  11.255 -0.0548  0.2003  0.0580
24381W        W39512  14.621  13.615   4.109  0.1042 -0.1375 -0.1599
24382W        W39513   5.831  14.007   0.594 -0.0670 -0.1390  0.0969
24383W        W39514   6.268   6.631  14.455 -0.1795 -0.1884  0.3896
24384W        W39515  10.353   3.889  15.577  0.1854 -0.3644  0.0912
24385W        W39516  17.600   0.163  16.184  0.0254  0.0179  0.1482
24386W        W39517  12.462  16.359  13.897  0.2562 -0.0666  0.2523
24387W        W39518  12.124  17.896   1.640  0.1925  0.2666 -0.1163
24388W        W39519  14.910  16.826   3.913 -0.1519  0.3896 -0.1944
24389W        W39520   6.510   0.063   1.033 -0.3553 -0.0846  0.0310
24390W        W39521   6.443   4.763  12.388 -0.0577 -0.2509  0.1662
24391W        W39522  16.745  16.400   1.457  0.1557 -0.1027 -0.0463
24392W        W39523   2.589   4.959   0.895 -0.0429 -0.1662 -0.1992
24393W        W39524   6.446   1.766  13.488  0.1077  0.0560 -0.0574
24394W        W39525  13.466  14.795   1.009 -0.1570 -0.2970  0.0951
24395W        W39526   0.126   4.366   1.965  0.4042  0.0449  0.4037
24396W        W39527  16.132   2.305  13.852 -0.1971 -0.0649 -0.0887
24397W        W39528  11.345  17.159  14.170  0.1799 -0.0796 -0.0949
24398W        W39529  14.577   1.673  10.591  0.1911  0.1420  0.1283
24399W        W39530   1.344  14.149   2.111  0.2704 -0.0063  0.1942
24400W        W39531  13.439  16.927  13.203  0.0515  0.1927 -0.0359
24401W        W39532  17.736   6.602   4.244  0.0218 -0.1950  0.0922
24402W        W39533   1.987   1.196   4.596  0.1003  0.1173 -0.2054
24403W        W39534   7.337  18.064  11.524 -0.0359 -0.5301 -0.0331
24404W        W39535   4.426   4.915   1.264  0.4588  0.1171 -0.1120
24405W        W39536   2.059   3.282  14.208 -0.1298 -0.1062  0.0705
24406W        W39537  10.893   1.586  12.262  0.0626 -0.2511  0.1274
24407W        W39538   3.858  13.749  11.479  0.0828 -0.0244 -0.3647
24408W        W39539  12.663  11.822  15.540  0.0222 -0.3087 -0.0072
24409W        W39540  18.031  17.366  13.939 -0.0373  0.0398 -0.0826
24410W        W39541   8.783   0.740   6.179  0.2153 -0.2499  0.1876
24411W        W39542   6.177  16.664  14.412  0.1601 -0.0923 -0.2846
24412W        W39543  16.344  17.306  14.283 -0.0607 -0.0062 -0.4197
24413W        W39544  16.227  17.308  13.338 -0.1044  0.0563  0.0385
24414W        W39545  11.336   1.910  16.067 -0.0797 -0.2476  0.1177
24415W        W39546   6.176  17.020  15.658 -0.0965 -0.0022 -0.0148
24416W        W39547  17.248   4.081   1.554  0.0902  0.0044  0.2261
24417W        W39548   6.526   0.689  10.900  0.2956 -0.0201 -0.2591
24418W        W39549  13.996   8.397   0.862  0.0239 -0.1853  0.0608
24419W        W39550  16.468  14.933   2.899  0.0264  0.2507 -0.0921
24420W        W39551  17.786   0.505   3.817  0.2120 -0.0318 -0.1996
24421W        W39552  18.038   6.254  15.691  0.0776 -0.3133 -0.3376
24422W        W39553   9.689  12.544   2.083 -0.3238 -0.1282  0.0351
24423W        W39554   6.725   1.543  14.824 -0.1858  0.1229  0.1082
24424W        W39555   4.089   7.877  14.923  0.1484 -0.0509  0.0540
24425W        W39556  16.605  11.698   1.785  0.2221 -0.0206 -0.1891
24426W        W39557   0.817   7.096  13.440  0.0621 -0.3412  0.1790
24427W        W39558   5.582  15.964   4.502 -0.0774  0.1546 -0.0375
24428W        W39559  13.174   4.383  11.316 -0.0953  0.0238  0.1095
24429W        W39560  16.580  16.206   3.574 -0.1901  0.0165  0.0012
24430W        W39561   6.677  14.435  12.485 -0.1971 -0.0044  0.4218
24431W        W39562   0.944   7.534  13.259 -0.0179  0.2232  0.1827
24432W        W39563  17.567  14.456  15.710 -0.2956 -0.1586  0.3407
24433W        W39564  10.571  11.444  15.961  0.1441 -0.0843  0.0927
24434W        W39565  13.638   9.505  15.485 -0.0248  0.0201 -0.0758
24435W        W39566  13.368  13.196   3.642 -0.0865  0.0859 -0.3914
24436W        W39567   0.116  16.200  12.017  0.2044 -0.1459 -0.1693
24437W        W39568   6.254  14.944  13.195 -0.1058  0.0392  0.0427
24438W        W39569   3.585  10.999   5.766 -0.0357 -0.0694  0.0901
24439W        W39570   2.820  10.464  11.544 -0.1806  0.1877  0.0749
24440W        W39571   6.417  16.326  14.801 -0.1200  0.0107  0.2127
24441W        W39572   8.890  17.130  11.627 -0.1795  0.1640  0.0730
24442W        W39573   1.801   4.458   4.410  0.0646 -0.0984 -0.3148
24443W        W39574  11.110   5.054  13.196  0.2740  0.0037  0.2734
24444W        W39575  16.645  14.111  11.566 -0.0829  0.0633  0.0611
24445W        W39576  16.764  17.923   1.592 -0.0541  0.3116 -0.0301
24446W        W39577  13.214   2.818  11.260  0.0171  0.1428 -0.0367
24447W        W39578  15.281   6.462   3.744 -0.1415  0.0060 -0.0222
24448W        W39579  16.917   7.492   5.467  0.0512  0.0127  0.4247
24449W        W39580  17.158   1.925   2.218 -0.3194 -0.0539  0.3421
24450W        W39581  12.372  10.256  14.554  0.3856  0.2889 -0.0890
24451W        W39582   6.466  13.938   1.165  0.0669  0.1525 -0.1761
24452W        W39583   2.368  11.983  12.116  0.0221 -0.2833 -0.0588
24453W        W39584  17.098   6.243   2.924 -0.1154 -0.1555  0.0650
24454W        W39585   7.511   1.584  14.394 -0.1843  0.1819 -0.0606
24455W        W39586   2.044  10.527   0.157  0.0983  0.1241  0.0394
24456W        W39587  11.118   2.752   0.042  0.0589 -0.1310 -0.1610
24457W        W39588  11.864   7.912   4.434 -0.1682  0.1249  0.2742
24458W        W39589   4.435  12.870   2.279 -0.0504 -0.1529  0.0192
24459W        W39590   6.110  16.091   2.901  0.0631  0.0890  0.1892
24460W        W39591   2.646  16.308   1.004 -0.2010 -0.1538 -0.2588
24461W        W39592   2.162  10.966   0.955 -0.0109  0.4378  0.0823
24462W        W39593   0.836  15.655   0.849 -0.1978 -0.2356  0.1489
24463W        W39594   3.916  16.939   4.002  0.0298  0.0638  0.1822
24464W        W39595   2.823  12.501   1.497  0.1512  0.0740  0.4300
24465W        W39596   7.838   0.949   1.022  0.1978 -0.1844  0.0633
24466W        W39597  13.757   8.295   0.321  0.1697 -0.3573 -0.0804
24467W        W39598   4.040  11.864   3.402  0.0734 -0.0394  0.3149
24468W        W39599  12.432   2.650  14.118 -0.1721  0.0872  0.1328
24469W        W39600   8.055  14.167  15.062  0.0132 -0.1457  0.0094
24470W        W39601   9.078  14.959  12.571 -0.0268 -0.2080 -0.1891
24471W        W39602   9.008   5.975   4.389 -0.1527  0.3201 -0.0970
24472W        W39603   7.086   5.172  12.035 -0.1824 -0.0411  0.1540
24473W        W39604  13.180  14.886   4.588 -0.2286  0.1063 -0.2274
24474W        W39605  17.784   7.085   3.442 -0.0730 -0.1561 -0.1859
24475W        W39606   4.450   1.150  14.491  0.0966  0.0442 -0.0536
24476W        W39607  12.254  15.525  11.520  0.0949 -0.0638  0.1680
24477W        W39608   8.328  14.032  14.211 -0.0772  0.2631  0.1440
24478W        W39609   0.233   9.364  14.671  0.0157 -0.1803 -0.0042
24479W        W39610   5.956  10.049   4.563 -0.0975  0.0796  0.2304
24480W        W39611  15.875   0.122   9.935 -0.0260  0.2036 -0.1639
24481W        W39612  12.963  16.677   0.762  0.1093  0.1661 -0.1487
24482W        W39613   7.005   8.642   4.385  0.0351  0.2623 -0.3346
24483W        W39614  16.165  13.528  10.826  0.4004  0.0676 -0.0176
24484W        W39615   4.030   5.001   3.509 -0.2678 -0.0699 -0.1590
24485W        W39616  17.501   4.046   4.422 -0.0872  0.3777  0.3273
24486W        W39617   6.948   2.952  13.092  0.0309 -0.3927 -0.1865
24487W        W39618   1.702   7.094   3.443 -0.0044 -0.1053 -0.0990
24488W        W39619  16.749   9.135   1.128 -0.1044  0.1600  0.0109
24489W        W39620   9.804  11.414   3.226  0.2785 -0.0965  0.1421
24490W        W39621   2.797   0.581  15.131  0.1514 -0.1274 -0.0121
24491W        W39622  16.647   7.197  12.220 -0.0917 -0.0896 -0.0881
24492W        W39623  11.458  11.746   1.733  0.1353 -0.0229 -0.2524
24493W        W39624   7.229  11.907  14.869 -0.1832 -0.4768 -0.0228
24494W        W39625   5.416   9.897  12.653 -0.2447  0.0035  0.0474
24495W        W39626  10.089   5.988   2.880  0.0831 -0.1781  0.2715
24496W        W39627   8.763  15.636  12.580 -0.1311 -0.1142  0.0821
24497W        W39628   7.843  11.373  15.404 -0.1588  0.2798 -0.0915
24498W        W39629   9.137   8.755   5.808  0.1591 -0.5677  0.0052
24499W        W39630   8.659  12.832   2.309  0.1522 -0.1843  0.1100
24500W        W39631   2.270  12.021   0.992 -0.1252  0.0716  0.1083
24501W        W39632   7.400  16.294  13.443 -0.0552 -0.0199 -0.0568
24502W        W39633   3.612  15.679  15.265 -0.3854 -0.2077 -0.1774
24503W        W39634  15.118  14.321   2.755 -0.0322  0.1356  0.1619
24504W        W39635   7.687  17.627  12.386  0.3918 -0.1042 -0.1479
24505W        W39636  10.575   8.122   4.945 -0.2899  0.1164 -0.1820
24506W        W39637  11.003  16.780   5.177 -0.0815  0.1197  0.1116
24507W        W39638  17.194   4.750  14.013 -0.1555  0.3811  0.0095
24508W        W39639  12.726   7.294   0.567 -0.3017 -0.1703  0.2937
24509W        W39640   9.824  11.483  12.458 -0.0468  0.2370 -0.5723
24510W        W39641   2.382  14.730   0.118 -0.3564  0.1503 -0.2989
24511W        W39642  12.408  14.694  14.623 -0.0368  0.0672 -0.1610
24512W        W39643   6.358   5.667   2.187  0.2231  0.0892 -0.1998
24513W        W39644  17.807  17.664   5.694 -0.1778  0.0521  0.3341
24514W        W39645   1.988   9.386  13.777  0.1926 -0.2460 -0.2364
24515W        W39646  12.712   8.278   4.522 -0.1700 -0.2705 -0.2019
24516W        W39647   4.993  13.600  14.664 -0.1939 -0.0811  0.1073
24517W        W39648   2.448   7.255  12.119  0.0760  0.1818 -0.2887
24518W        W39649  17.405   0.042   1.611 -0.0667  0.0901 -0.1999
24519W        W39650   4.423   1.778   3.751 -0.0643 -0.1714  0.1609
24520W        W39651  12.266  17.309  15.673 -0.1315  0.2523  0.0615
24521W        W39652   3.803  14.019   1.559 -0.0087 -0.4045  0.2598
24522W        W39653  16.002  12.745  14.239 -0.1299  0.0543  0.0074
24523W        W39654  14.800  11.047   2.138  0.0216 -0.1337 -0.1546
24524W        W39655   3.164   9.884  11.485 -0.2782  0.4044  0.0602
24525W        W39656  10.596  16.998   1.591  0.0134  0.1056  0.1214
24526W        W39657  17.617   8.862  11.841 -0.2233  0.0483  0.3627
24527W        W39658   0.291  15.682   3.883  0.2538  0.1352  0.2142
24528W        W39659  16.027   1.967   5.140 -0.1175  0.2391  0.3339
24529W        W39660   0.421   0.555  15.218 -0.1101 -0.0886 -0.1921
24530W        W39661  12.662   8.697   4.691  0.0980 -0.0268  0.0038
24531W        W39662  15.459   9.891   3.661  0.3220 -0.3273 -0.1649
24532W        W39663   2.555   9.100   5.360  0.3055 -0.0352 -0.0561
24533W        W39664   0.125   8.976  15.070 -0.0140 -0.3528  0.2827
24534W        W39665  14.214   5.761   4.289 -0.0351 -0.0510 -0.2513
24535W        W39666  16.424  11.609   3.212 -0.3426 -0.1486 -0.0141
24536W        W39667   9.684  11.634  12.016 -0.0199 -0.0949  0.2911
24537W        W39668  11.459   1.414   1.087 -0.0780 -0.0142 -0.0058
24538W        W39669   2.247   4.037   2.977 -0.1285 -0.5472 -0.1091
24539W        W39670   7.852  11.779   5.152  0.0247 -0.0705  0.0694
24540W        W39671  17.335   1.246   4.230  0.3206 -0.1935  0.1524
24541W        W39672   1.307   8.454   1.101 -0.1047 -0.1836 -0.3647
24542W        W39673  14.411   4.920  11.221 -0.0419  0.1237  0.0902
24543W        W39674  10.879   9.600   1.208 -0.0787 -0.1926  0.1564
24544W        W39675   0.230   0.803  16.050 -0.1348 -0.1796 -0.0425
24545W        W39676  10.129  17.305   3.447 -0.1633 -0.4728 -0.1331
24546W        W39677   3.448  12.724  16.025  0.0674 -0.2604  0.2303
24547W        W39678   4.812   3.743  15.187  0.0763 -0.3060 -0.2981
24548W        W39679  15.209   2.980  10.964 -0.3909  0.0318 -0.0007
24549W        W39680  12.815  10.134   2.727 -0.0768  0.2968  0.1715
24550W        W39681   4.766   3.865   0.362 -0.0002  0.0063 -0.0871
24551W        W39682  14.626   6.081  13.867  0.0580 -0.0188  0.2732
24552W        W39683  11.883   1.326  13.872  0.2972 -0.0923  0.1731
24553W        W39684  11.881   1.549  16.189 -0.0439 -0.2074 -0.1564
24554W        W39685  13.858   9.683   0.577  0.4910 -0.3195  0.2852
24555W        W39686   9.706  13.143  11.598  0.1985  0.1920  0.1305
24556W        W39687  15.998  15.618   1.018 -0.0890  0.0187 -0.0353
24557W        W39688  12.809   8.851   5.179  0.1106  0.0418  0.2090
24558W        W39689  15.982   8.847   3.929 -0.0824 -0.0403 -0.0775
24559W        W39690   9.614  17.744   2.021 -0.0030 -0.0694  0.0166
24560W        W39691   0.904  13.152  10.820  0.0799 -0.3948  0.1860
24561W        W39692  14.160  17.553  13.054  0.0094  0.0424 -0.0051
24562W        W39693  10.068   0.826   3.798 -0.1625 -0.0193  0.0664
24563W        W39694   2.706  17.940   4.075  0.2808  0.3532  0.2256
24564W        W39695  17.256   1.564  11.069  0.1170 -0.2380  0.1162
24565W        W39696  10.603   1.909  12.510 -0.3031 -0.2449 -0.3698
24566W        W39697  12.307   8.914   4.978 -0.1352  0.0944 -0.0931
24567W        W39698   5.827   4.421  11.968  0.0232  0.0894  0.3144
24568W        W39699   7.453  10.110   1.910 -0.1427 -0.1009 -0.1125
24569W        W39700   5.727   7.922   1.505  0.0456 -0.0537 -0.1597
24570W        W39701  12.382  16.517  11.085  0.0974 -0.2361  0.2236
24571W        W39702  17.795  10.862  13.908 -0.0588  0.0689 -0.5000
24572W        W39703  13.545  12.415  12.624 -0.1203 -0.3730  0.1951
24573W        W39704   8.512  12.794   3.679  0.1554 -0.2046 -0.2302
24574W        W39705  15.589   8.546  15.817  0.0053 -0.0764  0.1477
24575W        W39706   4.400  10.906   3.711 -0.2639  0.0376 -0.1607
24576W        W39707   2.603  14.105  14.681 -0.0843 -0.3645 -0.2748
24577W        W39708   3.351  16.534  12.082 -0.0830  0.0040 -0.1212
24578W        W39709  13.677  10.147   4.371  0.0334 -0.0380  0.2316
24579W        W39710  10.215   5.763   3.580 -0.0496 -0.1922  0.2635
24580W        W39711   6.521   6.212  16.178 -0.0279 -0.2158 -0.2019
24581W        W39712   5.720  13.839  13.875 -0.2502  0.2203 -0.2392
24582W        W39713  17.410   6.289  11.912  0.2106 -0.1944 -0.0793
24583W        W39714   1.762  17.944   3.106 -0.0810  0.0611  0.0964
24584W        W39715  14.866  17.334   1.494  0.1551  0.0513 -0.0818
24585W        W39716  13.059   5.320  11.836 -0.1490  0.0997  0.0880
24586W        W39717  16.761  17.448  15.010  0.3709 -0.0509 -0.2777
24587W        W39718   8.226   2.333  11.145 -0.1690  0.0610  0.2505
24588W        W39719  10.600   5.497   4.400  0.0241 -0.2191 -0.1214
24589W        W39720   1.066  13.897  12.595  0.1939  0.1373 -0.0888
24590W        W39721  11.229   8.554  12.172 -0.0524  0.0270 -0.2487
24591W        W39722  16.002   7.522   3.282  0.1592 -0.1031  0.0968
24592W        W39723  10.000  16.241   0.888  0.2715 -0.0111  0.1379
24593W        W39724  11.377  15.874  10.372 -0.2577  0.0861  0.0955
24594W        W39725  15.925   2.543   4.927 -0.1093 -0.2595  0.1102
24595W        W39726   9.111   0.443   4.870 -0.2964  0.2884  0.1331
24596W        W39727   0.902  17.132   2.870  0.0399  0.2400  0.0295
24597W        W39728  15.782  13.680  11.745  0.0610 -0.1304 -0.0474
24598W        W39729   7.686  17.851  11.860 -0.0393  0.2016  0.1097
24599W        W39730   5.581  17.083   4.828 -0.0212  0.2109 -0.0598
24600W        W39731  11.688   4.813  14.785 -0.2398 -0.4099  0.0398
24601W        W39732  15.879   1.416  12.494  0.4506  0.5202 -0.1919
24602W        W39733  10.024  11.759   0.571 -0.1078 -0.0669 -0.1578
24603W        W39734   3.106   4.079   1.707 -0.0218 -0.3457 -0.0662
24604W        W39735  13.793   5.437  10.915  0.2300 -0.2332 -0.1414
24605W        W39736  13.507   0.674  10.807 -0.1752  0.1144  0.2820
24606W        W39737   7.075   7.181  10.700  0.0048  0.2589 -0.2024
24607W        W39738   3.888   9.600   2.798 -0.0673 -0.2571 -0.0337
24608W        W39739   6.381  11.796   0.154 -0.1675  0.3155  0.0841
24609W        W39740   6.184  12.979  12.380  0.1200  0.1708  0.3278
24610W        W39741   3.627  12.954  13.586 -0.2523 -0.3135 -0.2613
24611W        W39742  15.606   2.537  13.269 -0.3257  0.2002  0.1841
24612W        W39743  14.925   8.603   0.826  0.1220 -0.2296  0.0777
24613W        W39744   3.282   7.767  13.523 -0.0649  0.2050 -0.3094
24614W        W39745   9.698   3.161   6.042 -0.1523 -0.2770  0.0457
24615W        W39746   2.742   5.643   4.623  0.0760  0.1074 -0.1504
24616W        W39747  11.366  16.942  15.928  0.2370 -0.0457 -0.1340
24617W        W39748   0.933   0.506  14.531  0.2495  0.1442  0.0408
24618W        W39749  11.355  16.765  12.425  0.0275 -0.1684 -0.0536
24619W        W39750   5.686   3.976  13.079 -0.1514 -0.1466  0.1270
24620W        W39751  12.386   7.525   6.203 -0.0582  0.0373 -0.0728
24621W        W39752  17.888  17.300   1.903 -0.2868  0.0531 -0.1014
24622W        W39753   8.171  13.028  10.884  0.0985  0.2411 -0.0130
24623W        W39754  13.647  10.080  11.912  0.2666  0.0985 -0.0092
24624W        W39755  16.896   4.566   0.198 -0.3960  0.3063  0.0812
24625W        W39756  12.798  16.888  14.882  0.1988 -0.1423  0.3209
24626W        W39757  15.939  13.607   0.544 -0.0285 -0.0980  0.1269
24627W        W39758  11.979   0.936   3.172 -0.0042  0.0484  0.1570
24628W        W39759   8.387  12.248  14.559  0.0276 -0.1637 -0.1549
24629W        W39760  10.512   3.937   2.460 -0.0893  0.0925  0.2445
24630W        W39761   3.826   9.106   4.743  0.2667  0.0111 -0.2016
24631W        W39762  17.275  11.436   9.900  0.2523 -0.0062  0.0069
24632W        W39763   8.233  14.376   3.311  0.0167  0.1687  0.1518
24633W        W39764   8.471  16.285  15.389  0.1125  0.1280 -0.0033
24634W        W39765  12.679   3.782   1.791  0.2096 -0.1776 -0.0513
24635W        W39766   4.896   7.322  15.511  0.0105  0.0981 -0.0540
24636W        W39767  14.001   0.936   2.132 -0.2305  0.2176 -0.1118
24637W        W39768  11.479  13.459   2.638  0.0812  0.1513  0.0531
24638W        W39769   0.910  14.409  14.497  0.1659  0.0371  0.2205
24639W        W39770   6.660  11.007  13.857 -0.2895 -0.1578  0.3006
24640W        W39771  12.029   3.365   5.377 -0.0027  0.0464  0.2820
24641W        W39772   4.941  12.454  10.943  0.0428  0.0110  0.1102
24642W        W39773  12.533   7.154   3.189  0.0796  0.3563 -0.2608
24643W        W39774   4.404  10.695  14.985 -0.2807 -0.1195  0.0617
24644W        W39775   1.806   9.275   3.316 -0.1154  0.0093  0.2074
24645W        W39776   4.444  12.032  12.868  0.0360  0.0180  0.0050
24646W        W39777   7.356  15.051  14.270  0.3405  0.1285 -0.2340
24647W        W39778  12.987  16.871   1.486 -0.0554 -0.2180  0.1698
24648W        W39779   4.849  17.121   3.945  0.0039  0.3753  0.0563
24649W        W39780   9.061  13.701   4.435  0.4097 -0.0106  0.0921
24650W        W39781   7.145   2.709  12.030  0.2301 -0.2866 -0.1431
24651W        W39782   1.670   7.216  12.368  0.1633 -0.1840 -0.2136
24652W        W39783   4.779  11.069   0.593 -0.1431  0.2444  0.2417
24653W        W39784   2.496  15.117  11.280  0.2752 -0.1437  0.0152
24654W        W39785  11.042   8.297   2.022  0.1327 -0.2102  0.0757
24655W        W39786   9.973   8.814  15.300 -0.1241  0.0865 -0.2507
24656W        W39787   3.099  16.446   2.133  0.0650 -0.2117 -0.1110
24657W        W39788  12.097   9.892  15.072  0.1707  0.3510  0.1819
24658W        W39789   8.677  17.029   1.462 -0.0977 -0.2916 -0.2633
24659W        W39790   0.072   2.361  10.939 -0.1574  0.0934 -0.0989
24660W        W39791   4.192  16.802  12.130  0.1356 -0.1806  0.1743
24661W        W39792  10.782   7.184   5.326 -0.0933  0.0299 -0.0651
24662W        W39793   7.253  11.609  10.694  0.0747 -0.2334  0.3427
24663W        W39794   8.715   5.074  12.832  0.1629 -0.0522  0.0192
24664W        W39795   4.136   3.947  11.515 -0.1683 -0.0293  0.1474
24665W        W39796  14.916   5.885  12.921  0.0380 -0.1644 -0.1334
24666W        W39797  13.988   9.584   4.106 -0.0297  0.0903  0.0942
24667W        W39798  10.326  15.572  13.786  0.2333 -0.1279  0.1664
24668W        W39799  10.885   9.659   4.755  0.2123 -0.1928 -0.1793
24669W        W39800   4.349  13.440  12.363  0.0769 -0.3568 -0.1124
24670W        W39801   7.219  18.095  15.031  0.0393  0.0368 -0.2441
24671W        W39802   1.365  12.364  14.762  0.2648 -0.0110  0.2330
24672W        W39803  11.996   2.420  12.334  0.1283 -0.0152  0.0386
24673W        W39804  15.767   8.443   3.002  0.0328  0.0032  0.0241
24674W        W39805  10.743   7.443  15.006 -0.2396  0.0059  0.2169
24675W        W39806   7.261  16.467   3.315 -0.1585  0.1478 -0.0272
24676W        W39807  11.755   1.366   2.859 -0.0593  0.3603 -0.0222
24677W        W39808   5.246   9.775   5.050  0.0901  0.0540 -0.3140
24678W        W39809  14.774   4.697  13.810  0.1222 -0.3211 -0.0835
24679W        W39810  17.991  15.001   2.774  0.1903  0.0428 -0.1219
24680W        W39811   1.380   7.725  12.658 -0.0291  0.0799  0.0210
24681W        W39812   7.430  14.620  11.544 -0.0425 -0.2490  0.0171
24682W        W39813   9.168  14.147   0.919  0.0035 -0.0984 -0.1779
24683W        W39814  17.432   0.956   5.190 -0.2015  0.2597 -0.3346
24684W        W39815   4.220   8.626   5.486 -0.0312  0.1491 -0.0612
24685W        W39816  17.516  10.919   5.557  0.1643  0.1227  0.0590
24686W        W39817   8.532  13.011   1.536 -0.2990 -0.0783 -0.0478
24687W        W39818   5.827   1.603   2.273 -0.2420 -0.1000 -0.3171
24688W        W39819   4.569   6.563  14.094  0.4014 -0.1857 -0.2328
24689W        W39820   4.515  10.506   1.287  0.1442 -0.0955  0.2574
24690W        W39821   1.710  15.731   1.032 -0.3015  0.0965 -0.0630
24691W        W39822  11.227   0.808  13.204 -0.0445  0.0406  0.1912
24692W        W39823  15.183   7.084   2.667 -0.1473 -0.0920  0.0786
24693W        W39824  12.037  13.477  16.135 -0.1108  0.0700  0.1976
24694W        W39825   3.658   1.490  15.710  0.0546 -0.1711  0.0276
24695W        W39826   3.242   3.004   3.220 -0.0966  0.0207 -0.0816
24696W        W39827  17.161   2.030   0.667  0.1252 -0.0156 -0.1583
24697W        W39828   3.039   7.969   2.629 -0.0637  0.0149  0.4552
24698W        W39829  17.542   2.933  14.396 -0.2614  0.0631 -0.1087
24699W        W39830   7.889   0.114  15.625 -0.2227 -0.4015 -0.2294
24700W        W39831  16.421   7.382   5.921  0.1907 -0.1551 -0.0151
24701W        W39832  10.693   6.684  10.148 -0.3727  0.3610  0.0022
24702W        W39833   2.914  12.103   2.251  0.1227 -0.5345 -0.2274
24703W        W39834   9.089  17.712   2.088  0.1572 -0.1030 -0.0775
24704W        W39835  17.620   4.469   2.781  0.1126 -0.1594 -0.1623
24705W        W39836  17.071   1.796   1.176  0.0015 -0.0516  0.2429
24706W        W39837   4.108  10.812   1.131 -0.0939  0.0622 -0.0150
24707W        W39838   4.736   1.690  16.129  0.1100 -0.2505  0.1259
24708W        W39839   6.470   7.160   1.801 -0.2474  0.0306  0.1761
24709W        W39840  10.655   2.463  15.520  0.2180  0.0348  0.0004
24710W        W39841  16.591  10.841  12.757 -0.1940 -0.0171  0.1946
24711W        W39842  12.606  12.085   2.258  0.1453  0.2454  0.2462
24712W        W39843   6.335  15.107  12.145 -0.0423 -0.2010 -0.3520
24713W        W39844  13.130  14.180   0.261 -0.3423 -0.3036 -0.1524
24714W        W39845  10.751   1.631   6.159 -0.0364 -0.1024  0.1731
24715W        W39846   3.268  16.069  11.964 -0.3194 -0.0962  0.2932
24716W        W39847  15.935   6.179   1.868 -0.0041  0.1752  0.2473
24717W        W39848  17.899   1.644   4.285  0.0092 -0.1191 -0.0640
24718W        W39849   4.790  15.321  13.134  0.0008  0.0765  0.2073
24719W        W39850   3.886  16.319  11.369  0.0042  0.0472  0.0166
24720W        W39851   9.291   3.159   0.477  0.0716  0.2274 -0.1183
24721W        W39852   8.208  11.037   4.024 -0.1562 -0.1780  0.3872
24722W        W39853   2.922   3.758   0.422  0.1761 -0.2883 -0.1796
24723W        W39854  13.164  14.027  11.437  0.0693  0.2016 -0.2594
24724W        W39855  11.811   6.065  14.543 -0.0572  0.3714 -0.0230
24725W        W39856  13.629  11.745   3.595  0.0727  0.0719 -0.3590
24726W        W39857  12.456  16.202   2.768 -0.0166  0.2253  0.1196
24727W        W39858  15.658  16.252  15.524  0.1869 -0.0331 -0.2273
24728W        W39859   7.029   3.383  11.252 -0.0429  0.0087 -0.3165
24729W        W39860  14.332   1.072  10.508  0.4113  0.1515 -0.1112
24730W        W39861   0.423  15.663   2.193  0.0272  0.2796 -0.2615
24731W        W39862   9.696   5.641  15.622  0.2440 -0.1995 -0.0802
24732W        W39863   1.487   0.862  10.754  0.0462  0.1968 -0.1957
24733W        W39864   6.856  12.239   4.910 -0.1427 -0.0006  0.0791
24734W        W39865   4.766   9.347   2.423  0.0091  0.2266  0.1670
24735W        W39866   8.923  15.355  12.222 -0.0397  0.3312 -0.2004
24736W        W39867  13.113   7.118  11.555  0.0633  0.0191  0.0847
24737W        W39868   2.207   6.383   5.047 -0.2155  0.1199 -0.4285
24738W        W39869   6.639   6.566  15.340 -0.2618  0.0176  0.0845
24739W        W39870  15.709  10.200   3.369 -0.0120 -0.1437  0.0457
24740W        W39871   1.283   1.291  10.972 -0.1178 -0.1148  0.0188
24741W        W39872   6.531  17.469  15.580 -0.0358  0.0474 -0.0235
24742W        W39873  12.567   8.185  14.657  0.0768  0.0780  0.0191
24743W        W39874  16.653  15.512   4.117 -0.1596 -0.1304  0.1800
24744W        W39875   6.750   6.052   4.676  0.2011  0.2148  0.1433
24745W        W39876  16.725   5.400   3.344 -0.0868  0.0897  0.0912
24746W        W39877  16.660   1.879  15.246  0.0877 -0.3329 -0.1508
24747W        W39878  10.465   6.052  15.613 -0.0083 -0.0426 -0.0343
24748W        W39879  13.514   9.292   2.000  0.1342 -0.0633  0.1226
24749W        W39880  17.134   6.333  15.954  0.0859  0.1460 -0.0306
24750W        W39881   5.402   3.526   0.760  0.1522 -0.0167  0.0090
24751W        W39882   9.520   3.574   3.431  0.2630 -0.0122 -0.0176
24752W        W39883  17.712   4.116  14.925  0.3268  0.3780  0.0102
24753W        W39884  13.286   7.273  15.249  0.0164 -0.0782 -0.0926
24754W        W39885  14.160   8.196   5.106  0.2322  0.0826 -0.0969
24755W        W39886   2.288  17.269  10.760 -0.1344  0.1555 -0.0258
24756W        W39887  11.564   7.692  15.649  0.1437 -0.0112  0.2650
24757W        W39888  11.000   7.035   2.208  0.1104  0.0282  0.0315
24758W        W39889  13.393   4.716   5.744  0.0555  0.0552  0.1397
24759W        W39890   3.378   2.789   1.258  0.1060  0.2521 -0.0550
24760W        W39891  16.334   5.881  11.171  0.1538 -0.0461 -0.4029
24761W        W39892   9.102   2.054  14.125  0.3177  0.1193 -0.1165
24762W        W39893  13.617  17.631   5.091  0.0520 -0.0722 -0.0852
24763W        W39894   9.371  14.988   1.923  0.0052  0.0838 -0.1480
24764W        W39895  16.260  17.925  11.708 -0.0766 -0.1337 -0.1057
24765W        W39896  12.531   5.693   2.911  0.0152  0.1332 -0.0226
24766W        W39897   7.933   1.190   2.976 -0.1867  0.0172  0.1740
24767W        W39898  16.754   8.270  12.203 -0.2546 -0.0332 -0.1053
24768W        W39899  13.933   2.686   4.384 -0.0657  0.1549  0.1722
24769W        W39900  16.460   6.038   4.180  0.0257  0.3300  0.1629
24770W        W39901  13.053  17.101  15.272  0.0778  0.0773 -0.0014
24771W        W39902  15.867  12.891  15.064 -0.0881 -0.2661  0.1414
24772W        W39903  13.307   7.063  12.397  0.1096  0.1656 -0.4932
24773W        W39904   2.793   6.057  12.760  0.0182 -0.2257 -0.1998
24774W        W39905  16.924   5.635   2.507 -0.1616  0.0398 -0.1701
24775W        W39906   0.709  13.949  13.251  0.1238  0.2550 -0.0165
24776W        W39907   9.883   1.495   0.192  0.0715 -0.0596  0.1936
24777W        W39908  12.878   1.091  13.405 -0.1180 -0.0617  0.5157
24778W        W39909   4.719  10.949   2.348  0.1706  0.1669 -0.0016
24779W        W39910  11.102  14.742  15.267 -0.3774 -0.3958  0.3349
24780W        W39911  17.666   2.337  13.630 -0.3961 -0.1782 -0.0136
24781W        W39912  14.850  17.026   2.318 -0.1342  0.0914 -0.1237
24782W        W39913  13.873   6.788   5.469  0.4862 -0.0099  0.2501
24783W        W39914  16.412   3.010  11.337  0.1307 -0.0979 -0.1452
24784W        W39915   6.238  13.035  13.034  0.1489 -0.0924 -0.1261
24785W        W39916  10.081  14.180   3.024  0.0189  0.0062  0.2023
24786W        W39917   9.853   3.858  15.627  0.3737 -0.0686  0.0855
24787W        W39918  16.113  16.863   2.889  0.2477  0.3172  0.1713
24788W        W39919   7.898   1.249  14.683  0.0200 -0.3489  0.0053
24789W        W39920  12.252   0.410   2.364 -0.1601  0.0537  0.0678
24790W        W39921   7.064  13.090  15.852 -0.0507 -0.0419 -0.1243
24791W        W39922  12.774   6.792   2.308  0.0776 -0.1280 -0.1845
24792W        W39923   5.282  14.395  12.118 -0.1261 -0.0827  0.2151
24793W        W39924  10.351   5.686   0.042  0.3777 -0.2833 -0.0797
24794W        W39925   8.779  12.442  15.846  0.0647  0.0838  0.0896
24795W        W39926  14.937  12.024   4.677  0.1164  0.1748  0.2465
24796W        W39927   9.077  13.260   3.011 -0.0692 -0.1234 -0.1335
24797W        W39928  10.962   0.312  12.579 -0.1103  0.1614 -0.0113
24798W        W39929  12.329  14.417   4.179  0.0965  0.2390  0.2504
24799W        W39930   6.355  13.587  14.926 -0.2110 -0.0161  0.0959
24800W        W39931  11.793  12.562   4.422  0.1832 -0.1371 -0.1588
24801W        W39932   1.310   0.469   4.654 -0.1178 -0.0278 -0.1084
24802W        W39933   2.170   8.404   0.904 -0.0150  0.1738 -0.0706
24803W        W39934  16.570   8.056  13.563  0.2269 -0.1135 -0.0237
24804W        W39935   6.867   4.838   4.881 -0.0652 -0.1125 -0.1929
24805W        W39936   7.526  16.220   6.292  0.0316  0.0800  0.1118
24806W        W39937   6.129  14.150   3.188  0.3120 -0.3597  0.0471
24807W        W39938  12.109  13.391  13.373 -0.1755 -0.0084 -0.1106
24808W        W39939  14.169   7.161   3.894  0.2538  0.0185  0.0069
24809W        W39940   4.412   0.963   3.967 -0.0063  0.0296  0.0830
24810W        W39941   3.301  17.525   2.405  0.1253 -0.1040  0.1363
24811W        W39942  16.182  11.064   5.520 -0.0388 -0.1742 -0.2455
24812W        W39943   4.990   1.815  13.354  0.0384  0.1799 -0.0136
24813W        W39944  15.870  11.822   0.029  0.0480 -0.3695 -0.0847
24814W        W39945  16.200   2.671  14.127 -0.0839 -0.1799 -0.1491
24815W        W39946   6.362   9.163   6.379  0.0930 -0.4408  0.1241
24816W        W39947   9.778   7.640  11.565 -0.0595  0.2991  0.0825
24817W        W39948   4.622   2.794  12.327  0.0478  0.1479  0.2321
24818W        W39949   7.527   3.293  15.975 -0.1911 -0.2026  0.3292
24819W        W39950   1.392   1.168   5.998  0.0610  0.0216  0.0604
24820W        W39951  13.434   8.742   0.933 -0.3386 -0.1934  0.1512
24821W        W39952  13.259  14.426   4.271 -0.0833 -0.1020 -0.3106
24822W        W39953  11.609   4.403   0.436 -0.1590 -0.1546  0.0935
24823W        W39954   8.258   5.860   1.338 -0.0708  0.0447  0.0984
24824W        W39955   9.979   6.606  12.605 -0.0345  0.0433  0.1467
24825W        W39956   3.205   0.329  15.256 -0.0175  0.1947 -0.0458
24826W        W39957   9.493   2.626  13.355 -0.0185 -0.0961  0.1001
24827W        W39958   5.103   5.221   1.431  0.0765  0.2735  0.0723
24828W        W39959   0.591   3.096   3.350  0.2498  0.4412  0.0474
24829W        W39960   5.921  12.692   1.506  0.0930  0.0190  0.2113
24830W        W39961   5.782   5.242  12.346 -0.1434  0.1069  0.1601
24831W        W39962   3.005  13.115  11.489 -0.1479  0.3216 -0.0441
24832W        W39963   7.988  11.284   0.192  0.1175  0.0399 -0.2029
24833W        W39964   0.429   8.518  12.616 -0.2137  0.0065  0.2152
24834W        W39965  14.256   8.819   0.820  0.0719  0.1488  0.1248
24835W        W39966   9.435  10.422   2.812 -0.3443 -0.0522 -0.2947
24836W        W39967  16.079  10.646   1.065 -0.0037 -0.0319 -0.0525
24837W        W39968  13.342   3.345  12.889 -0.1575 -0.3690 -0.1067
24838W        W39969   0.160  13.254   1.053  0.1575  0.2610 -0.1003
24839W        W39970   8.171  15.363   0.981 -0.2079  0.1290 -0.0568
24840W        W39971   5.553   3.439  16.022 -0.2504 -0.1910 -0.1523
24841W        W39972   6.233  17.531   5.010 -0.2204  0.0547 -0.0058
24842W        W39973   3.210  10.713  15.744  0.4132  0.1248 -0.1380
24843W        W39974   4.877   3.725  12.564 -0.2337 -0.0035  0.0879
24844W        W39975  14.226   7.566  12.214 -0.0578 -0.2003 -0.0698
24845W        W39976  14.680   9.062   3.291 -0.2327 -0.0452 -0.0766
24846W        W39977   4.607   9.992   3.930 -0.0728  0.0350  0.0420
24847W        W39978  13.392  14.353   0.761 -0.2624 -0.1906 -0.2146
24848W        W39979   1.214   8.589   5.314  0.3719 -0.3328  0.0327
24849W        W39980  12.995  11.964  13.810  0.1979  0.0180  0.1867
24850W        W39981   1.298   8.426   0.491 -0.1910 -0.0673  0.3404
24851W        W39982   1.199   9.242  11.245  0.0067 -0.1530 -0.1713
24852W        W39983  13.821   7.232   3.058  0.0328  0.1083  0.0307
24853W        W39984   2.473   6.815   1.482  0.0218  0.2599 -0.1895
24854W        W39985   3.484  15.989   1.135  0.0245  0.1189 -0.2826
24855W        W39986  10.522   8.993   1.565  0.3017 -0.0095 -0.2956
24856W        W39987   1.683  12.224   3.163  0.0878  0.0660  0.1420
24857W        W39988  15.376   1.815  12.513  0.0475 -0.1488  0.0752
24858W        W39989   9.489   0.198   0.202 -0.2661  0.0702  0.2510
24859W        W39990   5.165  10.919  10.444 -0.1148 -0.0506  0.1902
24860W        W39991  16.386   2.447  15.857  0.0426 -0.0436 -0.1149
24861W        W39992  16.859   2.283  16.017  0.0916 -0.0704  0.1779
24862W        W39993   2.660   6.290   5.274 -0.1107 -0.2296  0.0749
24863W        W39994  10.574   8.228   2.190 -0.0547  0.0355 -0.2266
24864W        W39995  12.531   6.558   3.236  0.1527  0.0816 -0.0933
24865W        W39996   0.518  15.234  12.500 -0.0710 -0.1903  0.0504
24866W        W39997  17.658   3.374  14.200  0.1760  0.1422  0.1652
24867W        W39998   0.340   5.527   0.170 -0.0660 -0.3306  0.2503
24868W        W39999  10.954   8.226  14.560 -0.1155  0.1563 -0.0003
24869W        W40000   6.440  16.955   3.522 -0.1194  0.0922  0.0250
24870W        W40001   8.230   5.434  13.639 -0.0182  0.2603  0.5474
24871W        W40002   6.564  14.508   0.510 -0.0110 -0.0947 -0.0976
24872W        W40003   7.752   0.633  13.460  0.1228 -0.2712 -0.0362
24873W        W40004   9.874  11.467  12.952 -0.0504  0.0384 -0.0941
24874W        W40005  11.641   3.659  14.890  0.2789 -0.0188  0.3997
24875W        W40006  10.901  12.218   0.972 -0.1087  0.3660  0.0182
24876W        W40007  11.256   1.532   4.438 -0.3686  0.1356 -0.0399
24877W        W40008  15.440   9.313  15.749  0.0609  0.1422 -0.0912
24878W        W40009   5.654  16.419   4.301  0.0768 -0.2849  0.1136
24879W        W40010   4.926  11.440   2.838  0.2942 -0.1485  0.0034
24880W        W40011  14.499   0.687  12.723  0.1123  0.3164 -0.0321
24881W        W40012  11.396  17.493  11.469 -0.2728 -0.1963 -0.1420
24882W        W40013   7.168   3.749   2.322 -0.1270 -0.0301  0.0847
24883W        W40014   1.881  12.815   5.182 -0.3813 -0.0224  0.0226
24884W        W40015   0.190  10.531   4.344 -0.0919  0.2043  0.1737
24885W        W40016  11.561  11.223  11.595 -0.0826  0.2794 -0.1380
24886W        W40017  15.635   3.087  10.655  0.0234  0.2929 -0.0484
24887W        W40018  12.702  15.921   3.228 -0.1793 -0.2363 -0.1895
24888W        W40019  15.366   1.690   0.648  0.0382  0.0272  0.0140
24889W        W40020   2.957   6.014   4.268  0.3189 -0.0931 -0.0682
24890W        W40021   9.284  11.707   4.415  0.2608  0.0083 -0.3313
24891W        W40022  13.908  10.651   2.089  0.2265 -0.0480 -0.3166
24892W        W40023   2.136  17.075   4.243 -0.1329 -0.0287 -0.0681
24893W        W40024  11.086   4.140   2.444 -0.0362 -0.1624  0.3243
24894W        W40025  13.748   2.173   0.398  0.0808 -0.1116  0.1384
24895W        W40026   5.516  11.424   5.399 -0.1380 -0.0993  0.0178
24896W        W40027  10.853   9.919   5.670  0.2475 -0.0823 -0.0923
24897W        W40028   1.714  15.228   3.181  0.0330  0.0306 -0.2868
24898W        W40029  12.160  16.005   4.920  0.0973 -0.0317  0.0813
24899W        W40030   3.893   8.128   3.374  0.3070 -0.0975  0.1281
24900W        W40031   4.316  11.964   2.262  0.2669  0.0578 -0.1996
24901W        W40032  16.190  15.882   5.303 -0.1223  0.1228 -0.2467
24902W        W40033  11.998   0.617  14.604 -0.1807 -0.0796 -0.0885
24903W        W40034   6.935   4.843   1.029  0.1741  0.1015  0.0716
24904W        W40035   3.774   2.963  13.435  0.2321  0.1378  0.0539
24905W        W40036  16.572   0.967   2.234 -0.0796 -0.0733 -0.0121
24906W        W40037  15.768   0.546  12.197 -0.1591 -0.3186 -0.0668
24907W        W40038  14.707   4.205  15.188  0.0032 -0.1043  0.0989
24908W        W40039   9.652   9.944  15.224 -0.0489 -0.2067 -0.1790
24909W        W40040  13.783  15.434   0.371  0.3745 -0.0714 -0.0697
24910W        W40041  11.423   8.405   3.341 -0.0830 -0.1193  0.2178
24911W        W40042  14.879  12.852  15.968 -0.1802 -0.4879 -0.4311
24912W        W40043   3.735   8.160  12.680  0.0587  0.0031 -0.0582
24913W        W40044   7.991  12.585  11.203 -0.0663  0.3259 -0.1734
24914W        W40045  16.563   7.515   1.027  0.2316 -0.3466 -0.1755
24915W        W40046  15.605   7.227   3.048 -0.3092 -0.2203 -0.1343
24916W        W40047   2.171  11.618   2.818 -0.0300  0.0359  0.1618
24917W        W40048   3.331   6.834  13.625 -0.2471  0.1353 -0.1012
24918W        W40049  10.090   5.843  15.331  0.1009 -0.4041 -0.0658
24919W        W40050   0.036  15.799  13.287 -0.1891  0.0393  0.2867
24920W        W40051   1.090  13.908   5.056  0.0704 -0.1272  0.0739
24921W        W40052   7.500   4.673  13.854 -0.0442  0.0021 -0.2899
24922W        W40053   3.827   3.150   1.156  0.2048  0.0040  0.0103
24923W        W40054  16.798   1.551  11.635 -0.0251 -0.2597 -0.1429
24924W        W40055  13.228   9.556  13.883  0.0061  0.3359  0.0142
24925W        W40056   7.499   2.499   3.756 -0.0804 -0.2106  0.1480
24926W        W40057   2.547  17.834   4.548 -0.1554 -0.0146 -0.0071
24927W        W40058   3.962   4.859  15.892 -0.0900 -0.0950 -0.0609
24928W        W40059  14.257  17.003  14.308 -0.1153  0.1509 -0.0057
24929W        W40060   6.738  14.255  14.334  0.0083  0.0043  0.2762
24930W        W40061   1.984   5.213   4.362 -0.0911  0.2291 -0.0874
24931W        W40062   2.278  17.314  14.231 -0.0317 -0.0053 -0.0655
24932W        W40063   1.079   3.413   2.198  0.0313  0.2182  0.0863
24933W        W40064   2.918   6.720   1.284 -0.0575 -0.0009  0.0875
24934W        W40065   7.379  10.358   3.107  0.1116  0.1073 -0.1249
24935W        W40066   2.542   9.437   4.289 -0.1953 -0.0343  0.0146
24936W        W40067   2.576   9.398   1.339 -0.1635 -0.0332 -0.0464
24937W        W40068  17.120   3.303   2.991  0.1108 -0.0988 -0.1803
24938W        W40069   3.545   9.514  14.066 -0.3729 -0.1091  0.1508
24939W        W40070   1.410  15.006   1.440  0.0619 -0.0118  0.1444
24940W        W40071   4.523  15.155  15.113 -0.0341 -0.2328  0.1068
24941W        W40072   9.760   4.054  16.097 -0.3746  0.1635 -0.0697
24942W        W40073  12.437  10.626  12.706  0.3099  0.0724 -0.1827
24943W        W40074  10.898   1.262  13.375  0.0284  0.1362 -0.1526
24944W        W40075  10.540  15.824   3.450  0.0015 -0.2362 -0.0883
24945W        W40076  16.054   2.463   3.626 -0.1690 -0.0948  0.0944
24946W        W40077   7.812   9.816   4.593  0.1179  0.5156 -0.1033
24947W        W40078  13.031   4.565   2.666  0.0517 -0.0592  0.1054
24948W        W40079   0.290  14.306   2.640 -0.3783  0.2173 -0.1529
24949W        W40080  12.687  15.028  13.836  0.0062  0.0820 -0.4050
24950W        W40081  15.286   9.704   6.167  0.1358 -0.0819 -0.1042
24951W        W40082  10.549   1.454  15.981  0.1634 -0.0057  0.1923
24952W        W40083  10.611  17.722  14.261  0.0166 -0.0059  0.2149
24953W        W40084   9.123   2.844  11.493 -0.1040 -0.1496 -0.3549
24954W        W40085  10.927  10.468   3.189 -0.1914 -0.1012 -0.0319
24955W        W40086   6.566   5.544  15.739  0.0054 -0.5289 -0.1620
24956W        W40087   8.682  16.568  11.146  0.1362  0.1603  0.1216
24957W        W40088   2.940  12.822   0.504 -0.2473 -0.0489  0.0556
24958W        W40089  10.783  13.920   4.688  0.0450 -0.2219 -0.0784
24959W        W40090  15.880  12.413  13.083  0.0464  0.2129  0.2400
24960W        W40091  13.036  17.508  10.805  0.2556 -0.0569 -0.0148
24961W        W40092   5.250  16.237   1.426 -0.1890  0.0753  0.0213
24962W        W40093   8.729   6.620  15.595 -0.0324  0.2764  0.1737
24963W        W40094   7.769  12.046   2.345  0.0131  0.2763  0.1131
24964W        W40095  17.719  14.063   1.926  0.1106 -0.0662 -0.2147
24965W        W40096  17.220  13.315  13.585 -0.0884 -0.1020 -0.1166
24966W        W40097   4.759   4.102  14.055  0.0261  0.0420 -0.0597
24967W        W40098   5.478   8.225  13.562 -0.1643 -0.0857 -0.2640
24968W        W40099  17.621   2.059   3.390  0.2301 -0.0354 -0.1383
24969W        W40100  18.028   2.863  12.255 -0.0035 -0.2841  0.2768
24970W        W40101   8.188   3.856  15.794  0.1986 -0.1151  0.1211
24971W        W40102  14.716   0.123  13.445 -0.1690  0.1518  0.1157
24972W        W40103   6.051  16.426  10.336 -0.2056  0.4412 -0.1957
24973W        W40104   7.939  13.338  13.506 -0.0315  0.1506 -0.0897
24974W        W40105   2.764  15.088   1.636  0.3382  0.2501  0.0902
24975W        W40106   2.884   6.649  12.672 -0.2218 -0.1785 -0.1543
24976W        W40107   2.625  15.049  13.437  0.0830 -0.0581  0.0002
24977W        W40108  10.215  17.661  14.730  0.2285 -0.0495  0.1036
24978W        W40109  12.749   9.276   4.861  0.1281  0.0074  0.4605
24979W        W40110  10.733   2.607  10.157 -0.0298 -0.0523  0.1745
24980W        W40111   6.033   7.119   0.084 -0.1393  0.0005 -0.0176
24981W        W40112   0.915   5.167  10.988  0.0071 -0.0885  0.0146
24982W        W40113   3.940  12.647   4.427  0.1471 -0.0920 -0.1336
24983W        W40114   6.752   5.642   3.731  0.0428  0.1295  0.0559
24984W        W40115   6.425   9.796  13.103 -0.2320  0.1764  0.1438
24985W        W40116   2.218  12.122   4.108  0.0442 -0.0220  0.0912
24986W        W40117   4.582  17.555   1.460 -0.1958 -0.1148  0.1710
24987W        W40118   8.714  11.608  16.044 -0.0931  0.1099 -0.1095
24988W        W40119   3.629   9.726   5.298 -0.1334  0.2638 -0.1373
24989W        W40120  12.372  11.823  12.103 -0.4772  0.0688 -0.3042
24990W        W40121   9.635   5.307   2.639  0.1820 -0.0754  0.0601
24991W        W40122  12.774   6.829  11.335  0.2020  0.3100  0.1863
24992W        W40123  15.522   8.633   4.261 -0.2587 -0.2589  0.1043
24993W        W40124   4.935   2.604  10.988  0.1024 -0.0274  0.1529
24994W        W40125   3.864  15.455  15.688  0.0133 -0.0093  0.1273
24995W        W40126   9.525  11.140   5.775 -0.2074  0.3299  0.2425
24996W        W40127  11.322   9.920   3.814 -0.1149  0.1724  0.0986
24997W        W40128   5.568   5.207   5.547  0.0510 -0.1160  0.0646
24998W        W40129   8.002  12.380   1.946  0.1990 -0.3897  0.2325
24999W        W40130  12.146  12.646  12.318  0.1094  0.1405  0.4448
25000W        W40131  10.726   8.911  16.170 -0.3376  0.0864 -0.0258
25001W        W40132   4.307   0.853  15.265  0.3414  0.0860 -0.0424
25002W        W40133  16.498   1.055  11.394  0.0625  0.0869 -0.0890
25003W        W40134  12.751  16.257   0.474  0.1163  0.2964 -0.2724
25004W        W40135   6.713  17.766  12.574 -0.0624  0.2079  0.1401
25005W        W40136   3.883  10.085   5.058  0.1064 -0.0348  0.0469
25006W        W40137  10.905   6.759   5.580  0.1722  0.2434  0.0221
25007W        W40138   6.546   1.953   4.594  0.1679 -0.0339 -0.2012
25008W        W40139   1.182  13.332  11.205  0.0593 -0.3131  0.2158
25009W        W40140  14.285   4.310   3.194  0.1944 -0.2401 -0.2681
25010W        W40141  13.449   6.875   5.185 -0.0908 -0.1365 -0.0868
25011W        W40142   5.276   7.476   4.445 -0.1175  0.1065  0.4458
25012W        W40143   3.872  15.678  10.566 -0.3102  0.0895  0.0779
25013W        W40144  12.776  11.150   1.386 -0.0777 -0.2286  0.0706
25014W        W40145   9.273  15.346   3.025 -0.3813  0.3205 -0.3827
25015W        W40146   5.212   1.119  12.926  0.1009 -0.2436  0.3173
25016W        W40147  17.535  11.812  15.978 -0.0053 -0.0945 -0.2235
25017W        W40148   6.501   6.819  11.820 -0.1085 -0.0122 -0.0440
25018W        W40149   5.898   4.423   3.421  0.2114 -0.0614  0.1683
25019W        W40150  16.719  14.568  12.114  0.2254  0.2584  0.1793
25020W        W40151   0.745   8.466  13.013  0.1548 -0.0924  0.3306
25021W        W40152   4.843   7.575  11.638  0.0291  0.0512  0.3659
25022W        W40153  11.749   9.459  10.516 -0.0499  0.0084  0.2164
25023W        W40154  15.618  17.116  15.664 -0.0231 -0.1545 -0.0565
25024W        W40155  14.377   5.196   3.545  0.0447  0.0502 -0.0123
25025W        W40156   4.882   8.574   3.737 -0.1651 -0.0130 -0.1428
25026W        W40157  12.120   4.776   5.442 -0.0139  0.2388 -0.0540
25027W        W40158   7.619  17.640   3.017 -0.2651 -0.0805 -0.2420
25028W        W40159  11.046   3.854   4.006 -0.0626 -0.2345 -0.0040
25029W        W40160   4.761   7.536  11.086  0.3917  0.0632 -0.0536
25030W        W40161  16.500  13.732  12.388  0.0605 -0.2213 -0.0486
25031W        W40162  12.828   5.449  13.999 -0.1568  0.0897  0.0542
25032W        W40163  15.487  14.671   0.181 -0.1676 -0.0950 -0.4134
25033W        W40164   7.069   1.651  12.409 -0.2654 -0.2001  0.0323
25034W        W40165  11.341   4.572  13.223  0.0201 -0.1909  0.0178
25035W        W40166   0.574   9.330  12.323 -0.0138  0.2643  0.1173
25036W        W40167   6.289   6.037   4.559 -0.0652 -0.0204  0.2612
25037W        W40168   8.359  12.996  13.395  0.1279 -0.0400  0.2108
25038W        W40169  15.510  14.218  16.217  0.2120  0.3122 -0.0643
25039W        W40170  17.287   2.173   4.438 -0.0583  0.0131  0.0887
25040W        W40171   7.542  10.488  12.711 -0.0318 -0.1869  0.1962
25041W        W40172   8.284   7.942  13.973 -0.2122  0.2241 -0.1083
25042W        W40173   4.193   0.791  14.706  0.0611 -0.0549 -0.0723
25043W        W40174   2.203   9.908   3.097  0.1033 -0.0052 -0.0213
25044W        W40175   3.754   3.717   4.805 -0.1416  0.1760  0.1856
25045W        W40176   1.897   1.943  15.044 -0.1332 -0.0017 -0.2304
25046W        W40177  17.365   7.946   5.927 -0.0446 -0.2691 -0.0933
25047W        W40178   7.110  10.083   2.808 -0.1105 -0.1023  0.1872
25048W        W40179   5.354  11.888   3.571  0.0316 -0.0908  0.0331
25049W        W40180   0.987  12.758  11.082  0.0112 -0.0193 -0.0053
25050W        W40181  16.483   1.198   1.519  0.2120  0.2924  0.0414
25051W        W40182   7.470  11.603   3.784 -0.0041 -0.2053  0.0445
25052W        W40183   7.355  10.488  13.911 -0.1102 -0.0167  0.0641
25053W        W40184  13.713  11.257  13.682 -0.0181 -0.1925  0.0032
25054W        W40185   8.199  16.026  13.951  0.3062  0.3091 -0.0087
25055W        W40186   6.600   7.750  12.015  0.0592 -0.0930 -0.1616
25056W        W40187   4.181   4.074  15.998  0.3251  0.1122  0.1628
25057W        W40188  10.101   0.578   4.824  0.0158  0.1410  0.0411
25058W        W40189   0.859  12.578  11.523 -0.1706  0.2241 -0.2963
25059W        W40190   6.366  11.399   3.248  0.0596  0.1137  0.1639
25060W        W40191  13.679   2.254   5.195  0.1118 -0.4589 -0.3584
25061W        W40192   9.642   8.190  12.765  0.0504 -0.1943 -0.0705
25062W        W40193   7.055  12.233   9.936 -0.2276  0.0177  0.3193
25063W        W40194  10.089  13.490  15.118  0.0018 -0.3012  0.1656
25064W        W40195   1.137   5.670   5.301 -0.0533 -0.3114 -0.4808
25065W        W40196  11.617   3.344  12.685  0.1784 -0.1973 -0.1094
25066W        W40197   3.324   2.376   3.931  0.2576  0.0775  0.0277
25067W        W40198   7.431   8.672  15.660  0.2692  0.1346 -0.3287
25068W        W40199  10.799   0.652   0.943  0.0548  0.0607  0.0416
25069W        W40200   4.794   5.302  15.371  0.0359  0.0173 -0.2507
25070W        W40201   2.298  17.798  11.002 -0.1820 -0.1392  0.1525
25071W        W40202   4.438   6.769  11.797 -0.0443  0.3794  0.1460
25072W        W40203   9.837   7.128  12.591 -0.1107  0.0251 -0.1572
25073W        W40204   5.929  17.110  14.381 -0.2692 -0.0647 -0.0946
25074W        W40205  10.679   2.518  11.654  0.0996 -0.1407 -0.1363
25075W        W40206  14.731  17.263  15.446 -0.2400  0.1723 -0.0511
25076W        W40207  16.360  15.070   4.055  0.1083 -0.1514 -0.0470
25077W        W40208   4.775   6.729   3.030 -0.2960  0.0247  0.0288
25078W        W40209   1.513  16.025  13.078  0.1562 -0.0966 -0.3027
25079W        W40210   6.148  15.976  11.720  0.2453 -0.4569 -0.1191
25080W        W40211   8.469   6.443   4.286  0.0985 -0.1385 -0.0038
25081W        W40212   4.085   0.021   2.309  0.0092 -0.4321 -0.1475
25082W        W40213  17.135  16.788   3.405  0.3148  0.2238  0.0288
25083W        W40214  17.022  12.453  10.897  0.0769  0.1049  0.1063
25084W        W40215   9.250   3.109   3.571 -0.0635 -0.0425 -0.1076
25085W        W40216   4.656  12.869   1.126 -0.2547 -0.1423  0.0458
25086W        W40217   1.767   2.323   4.717 -0.0786 -0.2340  0.0911
25087W        W40218   9.120  16.202   2.435 -0.0808 -0.1845 -0.1121
25088W        W40219   3.133   8.791   0.740  0.4809  0.1677 -0.3071
25089W        W40220  10.841  16.145  11.796  0.0291 -0.0212 -0.1689
25090W        W40221   5.792   4.380  13.395 -0.0102  0.1752  0.1332
25091W        W40222   2.214  14.008  16.206  0.4238 -0.0307  0.3654
25092W        W40223  14.554   3.767  12.792  0.2164  0.0814 -0.3076
25093W        W40224   2.107   7.472  15.269  0.0031  0.2095 -0.2972
25094W        W40225  12.077  15.838  12.113 -0.3590  0.3205  0.1255
25095W        W40226   8.921   3.590  15.208  0.3589  0.2854  0.1413
25096W        W40227   7.287  12.688   3.586 -0.0831 -0.0045 -0.2747
25097W        W40228   6.257  10.488   4.802  0.1194  0.2559 -0.2852
25098W        W40229  16.292  11.943  14.764 -0.1168 -0.1241 -0.0914
25099W        W40230  12.138  10.314  13.188 -0.0983  0.0416  0.1983
25100W        W40231  11.237   6.744  14.398  0.0046  0.2663 -0.0775
25101W        W40232  14.608  12.409  15.317  0.0497 -0.0133 -0.1286
25102W        W40233   1.312   9.570   5.627  0.1546 -0.0135  0.1369
25103W        W40234   8.132  11.743  14.467 -0.0207 -0.2561 -0.2125
25104W        W40235  16.186   2.954  13.145  0.2052 -0.3606 -0.1846
25105W        W40236  17.181   0.267   2.447  0.0234  0.0009  0.0288
25106W        W40237   5.413   2.189   0.968 -0.2097  0.0183 -0.0201
25107W        W40238   9.428   2.259  15.035  0.3072  0.2175  0.0115
25108W        W40239   9.472  17.920   2.494 -0.0430  0.0156  0.1567
25109W        W40240  16.160   7.224   1.203  0.2525 -0.0701 -0.1140
25110W        W40241  10.888   4.115   1.972 -0.0597  0.2686 -0.4216
25111W        W40242   2.873   6.830  15.091  0.2224 -0.0279 -0.0853
25112W        W40243  10.119   4.801  14.621  0.1461 -0.1280 -0.1171
25113W        W40244   6.919  12.769   5.853  0.0332 -0.0429 -0.0952
25114W        W40245   4.901  11.553   3.398 -0.0726  0.1575 -0.1650
25115W        W40246   3.931  14.391   2.456  0.3077  0.2008  0.3525
25116W        W40247  12.881   2.930  13.411 -0.0508 -0.2348 -0.1922
25117W        W40248  17.995  10.587   4.864 -0.1091 -0.2732  0.3413
25118W        W40249  16.359   9.684   3.575  0.1556 -0.2999 -0.0151
25119W        W40250  14.221  13.046  12.899 -0.0765 -0.1703  0.0187
25120W        W40251   6.995   3.890   4.490 -0.1609 -0.4566 -0.1392
25121W        W40252   8.555   6.172  10.578  0.1561  0.2006 -0.2409
25122W        W40253  10.538  16.921  12.197  0.1356 -0.3030 -0.0829
25123W        W40254  13.677  17.009   5.171 -0.1395  0.0847  0.2364
25124W        W40255  10.161  13.158  12.016 -0.0172  0.1979 -0.0126
25125W        W40256   1.962  13.938   3.372  0.2169 -0.2645  0.1090
25126W        W40257  16.681   5.697   1.764 -0.1343 -0.0034 -0.2977
25127W        W40258   8.568  10.707   0.774  0.4316 -0.2655 -0.0686
25128W        W40259  17.524  10.829   1.225 -0.0854 -0.0996 -0.0703
25129W        W40260   3.378  17.774  10.043 -0.1558 -0.1746 -0.2802
25130W        W40261   9.250   5.780  12.323 -0.0297  0.1122 -0.4117
25131W        W40262   6.000   0.125   0.793 -0.0771 -0.0532  0.0005
25132W        W40263   7.661  16.008  14.359 -0.0014 -0.4144  0.4014
25133W        W40264  15.372   5.235  16.138 -0.0972 -0.2945 -0.0214
25134W        W40265   9.886   2.891   4.630 -0.0047 -0.0961 -0.0682
25135W        W40266  17.446   8.245   1.893  0.1339  0.1046 -0.0023
25136W        W40267  12.826   2.513   0.004 -0.1154  0.3721  0.0567
25137W        W40268   9.927   0.562  10.852 -0.1391 -0.2006 -0.1108
25138W        W40269   2.514  17.332  10.317 -0.1363 -0.0747  0.1869
25139W        W40270  13.327  16.761  10.694  0.1288 -0.3194  0.0436
25140W        W40271   2.100   5.826  13.549  0.0468  0.1835  0.2058
25141W        W40272   5.529   6.415  12.325 -0.1097 -0.1020 -0.1796
25142W        W40273   7.816  12.024  11.222  0.0609  0.0254 -0.1179
25143W        W40274   8.000   1.520  13.623 -0.1528 -0.0160 -0.3518
25144W        W40275  10.087   2.753   0.085  0.1114 -0.0947 -0.1652
25145W        W40276   7.321   6.974   2.992 -0.2084 -0.1635 -0.0637
25146W        W40277   3.082   7.879   4.587 -0.0945 -0.1683  0.0864
25147W        W40278   4.547  16.441  15.643  0.2566 -0.3889 -0.0509
25148W        W40279   7.837   4.892  11.279  0.0318  0.0915 -0.2336
25149W        W40280   4.107   8.357  10.914 -0.0835 -0.0264 -0.1145
25150W        W40281  13.089   1.820  10.903  0.2095  0.2752 -0.0096
25151W        W40282   6.525   2.281  14.080  0.0964 -0.0130  0.1667
25152W        W40283  11.119   9.418  15.435  0.0564 -0.0896  0.0331
25153W        W40284   6.500  11.048   1.478 -0.0590 -0.0330 -0.1362
25154W        W40285   4.302   3.270  14.542 -0.1351  0.1686 -0.0515
25155W        W40286   1.069   5.011   2.671  0.2839  0.1664 -0.2067
25156W        W40287   6.896  15.891   2.025  0.1769 -0.0712 -0.2835
25157W        W40288   9.476  11.489   6.197 -0.2073  0.0919  0.0743
25158W        W40289  18.058  17.120   2.776 -0.1498  0.2721  0.0240
25159W        W40290  17.433  15.751  11.255 -0.0178 -0.0707 -0.0126
25160W        W40291   9.312  15.571   2.357  0.0114 -0.0113  0.2027
25161W        W40292   8.508  17.956  10.037 -0.0022 -0.1278 -0.4370
25162W        W40293   8.580  13.452   4.409 -0.3213  0.2364  0.4125
25163W        W40294   3.392  16.645   3.299  0.1363  0.1093  0.1993
25164W        W40295   6.488   9.108   1.109  0.6227  0.1171  0.1245
25165W        W40296  13.726   1.000   3.669  0.0930 -0.2056 -0.0355
25166W        W40297  11.492  13.426  15.322  0.2036 -0.2201 -0.0414
25167W        W40298   3.962   4.482   2.527  0.0893 -0.0603 -0.1567
25168W        W40299   9.266  17.835  15.142 -0.2426 -0.0429 -0.2016
25169W        W40300   8.691  10.984  11.437 -0.0880 -0.5760 -0.1567
25170W        W40301   9.837   5.108  13.183  0.1441 -0.4137  0.2284
25171W        W40302   2.012  10.609  15.306 -0.2741 -0.0134  0.0738
25172W        W40303   1.973  14.455  13.973  0.4406  0.1260 -0.3240
25173W        W40304  16.628  17.458   4.189  0.1663 -0.0410 -0.1048
25174W        W40305  15.711   5.047   4.024 -0.2468  0.2027  0.1176
25175W        W40306  14.617   4.759  15.454 -0.0634 -0.1133  0.3672
25176W        W40307   9.100   3.482  10.113  0.3159 -0.0975 -0.0718
25177W        W40308  16.426  11.620  11.086  0.0690 -0.2845 -0.0686
25178W        W40309  10.455   0.670   1.892 -0.0006  0.2670 -0.3194
25179W        W40310  16.404   7.023  12.673  0.1025  0.1370  0.2461
25180W        W40311   6.610   0.071  10.333  0.1986 -0.1051 -0.0069
25181W        W40312   1.779   5.146   5.007  0.0405  0.0678  0.2365
25182W        W40313   8.531  17.531   0.392 -0.2491 -0.0812 -0.0570
25183W        W40314  11.970  14.309  13.030 -0.1699  0.0816 -0.0326
25184W        W40315   6.886   5.552   3.278  0.1605  0.0088  0.0015
25185W        W40316  16.043   8.991   1.102  0.0716  0.0296 -0.0128
25186W        W40317   8.797   1.532  14.290 -0.0215  0.1823 -0.0384
25187W        W40318   3.275   9.031   3.109  0.3150 -0.0038 -0.1309
25188W        W40319  16.569   9.324  16.161 -0.1781  0.1349 -0.3277
25189W        W40320   3.240   7.177   3.197 -0.1564  0.1148  0.0802
25190W        W40321   5.084   8.319  12.622 -0.2347  0.0705 -0.0334
25191W        W40322  14.496   7.909  15.172 -0.2848  0.0493 -0.3773
25192W        W40323   4.577  15.330  12.201 -0.0503  0.0849  0.0332
25193W        W40324  16.101  12.047   4.923 -0.0326  0.1230 -0.1838
25194W        W40325   1.107   3.208  14.202 -0.0749 -0.0543  0.0726
25195W        W40326  16.372   3.243  16.071  0.1535  0.5309 -0.1013
25196W        W40327   4.768  11.856   2.014  0.0061  0.1754  0.1437
25197W        W40328  10.152   8.439   6.238 -0.0819 -0.1059  0.0599
25198W        W40329  11.259   3.266  14.700 -0.0801 -0.1157  0.0738
25199W        W40330  16.510   4.307  14.284  0.0157  0.0892  0.2906
25200W        W40331   4.413  15.013  10.868  0.2423  0.1646  0.0052
25201W        W40332  16.185   9.431   1.411  0.1054  0.0717  0.3761
25202W        W40333  14.120   8.489   4.661 -0.3777 -0.0523  0.0031
25203W        W40334  16.190  12.747  14.715  0.1245  0.0336  0.0470
25204W        W40335  11.605   2.848   5.483 -0.0386 -0.0973 -0.2711
25205W        W40336   0.831  10.718   2.966 -0.0367 -0.1965  0.0501
25206W        W40337   1.776   3.776   1.306 -0.1447 -0.3155 -0.0760
25207W        W40338  12.973  12.803   1.870  0.1515 -0.0282  0.0367
25208W        W40339   0.288  14.862   1.267 -0.1744 -0.0767  0.0043
25209W        W40340  12.850   7.474  15.085  0.1205 -0.3306  0.0656
25210W        W40341   8.874   8.115  15.761 -0.1352 -0.1015  0.3018
25211W        W40342  16.111  13.109  12.794 -0.1059  0.1349  0.2104
25212W        W40343  17.635   2.682  15.875  0.1767 -0.2033  0.1351
25213W        W40344  10.474   2.266   2.103 -0.0538 -0.0365  0.1777
25214W        W40345  10.766   5.020  15.634  0.1404 -0.3731  0.0860
25215W        W40346   3.127   3.672  11.943  0.1329 -0.1479 -0.3176
25216W        W40347  11.699  14.259  13.551 -0.2411 -0.2357 -0.2702
25217W        W40348   3.041  12.478   9.468  0.1504 -0.1511 -0.1610
25218W        W40349  13.893   8.633  16.213  0.0075 -0.2886  0.1996
25219W        W40350   0.325   4.658  14.342  0.0472  0.0287  0.0081
25220W        W40351   6.854   5.404   2.429 -0.1908  0.1309 -0.1534
25221W        W40352   9.034  16.058  16.176  0.0032  0.1079  0.0324
25222W        W40353  13.704  11.477   0.904  0.0093  0.0026  0.2514
25223W        W40354   3.379   4.663   2.487 -0.1422  0.0549  0.0759
25224W        W40355   4.864   3.970   4.314 -0.1494  0.1006  0.1001
25225W        W40356   6.164   0.377   2.717  0.0448 -0.0832 -0.0039
25226W        W40357   0.634   8.980  12.715 -0.1128  0.0985 -0.0174
25227W        W40358   0.789  10.803   5.407  0.0080 -0.1068  0.0191
25228W        W40359  17.525   7.558   2.759 -0.2047 -0.0246  0.0272
25229W        W40360  13.420  10.543  11.146  0.0116 -0.1165 -0.1034
25230W        W40361   0.141   2.300   3.868  0.0203  0.1966  0.1680
25231W        W40362  12.404   3.855  13.730  0.1423 -0.0298 -0.0372
25232W        W40363  15.485   2.462  11.682 -0.0823 -0.1515 -0.0292
25233W        W40364   5.193   5.496  11.670  0.2258 -0.0899 -0.0623
25234W        W40365  13.019   6.038  13.333 -0.0325  0.1675 -0.1378
25235W        W40366   7.819   1.285  15.226 -0.0315  0.2487 -0.0416
25236W        W40367   8.521   1.821   2.299  0.0362  0.1378 -0.0824
25237W        W40368   5.493  14.959   4.194 -0.0132  0.0336  0.1749
25238W        W40369   8.888  10.794   3.954 -0.0402 -0.0466  0.2247
25239W        W40370   9.498   1.256   3.264  0.0467 -0.1294 -0.0879
25240W        W40371   4.357  15.222   0.284  0.1462 -0.0187 -0.1221
25241W        W40372   5.433   4.138  14.184  0.4698 -0.0087  0.0326
25242W        W40373  16.564   0.309   4.466 -0.1037  0.0671 -0.1410
25243W        W40374   7.463  11.606   2.576 -0.1140 -0.0529  0.3334
25244W        W40375  10.679  14.385   1.534 -0.0224 -0.2324  0.0118
25245W        W40376   2.514  12.318  11.767 -0.2985  0.1034  0.0713
25246W        W40377   2.590  12.709  12.510 -0.2663  0.2187 -0.0156
25247W        W40378  12.364   1.416   1.375 -0.2193 -0.0219 -0.1603
25248W        W40379   5.764   5.268  14.032  0.0501  0.1417  0.0673
25249W        W40380   1.277  16.765   4.540 -0.0112 -0.2731 -0.3724
25250W        W40381   5.212   4.714  14.684  0.0254 -0.0774  0.1498
25251W        W40382  10.224  17.240  10.456 -0.3165  0.0921  0.0795
25252W        W40383  12.908   8.978  16.244  0.0819  0.1312 -0.1856
25253W        W40384   0.364   6.723   4.183 -0.1024  0.1235 -0.0365
25254W        W40385  11.999  16.273  10.788  0.1008  0.0808 -0.3997
25255W        W40386   6.317   7.689  14.505  0.0489  0.0505  0.0886
25256W        W40387  12.111   9.826   3.934 -0.0772  0.3335 -0.0483
25257W        W40388  15.666   7.697   5.125 -0.1130 -0.1324  0.0254
25258W        W40389  17.440  16.803   3.804  0.0675  0.0733 -0.0491
25259W        W40390   5.745   0.282   3.545  0.0240 -0.1144 -0.3323
25260W        W40391   9.585   6.962  14.027 -0.3311  0.2294  0.4305
25261W        W40392  11.363   8.772  14.995  0.1388 -0.0606 -0.1033
25262W        W40393   5.021   3.774   2.220 -0.0913 -0.1926 -0.0575
25263W        W40394  11.022   4.498   1.486  0.1317 -0.1430  0.1485
25264W        W40395   9.995  10.193  13.578 -0.4278 -0.2694 -0.2520
25265W        W40396  14.341   2.020   1.003  0.3198  0.1021  0.0562
25266W        W40397  14.068   8.042  14.028 -0.2017 -0.1460 -0.0276
25267W        W40398  14.970   2.908  11.957 -0.0951  0.2399  0.0401
25268W        W40399   9.938   7.158  14.319 -0.4046 -0.0241 -0.1801
25269W        W40400   9.736   0.499  14.929 -0.0832  0.0174 -0.1168
25270W        W40401   9.438  16.654   2.344  0.3209 -0.0590  0.0503
25271W        W40402   0.471   7.541  14.071  0.2271 -0.2253 -0.1631
25272W        W40403   4.267  15.189  14.070 -0.0867  0.0189 -0.1649
25273W        W40404   0.894  11.016  14.705 -0.0495  0.2126  0.2110
25274W        W40405  15.717  13.324  10.770  0.0186  0.0506  0.2752
25275W        W40406  18.086  14.154   0.548 -0.0294  0.2101  0.0675
25276W        W40407   4.914   2.243   4.427  0.3178  0.2512 -0.2100
25277W        W40408   1.520  12.270  13.215 -0.2974  0.1521  0.0502
25278W        W40409   5.586   0.718  15.172  0.1897 -0.0970 -0.2146
25279W        W40410   1.662   1.602  14.394  0.1224  0.2084 -0.1765
25280W        W40411   3.475  11.872  15.017 -0.0034 -0.0906 -0.1303
25281W        W40412   2.326   2.520  11.739 -0.1239 -0.2039  0.2035
25282W        W40413   5.183  15.472   2.005 -0.3739  0.0908 -0.1960
25283W        W40414   9.567  14.354  14.988  0.0149  0.1490  0.1878
25284W        W40415   9.506  17.864  14.557 -0.2366 -0.0969  0.0391
25285W        W40416   9.639   9.961   0.318 -0.1217  0.1638 -0.2199
25286W        W40417  17.670   1.296  15.724  0.2662  0.0892 -0.0017
25287W        W40418   7.079  12.766   0.014  0.2187  0.0971 -0.0606
25288W        W40419   6.860   9.279  12.614 -0.0955 -0.0889  0.0968
25289W        W40420   0.929   5.605   3.792 -0.4325  0.0509  0.0210
25290W        W40421   2.637   1.088   1.893 -0.0435  0.0115 -0.2470
25291W        W40422  16.858   3.499  13.186  0.1747 -0.3651  0.1127
25292W        W40423  16.229  16.692   4.440  0.1459 -0.0537 -0.0824
25293W        W40424   5.956   4.489  11.127  0.0232  0.2438  0.0782
25294W        W40425  11.677  10.469  13.849 -0.1432  0.0154  0.1087
25295W        W40426   6.834  13.509  15.134 -0.1053  0.1176  0.2381
25296W        W40427   2.068  16.880  11.040  0.1439  0.3119  0.0047
25297W        W40428   7.304  15.360   5.465 -0.2296 -0.4492  0.1177
25298W        W40429   9.024  17.600  11.702 -0.1100  0.0853  0.0172
25299W        W40430   1.757   2.532  12.293  0.0494 -0.2609 -0.2246
25300W        W40431  11.164   6.829  12.681 -0.0819  0.1573  0.0610
25301W        W40432  16.672  17.048   1.462 -0.1078  0.1957  0.2755
25302W        W40433   1.420   4.559   5.695  0.1962  0.3448 -0.0151
25303W        W40434  16.053  14.289  13.551  0.1883 -0.0128  0.2636
25304W        W40435  17.692   7.847  12.785 -0.1222 -0.2711  0.0763
25305W        W40436   1.711   2.550  12.923  0.0749 -0.1441 -0.0256
25306W        W40437   8.493   4.724   5.468  0.2648 -0.0276  0.1751
25307W        W40438   2.432  14.444   4.614 -0.1248 -0.1237 -0.1497
25308W        W40439   8.586  12.900  15.961 -0.5290 -0.0272  0.1608
25309W        W40440   0.615  14.874   2.490 -0.0005  0.1721 -0.0720
25310W        W40441   4.226   8.502  12.877 -0.1302  0.1511 -0.2038
25311W        W40442  10.244  16.215   5.008  0.0461  0.0309  0.2141
25312W        W40443   1.735  14.732  14.900  0.0171 -0.2297 -0.1819
25313W        W40444  16.521  12.523  15.909 -0.1776  0.1339  0.2190
25314W        W40445   6.442  11.725  12.205  0.2414  0.0388 -0.2364
25315W        W40446   0.078   7.114  12.754  0.3304  0.2784 -0.1100
25316W        W40447  10.384  11.257   2.587  0.0854  0.1453  0.0943
25317W        W40448   0.724   2.613   0.916 -0.3103  0.3997  0.0829
25318W        W40449  15.563   5.461   4.230 -0.1564 -0.1650 -0.0832
25319W        W40450   2.201  11.203   3.181  0.0220 -0.1068 -0.0953
25320W        W40451   3.554   1.779  13.053  0.0874  0.2729  0.3046
25321W        W40452   4.325  10.297  14.653  0.0242  0.2242 -0.1532
25322W        W40453   7.273   3.398  15.595  0.1115  0.0898  0.1422
25323W        W40454   4.442   0.397  14.897  0.0078  0.0315 -0.1864
25324W        W40455  13.307   1.302  14.780 -0.1194 -0.1870 -0.3518
25325W        W40456   7.772   7.987  11.202 -0.0999 -0.0625 -0.0887
25326W        W40457   5.842  17.705  11.836 -0.1031  0.0263  0.2123
25327W        W40458  14.196  14.786   3.202  0.0885  0.2900 -0.2832
25328W        W40459  11.982   2.576  11.285 -0.0047  0.1552 -0.1134
25329W        W40460  12.779  11.696   3.243  0.0395 -0.1815 -0.1665
25330W        W40461  12.925   4.347   4.317  0.1297  0.0755 -0.1834
25331W        W40462   6.145  10.144  13.517  0.1261 -0.1221 -0.3116
25332W        W40463  17.595   0.990  11.190 -0.0188 -0.0296 -0.4231
25333W        W40464  10.960  11.249   5.313  0.2052  0.2000 -0.0382
25334W        W40465  16.752   7.780   4.157  0.1603  0.0457  0.0444
25335W        W40466   0.297   7.054  11.033 -0.2412 -0.0576  0.0555
25336W        W40467  13.494   5.779  13.337 -0.3067 -0.0049  0.0985
25337W        W40468   5.338   2.901  10.199  0.0742  0.0624 -0.1227
25338W        W40469   8.880  10.988   1.096 -0.1508  0.0073 -0.1657
25339W        W40470   2.022   2.893  12.952 -0.4779  0.0732  0.0315
25340W        W40471   9.938   6.497   3.280  0.1235  0.0053  0.1234
25341W        W40472  10.186   3.585  12.009 -0.1381 -0.4459  0.0957
25342W        W40473   3.639   9.758  11.416 -0.1281 -0.1701  0.2752
25343W        W40474  16.650   8.196   0.275  0.1508  0.2017 -0.1506
25344W        W40475  15.811   6.513   2.269  0.3632  0.1147 -0.0262
25345W        W40476  14.557   7.202   1.707  0.2475  0.0903 -0.0436
25346W        W40477   9.604  15.952  12.090  0.0700  0.2709 -0.0037
25347W        W40478   0.208  10.527  12.584  0.0819  0.0044 -0.1129
25348W        W40479   8.740   4.120   1.887 -0.0372 -0.1554 -0.2787
25349W        W40480  12.375  13.090  14.973  0.0130  0.1331 -0.0291
25350W        W40481  17.269   7.544  14.351 -0.0085  0.0544 -0.0745
25351W        W40482   8.738  16.173   2.149  0.0707  0.1071 -0.2545
25352W        W40483  16.185   0.238  14.059  0.0783  0.0260  0.4559
25353W        W40484   0.583   5.634  10.875  0.0178 -0.1600 -0.4162
25354W        W40485   3.739   1.968  11.393  0.1524 -0.0662  0.4184
25355W        W40486   0.218  12.668  12.081  0.1146 -0.3956  0.1332
25356W        W40487  15.839  10.278   0.804 -0.0998  0.3357  0.0711
25357W        W40488   5.560  14.226  13.532 -0.0068  0.1241  0.0085
25358W        W40489  17.258   8.056  15.200  0.1033 -0.1680  0.2750
25359W        W40490   9.002   6.251   2.141 -0.0224 -0.1201 -0.0117
25360W        W40491  17.631   9.390  13.646  0.1428 -0.2359 -0.0274
25361W        W40492   8.087  15.651   2.763  0.2972 -0.2437 -0.0736
25362W        W40493  11.398  17.972   5.098  0.1239  0.2573 -0.0432
25363W        W40494  14.436  17.462   1.799  0.2170  0.1285 -0.2136
25364W        W40495   4.180  16.945   9.799  0.1405 -0.0496  0.3811
25365W        W40496   4.292  16.940   0.911  0.0638 -0.0034 -0.3591
25366W        W40497  15.701  14.484  15.333 -0.1078  0.0103 -0.1682
25367W        W40498   3.040  16.708   1.176 -0.0362 -0.0580 -0.0241
25368W        W40499   2.209   8.568  11.930  0.0352 -0.0649 -0.2613
25369W        W40500   1.149  11.120  15.106 -0.1479 -0.1281  0.3790
25370W        W40501  13.656   8.743   4.642 -0.0960 -0.0396  0.0118
25371W        W40502   4.216   2.262   3.834 -0.1489 -0.2013  0.0168
25372W        W40503   6.761   1.878  16.043  0.0267 -0.2160 -0.4560
25373W        W40504  12.995  15.402  14.026  0.1364  0.2285  0.3032
25374W        W40505   5.483   4.871  11.019 -0.0134  0.1856 -0.0605
25375W        W40506  17.553   4.495  16.239  0.2012  0.2576  0.1634
25376W        W40507   3.635  17.733  13.813  0.0089 -0.1622  0.0574
25377W        W40508  11.992   7.338   3.201 -0.3452 -0.2320  0.0123
25378W        W40509  12.646   3.417  14.760 -0.1620 -0.1889 -0.0383
25379W        W40510   9.477  16.607  11.401 -0.2866  0.2074 -0.2304
25380W        W40511  15.526  14.858   1.389  0.3088  0.1606  0.0584
25381W        W40512  13.828   4.541   2.358 -0.0869  0.1159 -0.3042
25382W        W40513   0.942   9.926   4.875  0.3423 -0.0257  0.2917
25383W        W40514  10.125   7.514   1.316 -0.0143  0.3167 -0.0200
25384W        W40515  14.016  12.020   0.479 -0.0928 -0.0442  0.0519
25385W        W40516  17.746  10.229  13.956  0.0418  0.1901  0.1139
25386W        W40517  12.078   3.216   0.823 -0.2240  0.0268 -0.0926
25387W        W40518  17.738  11.432  11.707  0.0568 -0.1866  0.0446
25388W        W40519   4.239   8.292   0.382  0.3633 -0.2326 -0.0257
25389W        W40520  16.205   5.989  15.260  0.0296  0.0127  0.0796
25390W        W40521  11.416  15.860  14.599 -0.0168  0.0527  0.1614
25391W        W40522  17.024  14.684  14.894  0.2246  0.0638  0.1542
25392W        W40523  17.575   6.998  11.460  0.1137  0.0488 -0.5329
25393W        W40524   9.137   8.869  11.424 -0.1142 -0.1929 -0.1369
25394W        W40525   3.928   6.253  16.034  0.0324 -0.0013  0.1176
25395W        W40526   5.327  10.903  15.845 -0.0522  0.0099  0.1353
25396W        W40527   8.090  13.617  14.407 -0.1480 -0.1809 -0.0240
25397W        W40528  10.533  14.617  15.120 -0.1761  0.0222 -0.2664
25398W        W40529  11.878   6.550   2.519  0.1054  0.1280 -0.0608
25399W        W40530   6.494  17.570  15.008  0.0753 -0.1871 -0.2959
25400W        W40531  10.137  15.126   1.396  0.2296  0.0092 -0.2633
25401W        W40532  15.157   6.027   3.601 -0.1604  0.2361  0.2573
25402W        W40533   2.162  17.506   1.435 -0.1388 -0.1952  0.1570
25403W        W40534  11.608  16.253   2.223 -0.0828  0.2446 -0.0682
25404W        W40535   3.780   9.111   3.121 -0.1594  0.2136  0.0370
25405W        W40536  12.127   0.929  12.410 -0.1812 -0.4419 -0.0925
25406W        W40537  14.903   2.583  14.620  0.0500 -0.1057 -0.2818
25407W        W40538  15.713  17.963   4.201 -0.0093  0.1089 -0.0070
25408W        W40539   6.495   7.048  15.649  0.0161 -0.0040  0.2875
25409W        W40540  14.967   4.404   5.430 -0.3804  0.1470  0.1672
25410W        W40541   0.305   9.688   0.536  0.0807 -0.1895 -0.4634
25411W        W40542   3.500  13.729  14.501  0.1479 -0.2266  0.1261
25412W        W40543  14.357  11.568  11.277  0.0512 -0.2101 -0.1299
25413W        W40544  15.293  16.250  12.348  0.1193 -0.4502 -0.0658
25414W        W40545   5.820  10.972  12.985  0.0684  0.2892  0.2161
25415W        W40546   6.336  12.901   3.312  0.2832  0.0015 -0.0687
25416W        W40547   7.631  14.830   1.174  0.0628 -0.0140  0.1418
25417W        W40548  10.609   2.953   5.112  0.0606  0.0584  0.0580
25418W        W40549   2.772   1.734  14.728  0.1782  0.0091  0.2291
25419W        W40550   3.626   9.078  13.783 -0.1030  0.2087  0.2684
25420W        W40551  10.063   9.498  14.834 -0.0696 -0.1444 -0.0368
25421W        W40552   9.891  13.677   4.769  0.0296  0.0837  0.0194
25422W        W40553   6.186   4.220  11.528 -0.1642  0.0994 -0.1716
25423W        W40554   5.837  15.173   2.851 -0.2530 -0.0601  0.0552
25424W        W40555   9.924   3.963  14.044 -0.3203 -0.0881  0.1535
25425W        W40556   4.159   9.825  15.927  0.0832  0.0125  0.0656
25426W        W40557  13.803  10.100   3.490  0.0867 -0.0334 -0.0372
25427W        W40558  17.165   9.542  13.385 -0.2071  0.3054 -0.4212
25428W        W40559   7.592  11.838   3.307 -0.3083 -0.0646 -0.1735
25429W        W40560   2.504   4.683  14.885  0.1885 -0.1290 -0.0462
25430W        W40561   3.070   9.048   6.473 -0.0708  0.0921  0.0219
25431W        W40562   8.607   3.015  12.507  0.0444 -0.3179 -0.0705
25432W        W40563   9.113  16.593  14.271  0.0165 -0.0910 -0.0146
25433W        W40564   8.768   0.411   4.066  0.2791  0.1610  0.2183
25434W        W40565  10.258   7.136  14.751  0.1978 -0.1982 -0.1124
25435W        W40566   2.842  10.146  13.909 -0.3518 -0.2131  0.1559
25436W        W40567  16.414   3.665   3.430  0.0526 -0.1880 -0.0063
25437W        W40568   7.109   4.732  14.198 -0.4342 -0.0725 -0.1312
25438W        W40569  16.962   3.905  15.904  0.0018 -0.2568 -0.3682
25439W        W40570  15.773  11.387  12.763 -0.0416 -0.1605 -0.2359
25440W        W40571   8.039  10.559   4.134  0.0933 -0.0266 -0.1329
25441W        W40572  10.729  15.759   2.206  0.1559 -0.0468 -0.1200
25442W        W40573   0.564  15.208   2.090 -0.2493  0.4341  0.0353
25443W        W40574  15.167   5.587  14.228 -0.4395 -0.0390 -0.3691
25444W        W40575   7.032   6.215   1.887 -0.0707  0.0105  0.0766
25445W        W40576  15.077  10.476   4.880 -0.3353 -0.1887 -0.2047
25446W        W40577   3.798  11.233  13.104 -0.2097 -0.2933 -0.0580
25447W        W40578   2.587   5.836   1.197  0.1118  0.1245 -0.1524
25448W        W40579   9.911  14.133  12.412 -0.1035  0.2249 -0.1830
25449W        W40580   8.998   6.508   3.568 -0.0857  0.0934 -0.1450
25450W        W40581  13.023  16.086  16.165 -0.0157  0.0763  0.1947
25451W        W40582   7.671   0.892   1.554  0.0487  0.1980 -0.2823
25452W        W40583  12.766   1.833  12.918 -0.0566  0.0446 -0.2538
25453W        W40584  14.868  12.543   0.870  0.0868 -0.1601  0.1832
25454W        W40585  13.079   8.658   3.745 -0.1620 -0.1712 -0.1764
25455W        W40586   5.124  13.591  12.962 -0.1811  0.3462  0.1538
25456W        W40587   9.992   6.879   3.765 -0.2204 -0.0524 -0.1977
25457W        W40588   6.879   7.045   0.443  0.0049 -0.2720  0.0468
25458W        W40589  13.820  16.729  10.932 -0.0492  0.2007  0.3693
25459W        W40590   6.605   8.726   3.716 -0.0374 -0.1134 -0.2403
25460W        W40591   3.057  15.022   0.367  0.1897  0.3632 -0.2354
25461W        W40592   1.047  14.742   3.247 -0.0534 -0.1873  0.1974
25462W        W40593   8.688   7.888  11.331  0.0145 -0.0176 -0.1809
25463W        W40594   0.037   3.682   3.654 -0.0998  0.0057 -0.2021
25464W        W40595   1.418  17.182   4.812  0.2798 -0.0378 -0.1407
25465W        W40596   3.947  14.590   3.012 -0.1098  0.0747 -0.0191
25466W        W40597   3.338   5.874  16.048 -0.1357  0.2021 -0.0765
25467W        W40598   3.575  12.001  11.675  0.0530  0.0660 -0.0104
25468W        W40599  12.597  12.368  12.293  0.0559  0.2926 -0.0173
25469W        W40600  17.199   2.270   3.143  0.1700 -0.1079  0.0751
25470W        W40601   8.175  11.751  15.327 -0.1919 -0.0643 -0.3313
25471W        W40602   9.290   7.600   2.574  0.0647  0.0436 -0.2837
25472W        W40603  11.655  15.992  12.882  0.1337 -0.1915 -0.3911
25473W        W40604  11.832   6.118  11.715  0.0995  0.2767  0.4304
25474W        W40605  11.811   2.999   1.201  0.1535  0.2432 -0.1310
25475W        W40606   0.287   6.153   0.976  0.1121 -0.1297 -0.1544
25476W        W40607   0.163  12.942   3.626  0.2656 -0.2140 -0.2184
25477W        W40608   3.414   9.080   5.495  0.0266 -0.1896  0.1689
25478W        W40609   2.314  16.230   5.020 -0.2624  0.1351  0.2117
25479W        W40610  10.166   5.613   4.122  0.1517 -0.1761 -0.2688
25480W        W40611   6.058  16.539  15.668 -0.3843  0.1095 -0.1948
25481W        W40612   7.300   5.864  12.745  0.0613  0.0395 -0.2703
25482W        W40613  16.318   3.428  11.054  0.1765 -0.0040  0.1432
25483W        W40614   5.425  13.409   3.066 -0.0869  0.1663 -0.0167
25484W        W40615   6.019  13.514  13.149  0.1508  0.1808 -0.1553
25485W        W40616  14.496   6.582  14.346  0.0486 -0.0161  0.3870
25486W        W40617  17.963  12.810  11.197  0.0617 -0.0296  0.0959
25487W        W40618  13.075   4.225  15.740  0.3336 -0.0347 -0.1161
25488W        W40619   3.616   0.427   5.941 -0.3472 -0.0857  0.1104
25489W        W40620   4.036   7.484  14.418  0.0718  0.1812  0.2032
25490W        W40621   0.972   9.581  11.523 -0.0136  0.2069 -0.0792
25491W        W40622   7.320  15.107  14.771 -0.1541  0.0566 -0.2077
25492W        W40623   2.443   1.194  13.052 -0.0906  0.0218  0.1215
25493W        W40624   3.516   5.688   0.793 -0.1323 -0.0431 -0.1864
25494W        W40625   8.479   6.517  14.563 -0.1405  0.2209 -0.0772
25495W        W40626   3.174   1.408  14.680  0.2065  0.2581  0.4607
25496W        W40627  10.740   2.402   0.814 -0.0283  0.0586  0.0335
25497W        W40628   5.955  11.353  14.680  0.0913 -0.4092  0.1195
25498W        W40629   3.205  11.657  11.691 -0.1604  0.3780 -0.0520
25499W        W40630   5.618   7.397   2.287 -0.2252  0.2378  0.0441
25500W        W40631   7.545   0.914  11.213  0.2179 -0.3357 -0.0626
25501W        W40632  11.236   7.211   3.483  0.0010  0.0208 -0.0439
25502W        W40633   1.926   9.297  15.731 -0.0765  0.4160 -0.0972
25503W        W40634  15.711  16.775   0.483 -0.4466  0.1266  0.2121
25504W        W40635   0.658  12.469  11.995 -0.1601  0.0837 -0.1747
25505W        W40636   0.439   5.653   2.971  0.1411  0.0841 -0.3142
25506W        W40637   9.797  11.806   1.049 -0.2003  0.1450 -0.2615
25507W        W40638  16.107   5.654  14.578  0.3087  0.1473 -0.0600
25508W        W40639   9.883   2.396   5.426 -0.1573  0.1892 -0.0013
25509W        W40640  12.839  13.140   4.473 -0.2237 -0.3167  0.0381
25510W        W40641  10.536  15.045  13.566 -0.1549  0.2090 -0.1169
25511W        W40642   8.924   3.115   2.463  0.0911 -0.0028 -0.1058
25512W        W40643   6.708  14.686   2.964 -0.0493 -0.1787 -0.0893
25513W        W40644   7.663   3.904   5.338  0.0929  0.1486 -0.2053
25514W        W40645   2.023  16.262  16.029  0.0737 -0.0590  0.2658
25515W        W40646  10.770   8.145   1.608  0.1753  0.1108 -0.0619
25516W        W40647   0.389  13.560  11.776  0.0299  0.1052 -0.1909
25517W        W40648   5.676   1.527   2.722 -0.2274 -0.0538  0.1610
25518W        W40649  13.998  12.600  11.800 -0.0726 -0.0440 -0.1271
25519W        W40650   3.941   0.751   2.820  0.0689 -0.0963 -0.1252
25520W        W40651  16.794  12.982   1.833 -0.0658  0.0855 -0.3789
25521W        W40652  16.863   3.364  12.709 -0.0344  0.1478 -0.1744
25522W        W40653  16.164   7.915   5.193 -0.2397  0.2076  0.1757
25523W        W40654   5.373  13.308  14.774 -0.0478 -0.1285 -0.1441
25524W        W40655   9.684   1.956  13.483 -0.2051 -0.0537  0.1127
25525W        W40656  11.041   9.881  12.296 -0.0846 -0.0076 -0.0828
25526W        W40657   5.479   7.958  15.358  0.0135 -0.3868 -0.1692
25527W        W40658  11.741  13.489   1.787  0.0370  0.0431  0.0618
25528W        W40659  18.066  12.367   0.459 -0.1221  0.3520  0.1030
25529W        W40660  16.827   5.018   0.311  0.1744 -0.2372 -0.2471
25530W        W40661  13.118  11.751  15.763 -0.0760  0.5064 -0.0062
25531W        W40662  14.902  10.366  14.751  0.1075 -0.1604 -0.2292
25532W        W40663  17.944  16.633  13.719  0.0048 -0.1341 -0.1023
25533W        W40664  11.510  15.079  15.782  0.0073 -0.0832  0.1150
25534W        W40665   1.381   6.376  14.797 -0.2005 -0.0411 -0.2394
25535W        W40666   0.161  14.870  12.016 -0.2303  0.0206 -0.0720
25536W        W40667   2.926  15.587  13.487 -0.1360  0.0668  0.1583
25537W        W40668  17.914   1.120  15.338  0.0210  0.0295 -0.0625
25538W        W40669   6.094  11.520   2.272  0.0573 -0.2335 -0.2291
25539W        W40670   2.365  13.076  13.633 -0.2417  0.1555 -0.0603
25540W        W40671  18.046  11.228  15.521  0.2518 -0.1715 -0.1947
25541W        W40672  14.319  16.561   3.762  0.1186 -0.3030  0.0041
25542W        W40673   2.256   4.257  14.887  0.0394 -0.0120  0.0731
25543W        W40674   2.561  15.101  12.694 -0.3578 -0.1445  0.1045
25544W        W40675  16.366  10.221   2.329 -0.0957  0.2542 -0.0800
25545W        W40676   5.408   0.265  11.650 -0.4973  0.3336  0.1075
25546W        W40677   4.122   5.627   1.841  0.1209 -0.0726 -0.2160
25547W        W40678   6.438   0.489   1.370 -0.0080 -0.2987 -0.2994
25548W        W40679   0.786   5.918  13.191  0.2012 -0.2281  0.1877
25549W        W40680   6.693  10.372  12.158 -0.1738  0.0054 -0.0630
25550W        W40681   1.749  10.066  14.259 -0.0343  0.3311  0.0558
25551W        W40682   4.423   2.412   4.261 -0.0006 -0.1738 -0.1918
25552W        W40683  12.408   8.431   5.077  0.2166 -0.2620  0.0003
25553W        W40684  12.492   3.718   3.661  0.0500  0.0264  0.2219
25554W        W40685  14.754   9.876  14.791  0.2657 -0.0774 -0.1792
25555W        W40686   1.470   1.288   5.536 -0.2796  0.1423 -0.0306
25556W        W40687   5.255  16.510  12.916  0.1105  0.3396  0.1047
25557W        W40688   4.258  16.408  11.770  0.0034  0.2520 -0.0566
25558W        W40689   5.067  13.867   4.744 -0.1612  0.1635 -0.1206
25559W        W40690  11.165  14.528   5.077 -0.0568 -0.0553  0.0365
25560W        W40691  14.507  13.401   5.271  0.0036  0.1274 -0.2932
25561W        W40692  15.502  11.059  13.013  0.1770  0.0950  0.0507
25562W        W40693   7.514  16.873   3.664 -0.0100  0.0334  0.0306
25563W        W40694  11.580   7.782  15.120  0.0155 -0.0452  0.0878
25564W        W40695  17.460  14.705  14.548 -0.2860 -0.0397  0.2035
25565W        W40696  10.034  14.689  10.990 -0.1710  0.2637  0.1688
25566W        W40697  17.459  17.374  12.020  0.1604 -0.0698  0.2030
25567W        W40698   0.544   1.586   4.273  0.2716 -0.0689  0.4062
25568W        W40699   0.349  10.802   3.207 -0.0678  0.1156 -0.0661
25569W        W40700   5.410  13.784   3.363 -0.2376 -0.1059  0.0068
25570W        W40701   2.928   5.796   0.049  0.2158  0.2146  0.3094
25571W        W40702  17.940  12.658  11.802 -0.0253  0.0486  0.1650
25572W        W40703   1.668   0.805   5.511  0.1396 -0.1535 -0.0406
25573W        W40704  11.132   5.964   3.405 -0.1077  0.4621 -0.1553
25574W        W40705   7.027   5.669  14.852 -0.1615 -0.2005 -0.2886
25575W        W40706   5.971  14.167  11.320 -0.0547 -0.0973  0.1805
25576W        W40707  14.377  17.562  14.554  0.0756  0.0168 -0.0182
25577W        W40708   9.354  13.643   2.126 -0.0727 -0.0841  0.1164
25578W        W40709   0.027  16.784   1.544  0.0922  0.0628 -0.0961
25579W        W40710  13.849  15.787  12.944  0.1264  0.1224 -0.0837
25580W        W40711  17.677  13.716  14.342  0.0144  0.1542 -0.1031
25581W        W40712   7.667  17.749   2.502  0.1210 -0.2249  0.0855
25582W        W40713  15.322   7.681   1.641 -0.2830  0.0805  0.2957
25583W        W40714  14.222  17.927   3.458 -0.0789 -0.3139  0.1622
25584W        W40715  10.000  12.090   2.037  0.1977  0.0983  0.1638
25585W        W40716  16.812  10.434   5.381  0.3235 -0.0547 -0.0206
25586W        W40717   3.120  13.674   0.553 -0.0255 -0.1117 -0.3852
25587W        W40718  16.193  11.783   2.568 -0.3266  0.0279 -0.1374
25588W        W40719   6.030   3.304   2.812 -0.0033 -0.0315 -0.0248
25589W        W40720   5.633   8.380   2.101  0.1088 -0.1648 -0.1003
25590W        W40721   9.008   0.205   4.441  0.2848 -0.0274  0.0925
25591W        W40722   6.576   1.283  13.383 -0.1852  0.0216 -0.1237
25592W        W40723  14.056  15.129   5.084 -0.0765  0.1767  0.1572
25593W        W40724   2.141   6.006  16.062  0.2371 -0.1847  0.3217
25594W        W40725  12.096  13.848  12.815  0.0119 -0.0754 -0.2398
25595W        W40726   5.297   2.352  12.980  0.2014  0.3122 -0.2458
25596W        W40727   3.918   0.430   1.025 -0.0020 -0.0475  0.0317
25597W        W40728   8.629  14.393   1.752 -0.0991  0.0859  0.0707
25598W        W40729   2.132   9.996   0.742 -0.4102  0.2140 -0.3263
25599W        W40730   3.638  14.794   2.446  0.1954  0.0719 -0.1802
25600W        W40731  10.277   8.282  13.838  0.0229 -0.0100  0.4722
25601W        W40732  12.247  15.735   1.160  0.3401 -0.1917 -0.1637
25602W        W40733  13.757   4.752   1.459  0.0352  0.1973 -0.1606
25603W        W40734   4.786  12.376  12.675 -0.1503  0.1572  0.0122
25604W        W40735  16.814   2.395   0.641 -0.1278 -0.2079  0.1026
25605W        W40736   0.350  15.362  10.330  0.1054 -0.0366 -0.1683
25606W        W40737  17.157  17.327  15.434  0.1483  0.0641  0.0080
25607W        W40738   1.742  16.836   5.860  0.0070  0.1020  0.2962
25608W        W40739  17.482   0.030   2.106  0.2278 -0.3863 -0.1549
25609W        W40740  11.922   5.235  14.517 -0.0259  0.0496 -0.3425
25610W        W40741   7.179  10.223   1.487 -0.1375  0.0029  0.1101
25611W        W40742  11.828  12.425  13.807 -0.2030  0.3959  0.2039
25612W        W40743   6.742   7.620   2.856 -0.0020 -0.1364  0.0507
25613W        W40744  14.835   0.718   3.249 -0.1745  0.5198 -0.1932
25614W        W40745   0.909   6.141   1.736  0.0177 -0.1731 -0.0200
25615W        W40746  17.554  15.034  11.669 -0.3617 -0.1436  0.0759
25616W        W40747   4.085   9.114   1.654 -0.1786 -0.1710 -0.0674
25617W        W40748  17.502   9.320   0.419 -0.0773 -0.4223 -0.2582
25618W        W40749  13.831   0.406   1.458  0.1350  0.1986 -0.1642
25619W        W40750   9.235   0.276  11.561  0.0409  0.0510  0.3255
25620W        W40751   0.585   4.916  11.289 -0.0683  0.0993 -0.0592
25621W        W40752  13.302   9.736   0.983 -0.0256 -0.1731 -0.1470
25622W        W40753   1.874  10.903   5.650  0.2041  0.1060 -0.1084
25623W        W40754   1.250   8.884   2.713  0.1590  0.0770  0.3780
25624W        W40755   9.075  12.757  10.917  0.1751  0.3601 -0.0366
25625W        W40756  12.576   7.262  13.011  0.2188 -0.2305  0.1365
25626W        W40757  17.980   2.334   1.410 -0.0410 -0.0771  0.0140
25627W        W40758   8.764   5.439  14.519  0.0066 -0.0402  0.0019
25628W        W40759  14.710   8.595   2.683  0.0607 -0.2712 -0.0776
25629W        W40760   8.039   6.155   4.399 -0.3779  0.1365  0.0188
25630W        W40761  14.562   7.351  12.631 -0.1452 -0.0290 -0.0276
25631W        W40762  14.734  15.819  13.178  0.0282 -0.0930  0.0030
25632W        W40763  12.345   0.046  12.022  0.0941 -0.1144  0.1866
25633W        W40764   1.852  15.248  14.021  0.0261  0.0207  0.1024
25634W        W40765  16.363  17.624   0.187 -0.0047 -0.0706 -0.1992
25635W        W40766   8.077   7.468  12.449 -0.2891 -0.1645  0.1035
25636W        W40767  11.461   5.247   5.876  0.0213  0.1043 -0.0144
25637W        W40768  10.668  10.779  12.920 -0.3424  0.2851  0.0849
25638W        W40769  17.086   3.800  12.882  0.1017  0.4528  0.0845
25639W        W40770   0.181  14.714  13.308  0.3487  0.1043 -0.2485
25640W        W40771  12.221   8.898  14.604 -0.1186 -0.1927 -0.0951
25641W        W40772   2.716   9.813  15.118  0.1910 -0.1385 -0.0222
25642W        W40773   1.199  15.769  16.121 -0.4402 -0.0093  0.3971
25643W        W40774   4.238  17.323  13.410 -0.0847  0.0184 -0.0777
25644W        W40775  10.337   0.180   0.992  0.0713  0.0810 -0.1696
25645W        W40776  15.202   5.337   4.608  0.3206 -0.0322  0.1891
25646W        W40777  14.705   4.490   3.753  0.0812 -0.2551  0.2171
25647W        W40778   1.609   5.457   3.151  0.0747  0.1412 -0.1108
25648W        W40779   2.610   7.514   0.847 -0.2911 -0.1683 -0.0743
25649W        W40780  11.712   5.676   2.628  0.0402 -0.0432 -0.1155
25650W        W40781   2.116   4.796   4.661  0.1613 -0.0936 -0.1147
25651W        W40782   0.376  17.115   3.671 -0.0379 -0.2566 -0.1858
25652W        W40783  10.939  13.014  12.371  0.0692 -0.1137 -0.2439
25653W        W40784  15.501  13.561  13.835 -0.0948 -0.0987  0.1290
25654W        W40785   6.944   1.628   4.477  0.1194 -0.2543 -0.0802
25655W        W40786   9.013   9.174   4.081  0.3633  0.2566  0.0043
25656W        W40787  13.990   9.502  15.921  0.0102 -0.1652  0.0137
25657W        W40788   4.195   5.037   5.609  0.1447  0.0715  0.0550
25658W        W40789   5.209  11.726   4.321  0.0505 -0.0919 -0.1705
25659W        W40790   3.412   2.323   2.739 -0.0262 -0.1370 -0.0219
25660W        W40791  16.986  16.535   5.204 -0.3150 -0.1428 -0.1061
25661W        W40792   7.267   9.891   3.311 -0.1673  0.3225 -0.1559
25662W        W40793   7.947   8.882  11.009  0.0064 -0.1691  0.0403
25663W        W40794   5.488   1.182  15.354 -0.3170  0.2772  0.0266
25664W        W40795  14.725   4.659  12.699 -0.1926 -0.2333  0.2621
25665W        W40796  15.616   8.621  14.069 -0.0051  0.3304 -0.1700
25666W        W40797   3.871  12.473  14.477 -0.2264  0.0716  0.0804
25667W        W40798  10.422  18.089   3.227 -0.0312  0.0962 -0.1066
25668W        W40799   1.784   4.363  12.347  0.3061  0.1647 -0.0034
25669W        W40800   9.578   0.695   0.072 -0.0727  0.0031  0.0705
25670W        W40801  15.099  13.349   2.003  0.1954  0.0213  0.0604
25671W        W40802   5.003   2.913  13.529  0.2526 -0.1518 -0.1106
25672W        W40803   3.202  16.981   0.156 -0.1778 -0.0193 -0.0818
25673W        W40804   1.557   1.363   0.146 -0.1869  0.1170  0.0742
25674W        W40805   9.150  10.989  12.252 -0.0297 -0.0026 -0.0759
25675W        W40806   7.927   3.870  14.411 -0.1884  0.0917  0.2599
25676W        W40807   0.018   1.254  10.992  0.1807  0.0887  0.1243
25677W        W40808   6.578   7.438   5.542 -0.2710  0.0749  0.1140
25678W        W40809  11.680  11.713  11.798 -0.2597  0.2181 -0.0045
25679W        W40810  12.849   9.478   4.268  0.1825  0.2432 -0.0874
25680W        W40811  14.440   5.861  15.347 -0.2849  0.1652 -0.1588
25681W        W40812   5.308   4.990  11.569  0.0515 -0.2343  0.2092
25682W        W40813   3.327   3.003   2.252 -0.1034  0.2717  0.1010
25683W        W40814   9.540   7.444  15.371 -0.0203  0.0714 -0.0639
25684W        W40815   3.115   3.253  13.979 -0.1884 -0.1294  0.2150
25685W        W40816  10.763   2.471   1.302 -0.0846 -0.0152 -0.1359
25686W        W40817   9.903  13.557   0.735  0.1365 -0.0346 -0.1180
25687W        W40818  10.636   5.399   2.578 -0.0865 -0.0122  0.2132
25688W        W40819   3.846  16.224   5.013  0.1493  0.1466 -0.3265
25689W        W40820  10.440  12.627   6.149  0.0906  0.2168 -0.0199
25690W        W40821   2.404   3.860   4.587  0.0565 -0.3346  0.2770
25691W        W40822  10.248   6.607  11.863 -0.1984 -0.0998  0.0412
25692W        W40823   3.892   0.916   0.798 -0.1160 -0.2956 -0.0106
25693W        W40824  11.357   4.327   1.962  0.2532 -0.3759 -0.0088
25694W        W40825   7.465   7.223  11.624  0.0604 -0.0653 -0.0083
25695W        W40826  13.411  10.501  15.972  0.1210  0.1851  0.0127
25696W        W40827  17.731  16.065   1.781  0.2245  0.0242 -0.0068
25697W        W40828   9.118   8.925  11.918  0.1778 -0.0331  0.2119
25698W        W40829   2.175   2.779  12.460 -0.1277 -0.1382  0.2073
25699W        W40830  15.173  10.125   4.539  0.1141  0.1224  0.2555
25700W        W40831   0.250  15.922   4.504  0.2704  0.3193  0.0553
25701W        W40832   0.507   8.217   1.647  0.3498  0.0802 -0.1508
25702W        W40833  14.141   6.520  10.982  0.2279 -0.0956 -0.0973
25703W        W40834  15.167   9.004   3.374  0.2047  0.2742  0.0282
25704W        W40835   1.411   0.499  11.585  0.0379  0.0715 -0.0249
25705W        W40836  12.408   2.256  12.117  0.1987 -0.4759  0.0778
25706W        W40837  11.410   4.406  15.951  0.0198  0.0502  0.2194
25707W        W40838  13.980   5.798   3.097 -0.0435 -0.0856  0.0882
25708W        W40839  12.213  13.561  11.801  0.0711 -0.3215  0.2435
25709W        W40840  17.708  16.030   5.421  0.0195 -0.1931 -0.2640
25710W        W40841   9.128  17.439  11.263  0.1432  0.1148 -0.0407
25711W        W40842   3.071   4.501  11.002  0.0881 -0.0284 -0.1323
25712W        W40843   7.032   4.808   4.172 -0.2263 -0.0093  0.0757
25713W        W40844  11.071   6.761   3.565 -0.1676 -0.0948  0.0152
25714W        W40845  17.608  14.009  11.794 -0.0883 -0.3436 -0.1936
25715W        W40846  15.965   9.059   1.653 -0.3206  0.0387 -0.0282
25716W        W40847  12.933   5.086  11.037 -0.2243 -0.0307 -0.0653
25717W        W40848   6.743   1.164  13.844 -0.0621  0.0880 -0.0093
25718W        W40849   0.354   8.624   3.839 -0.4268  0.0052 -0.0394
25719W        W40850  15.289   0.343   4.397 -0.2677  0.0603  0.0205
25720W        W40851   0.137  16.663   0.637 -0.0984 -0.0711 -0.0682
25721W        W40852   5.518  11.527  15.321 -0.1939 -0.0600 -0.1536
25722W        W40853   6.878   1.143   3.039 -0.0640 -0.1482  0.1768
25723W        W40854   3.991  13.743   4.906  0.2789  0.2528 -0.4314
25724W        W40855  13.521  13.367  12.249  0.0169  0.0850  0.3298
25725W        W40856   9.611   4.265  11.465  0.0281 -0.2643 -0.0236
25726W        W40857   7.007   0.441  11.765 -0.1135 -0.2227  0.0010
25727W        W40858  16.089  14.612   1.666  0.5781 -0.0749  0.2749
25728W        W40859  16.808   9.146  15.696  0.1265  0.0015 -0.1627
25729W        W40860  11.820  16.785   3.706  0.0511  0.0856  0.4118
25730W        W40861   2.433   5.430  14.390 -0.1439 -0.1904  0.2406
25731W        W40862   0.226   6.360   0.511 -0.0895  0.2047 -0.0275
25732W        W40863  16.732   0.954  12.339  0.0376  0.2612 -0.0789
25733W        W40864  17.411   2.027   4.873 -0.0370  0.3452 -0.0387
25734W        W40865  14.305  17.071   2.168 -0.0451  0.2401  0.1059
25735W        W40866   0.833   1.728  11.015 -0.0839 -0.1821 -0.2673
25736W        W40867  14.334   8.705   2.386  0.0139 -0.0494 -0.0913
25737W        W40868  11.783   7.115   3.624 -0.1487 -0.0202 -0.0127
25738W        W40869   8.876  15.639  13.394  0.1881  0.6263  0.0023
25739W        W40870   0.098   4.240   1.454 -0.0203 -0.1674 -0.1746
25740W        W40871  11.952   0.604   5.231  0.3680 -0.0746  0.2696
25741W        W40872  15.018  10.124  12.100 -0.3527 -0.0289 -0.0065
25742W        W40873   0.124  11.051  12.728 -0.2412  0.0600  0.2859
25743W        W40874  17.276  17.473   0.900  0.1357 -0.5003  0.0727
25744W        W40875  12.228   8.660  15.076 -0.1128 -0.1625  0.1735
25745W        W40876  12.739  13.598  11.723  0.0058 -0.0170 -0.0885
25746W        W40877   4.914  10.965   4.807 -0.2543 -0.1383  0.0294
25747W        W40878   1.795   8.937  13.709  0.1642  0.0304 -0.1628
25748W        W40879   7.231   7.652  16.029  0.3227 -0.1109 -0.0997
25749W        W40880   7.622   4.493  14.730 -0.1069 -0.1500 -0.0417
25750W        W40881  15.721   4.869   1.284  0.0095  0.0758 -0.0202
25751W        W40882  17.417  16.455   3.131 -0.2238  0.1291  0.3014
25752W        W40883   8.174  17.085   0.151  0.2388 -0.0978  0.2199
25753W        W40884  12.194   7.990  14.348  0.0970  0.1653  0.0816
25754W        W40885   0.826  15.956  15.077 -0.1197  0.1402 -0.2844
25755W        W40886   8.556  13.576   3.657  0.2948 -0.0976  0.0547
25756W        W40887   9.245  10.652   1.420  0.0835  0.1275 -0.2324
25757W        W40888   9.801   1.887   2.311 -0.1895  0.0590 -0.0401
25758W        W40889  11.966   2.511   0.113  0.1418 -0.1192 -0.4614
25759W        W40890   5.623   2.241   4.505 -0.1528 -0.0345  0.2562
25760W        W40891   5.863  17.754   4.634  0.0627  0.1315 -0.1773
25761W        W40892  17.320  14.451  15.269 -0.2031  0.4407  0.1902
25762W        W40893   0.488   5.574  12.941 -0.2058  0.1088 -0.0035
25763W        W40894  14.705   8.382  14.789 -0.3674 -0.0318 -0.2751
25764W        W40895  15.110  14.748  10.228  0.2310  0.1443  0.1848
25765W        W40896   5.962   2.445   4.199 -0.0663 -0.2213  0.0618
25766W        W40897   2.490   4.969   3.853 -0.1805 -0.0866  0.0132
25767W        W40898   2.282   9.194  14.530  0.3704  0.1755 -0.0653
25768W        W40899  16.333  15.433  14.806 -0.3151  0.2653 -0.2311
25769W        W40900  11.991   9.940  16.079  0.1064 -0.1641 -0.1885
25770W        W40901   2.003  10.596   1.399 -0.1533 -0.2176 -0.0071
25771W        W40902   5.408  11.329  10.404 -0.2135  0.0675  0.2429
25772W        W40903   4.956  13.966   0.154  0.2747  0.2056 -0.1706
25773W        W40904  16.469   2.002  10.918 -0.2980  0.1327 -0.2272
25774W        W40905   1.605  11.077  15.647 -0.2803 -0.0486 -0.2597
25775W        W40906  17.362   6.250   4.262 -0.4383  0.0555  0.1113
25776W        W40907  16.628   2.031   2.058  0.1981 -0.0065 -0.2307
25777W        W40908  10.828   1.070  12.313  0.1018 -0.0029 -0.1620
25778W        W40909   9.038  12.471   3.771 -0.1800 -0.1140  0.0003
25779W        W40910   4.147  11.144  10.349 -0.0912  0.0009 -0.0917
25780W        W40911   4.341   7.757   2.587  0.0942  0.0707  0.1716
25781W        W40912   4.446  14.702  12.920  0.0625  0.0931 -0.1712
25782W        W40913   6.696   4.230  11.594 -0.0144  0.1322  0.0564
25783W        W40914   3.772   1.941  14.761  0.1947  0.0270  0.3250
25784W        W40915   7.970  15.149  12.309 -0.0419 -0.1042 -0.1070
25785W        W40916  10.168   2.608   5.095  0.1538 -0.3310  0.0322
25786W        W40917   7.676  11.213  12.453 -0.1978  0.1996 -0.1855
25787W        W40918   6.902  12.994   3.138 -0.2989 -0.1725  0.3759
25788W        W40919  17.734   1.349   4.727 -0.3484  0.0707 -0.1552
25789W        W40920  16.703  12.259  12.203  0.1465 -0.1149  0.2288
25790W        W40921   4.409  17.240   1.880 -0.1883  0.3910 -0.3503
25791W        W40922   4.466   1.597   4.899  0.0086 -0.0052  0.3858
25792W        W40923   0.916   8.610  13.898 -0.0046  0.2707 -0.1788
25793W        W40924  13.797   9.259   5.368  0.0539  0.2049 -0.0935
25794W        W40925   7.839  15.272   5.924 -0.3417  0.1531 -0.1118
25795W        W40926   0.337   6.204  13.040 -0.2114 -0.0430 -0.0860
25796W        W40927   7.300  13.950  12.174  0.3935 -0.1529  0.0003
25797W        W40928  13.997   0.838   5.496  0.1115  0.0456 -0.0036
25798W        W40929   8.502   7.559  14.717  0.0305  0.2273 -0.1293
25799W        W40930  12.394   8.880   0.168 -0.3743  0.0151  0.1465
25800W        W40931   8.663   9.179   0.195 -0.0081  0.1355 -0.1534
25801W        W40932   5.336   7.095   0.283  0.0121 -0.0231 -0.3898
25802W        W40933  17.760  14.619   4.239 -0.1448  0.1137  0.0176
25803W        W40934  13.827   7.604   2.130  0.2143 -0.3047 -0.0562
25804W        W40935  10.707  14.988  13.063  0.1860 -0.2696 -0.0600
25805W        W40936  11.650  15.522  15.020 -0.1515 -0.0429  0.4226
25806W        W40937   0.736  15.810  11.531  0.3345 -0.0047 -0.0647
25807W        W40938   8.863   0.541   5.739 -0.0531 -0.0396 -0.0195
25808W        W40939   1.322   7.669   0.163  0.0208 -0.2119  0.3177
25809W        W40940   9.084   3.243   0.977  0.0276 -0.1422 -0.1058
25810W        W40941  17.813  10.042  16.230  0.0854  0.2036 -0.1121
25811W        W40942  16.551   5.514   0.798 -0.0050  0.2382  0.1684
25812W        W40943   9.451   5.908   4.206 -0.2087  0.2326 -0.1638
25813W        W40944   5.720  12.972   2.535 -0.0849  0.0349 -0.0992
25814W        W40945   4.311  10.705  15.434 -0.1076  0.2272  0.1150
25815W        W40946  14.730   1.918   3.076 -0.0091 -0.1721  0.2399
25816W        W40947   9.356  12.763   1.018 -0.1063  0.0215  0.1896
25817W        W40948   5.202  16.012  12.725  0.0602 -0.0292  0.1408
25818W        W40949  16.099  11.193   1.014 -0.0375 -0.1229 -0.0028
25819W        W40950  16.800   1.363   2.561  0.2755  0.0471 -0.0527
25820W        W40951  10.395  11.297  11.696  0.0787  0.1229 -0.0537
25821W        W40952   6.677   4.196  12.195  0.1031 -0.3068  0.0713
25822W        W40953   9.081  16.110   0.795 -0.0735 -0.1087 -0.1444
25823W        W40954  15.202   1.901   4.612 -0.3056 -0.0710  0.0365
25824W        W40955  15.806   3.471   3.236 -0.1052  0.0886 -0.2042
25825W        W40956  12.381   3.136  15.793  0.2983  0.3099 -0.0876
25826W        W40957   6.391  12.608  10.419 -0.2605  0.1354  0.0060
25827W        W40958   6.230   1.620   3.351  0.1694  0.1373  0.0484
25828W        W40959  17.562   8.217   4.679 -0.2011 -0.1072 -0.0961
25829W        W40960   2.239   5.891   4.808 -0.0699  0.1121  0.0709
25830W        W40961   7.572   3.314   3.998 -0.2626  0.0163 -0.1163
25831W        W40962   4.824  16.401   3.713 -0.2254  0.1035 -0.2014
25832W        W40963  17.813   2.978   2.407  0.0273  0.0176  0.2573
25833W        W40964  16.552  12.513  11.050 -0.0646 -0.0661  0.0845
25834W        W40965  13.045   1.890   4.475 -0.2858  0.0715  0.1019
25835W        W40966   3.864   9.447  11.696 -0.1047  0.2251 -0.0875
25836W        W40967  11.039  10.171  10.370  0.1719  0.2863  0.1748
25837W        W40968   1.613  10.273  15.097  0.0265 -0.4315  0.0151
25838W        W40969   5.431  17.266  12.543 -0.1206  0.0284  0.1444
25839W        W40970  11.395  14.375  15.215  0.0504 -0.0699 -0.0319
25840W        W40971   1.358  15.760  13.460  0.0068  0.0020 -0.2925
25841W        W40972   6.738  17.320   3.763  0.2962  0.1171  0.3063
25842W        W40973   0.590   3.413  13.532  0.1510  0.0219 -0.1006
25843W        W40974  13.319   7.354  11.936 -0.1505  0.1215  0.1115
25844W        W40975   3.273  14.757   3.688  0.0857 -0.0102  0.1546
25845W        W40976   6.684   5.709   5.047 -0.3425  0.1287 -0.1703
25846W        W40977   5.229  12.104   1.314 -0.0576 -0.0164 -0.1050
25847W        W40978   7.486   0.550   2.564  0.3442  0.1858 -0.1768
25848W        W40979  15.055  14.112   0.919 -0.1680  0.0682  0.1547
25849W        W40980   0.623   4.556   6.097 -0.2897  0.1936  0.0773
25850W        W40981  16.182   3.952   4.407  0.2492  0.1192 -0.4012
25851W        W40982  16.518  12.980   3.837 -0.0412  0.1397 -0.1048
25852W        W40983  14.743   6.795   5.017  0.0365  0.1241 -0.1397
25853W        W40984  17.310   6.538  10.604  0.2896  0.1562 -0.1048
25854W        W40985  14.887   5.976   5.264  0.2157  0.1866  0.0703
25855W        W40986  12.842   2.356  11.883 -0.1220 -0.0613 -0.0503
25856W        W40987   8.311  11.547  13.198  0.2056 -0.3233 -0.1017
25857W        W40988   9.371   2.475  15.731  0.1090 -0.0082  0.1003
25858W        W40989  12.554  13.454  14.657 -0.0711  0.1169 -0.0575
25859W        W40990  15.934  10.984   1.445 -0.0341 -0.1086 -0.3885
25860W        W40991   1.158  17.494   0.198 -0.0228  0.1198  0.0263
25861W        W40992   3.255   9.378  13.612  0.0009  0.0759  0.1224
25862W        W40993   4.800  10.037   5.018 -0.1184  0.1735  0.0752
25863W        W40994  17.179  17.659  13.404  0.1382  0.4509  0.3051
25864W        W40995  17.543  13.799  10.978  0.1169  0.1659  0.1051
25865W        W40996   9.254  13.432  10.361  0.1612 -0.1389  0.1153
25866W        W40997   9.078  14.043  15.664  0.0790  0.1802 -0.1518
25867W        W40998  11.854  16.437  12.884  0.1771  0.2330 -0.2665
25868W        W40999  12.619   7.708   2.844  0.1489 -0.4696 -0.0171
25869W        W41000   1.721   3.209  11.135  0.0127  0.2694 -0.0856
25870W        W41001   1.369   0.379   3.099 -0.1471 -0.2061  0.1950
25871W        W41002   9.932   9.100   5.643 -0.0503 -0.1568  0.1048
25872W        W41003   5.335   3.370   2.168  0.1232  0.1118 -0.1306
25873W        W41004  10.573  16.896  14.496 -0.3471 -0.1138 -0.3578
25874W        W41005  17.085  16.340   0.701 -0.2241  0.0295  0.0692
25875W        W41006   5.717   1.188   1.149 -0.2112 -0.1739  0.0145
25876W        W41007   7.280   3.587   0.045 -0.2429 -0.0845 -0.0056
25877W        W41008  15.854   3.401  14.020  0.1147 -0.1281 -0.2646
25878W        W41009   3.256  17.933  15.165 -0.1677 -0.0850  0.3300
25879W        W41010  10.824  13.856  15.642 -0.2572  0.1814 -0.0422
25880W        W41011  14.437  12.748   0.951 -0.1845 -0.1369 -0.1457
25881W        W41012   4.236  11.320   4.597  0.2346 -0.1322 -0.4037
25882W        W41013  16.419   6.741   3.109 -0.0396  0.3315 -0.0591
25883W        W41014   8.019   0.226  12.570  0.1172  0.1978 -0.1216
25884W        W41015   4.805   0.041   4.068  0.0901  0.2299 -0.0905
25885W        W41016   5.507   8.677   0.739  0.1248  0.0988 -0.1472
25886W        W41017   7.202  14.964   0.299  0.2448  0.2194 -0.2663
25887W        W41018  13.789   6.490   2.822  0.1977 -0.1741 -0.1917
25888W        W41019  14.106   6.954   1.608 -0.0173  0.1643  0.1370
25889W        W41020  16.977  17.564  12.086 -0.0155 -0.2567 -0.0366
25890W        W41021   1.349   5.140  13.245  0.0059  0.1200 -0.3735
25891W        W41022  10.192   3.765  14.480  0.1969 -0.0599 -0.0490
25892W        W41023  11.312   8.044   5.669  0.2041  0.0361  0.3540
25893W        W41024  15.080   9.802   5.318 -0.0758 -0.1846 -0.1276
25894W        W41025   1.258  15.955   1.020  0.5158 -0.0160 -0.1295
25895W        W41026  17.197   2.737  10.895  0.0498  0.0221  0.1635
25896W        W41027  15.482   2.351   4.667  0.0052  0.1187  0.2530
25897W        W41028  13.757  12.527   5.946  0.2020 -0.3885  0.1649
25898W        W41029   9.420  14.062   3.173  0.1773 -0.0541 -0.2376
25899W        W41030   4.372   1.684   2.441 -0.0467  0.1432 -0.0564
25900W        W41031  14.937   6.021  11.267  0.2107  0.2777 -0.0144
25901W        W41032  10.714  12.922   3.115 -0.2647  0.1572 -0.1073
25902W        W41033  12.308  10.073   2.650 -0.3483 -0.1069  0.4559
25903W        W41034  16.753  16.846  13.677  0.0246  0.1870 -0.0319
25904W        W41035   7.812   2.389  16.067 -0.2557  0.0074 -0.0379
25905W        W41036   6.373  17.963   5.427 -0.2557  0.3622 -0.1986
25906W        W41037   2.845   9.506   3.897 -0.0817 -0.2720 -0.2696
25907W        W41038  13.006   5.858   1.542  0.0117 -0.4390  0.1460
25908W        W41039   2.138   3.458  14.681  0.3668  0.0097  0.2280
25909W        W41040   1.888  13.539  15.356  0.2790  0.1474 -0.4751
25910W        W41041   5.611   3.004   2.931 -0.0412 -0.3167 -0.0550
25911W        W41042   9.138   4.643  11.897 -0.0396 -0.0439 -0.2424
25912W        W41043   2.599  15.692  11.684 -0.0411  0.0512  0.1177
25913W        W41044   8.515   5.627   5.375 -0.0423 -0.0250 -0.1116
25914W        W41045   9.983   4.638   0.559 -0.0495  0.2398  0.3434
25915W        W41046  12.869  15.129  13.367 -0.3454  0.0282  0.3315
25916W        W41047   0.216  10.258   4.777  0.0308  0.0089 -0.0149
25917W        W41048   2.007   8.564   4.942  0.0782  0.0856  0.2600
25918W        W41049   9.888   4.420  14.835 -0.1354  0.0290 -0.1252
25919W        W41050  14.008  15.446   4.409 -0.0028  0.4311  0.4248
25920W        W41051   8.600  16.675   0.489 -0.2054  0.3078  0.1365
25921W        W41052   3.344   7.380   4.111 -0.1261  0.3617 -0.3106
25922W        W41053   4.426  14.611   0.532 -0.0573 -0.0445 -0.1859
25923W        W41054   4.621   4.238  16.204 -0.2616 -0.1954 -0.0953
25924W        W41055   8.609   0.154   3.678  0.1001  0.1483 -0.0116
25925W        W41056  16.383  16.785  14.507  0.1759  0.0546 -0.0087
25926W        W41057  15.980   5.554  14.068 -0.2643  0.0097  0.0988
25927W        W41058   7.112  17.947  12.996 -0.2135 -0.0192  0.0662
25928W        W41059   8.331  13.737  11.339 -0.1797 -0.0996  0.0004
25929W        W41060   3.368  16.089   5.216  0.1507 -0.0490  0.3082
25930W        W41061   1.553   8.445  14.617  0.1007  0.2221 -0.0142
25931W        W41062   2.362  17.841  12.095 -0.1911 -0.0590  0.2135
25932W        W41063   9.801  15.596   4.149 -0.0806 -0.0904  0.1877
25933W        W41064   9.226  14.754  11.524 -0.1655 -0.3422  0.0276
25934W        W41065   5.379   8.180   4.012  0.0557  0.1195  0.2573
25935W        W41066  15.362  14.302  10.024 -0.0990  0.2650 -0.2601
25936W        W41067  16.739  13.407  11.484  0.1968 -0.0359  0.0044
25937W        W41068   0.940   3.406  11.467  0.1695 -0.0526  0.0302
25938W        W41069   9.226  12.960  14.686  0.1090  0.1046 -0.2061
25939W        W41070   5.348  16.259   0.423 -0.0680  0.2304 -0.2559
25940W        W41071  14.145  17.255  12.099  0.1293 -0.2463  0.0052
25941W        W41072   2.095  11.895  14.230 -0.3456  0.0931  0.1312
25942W        W41073   6.068  18.060  14.506  0.1470  0.0950  0.2084
25943W        W41074   6.582   3.283  12.537 -0.0218 -0.0198  0.0628
25944W        W41075   4.903   3.499  15.665 -0.3176  0.1243  0.2666
25945W        W41076  12.831  10.223  14.308 -0.2987 -0.0257  0.0270
25946W        W41077  15.493   7.894   5.572  0.0884 -0.0835  0.3457
25947W        W41078  11.629  14.474   4.923 -0.0364  0.0362 -0.0858
25948W        W41079   5.500  18.024  14.540  0.1196 -0.1028 -0.0616
25949W        W41080   9.845   0.486   9.782  0.0749 -0.0241 -0.2869
25950W        W41081  12.320  10.938   1.522  0.1166  0.2673 -0.0298
25951W        W41082   7.763   7.313   3.427 -0.1075 -0.3736 -0.0411
25952W        W41083   4.241  15.508   4.389  0.3718 -0.1311  0.1829
25953W        W41084  11.007  10.387   0.605 -0.1564 -0.1181 -0.2067
25954W        W41085   9.323  10.847  15.268  0.2714 -0.2009  0.0048
25955W        W41086   0.077   1.108  11.992 -0.0889  0.0445 -0.0485
25956W        W41087  18.095  12.289  11.454 -0.2293  0.0096  0.3443
25957W        W41088   6.567  15.833  13.404 -0.3545 -0.1124 -0.1066
25958W        W41089  10.424  16.614   4.120 -0.1320  0.1740  0.1388
25959W        W41090  11.551   4.263   2.460  0.3535 -0.1489  0.1514
25960W        W41091  13.155  12.719   3.452  0.0364 -0.0629 -0.1663
25961W        W41092  13.353   1.126  11.023  0.0178 -0.1923  0.2419
25962W        W41093  15.273   4.643   4.545  0.2059 -0.2642 -0.1176
25963W        W41094   5.571   3.198   3.377 -0.0026  0.0170 -0.0357
25964W        W41095   2.038  10.053  11.978  0.1848 -0.0060  0.0288
25965W        W41096   4.617  14.864   5.910 -0.0921  0.0432 -0.2241
25966W        W41097  11.848   8.129  12.168  0.0352 -0.0698  0.3216
25967W        W41098   3.074   2.435   2.233 -0.1861  0.0192 -0.0818
25968W        W41099  15.495   3.570   0.124  0.2242  0.1307 -0.0762
25969W        W41100  14.338  10.364   5.661 -0.1977 -0.2499  0.0349
25970W        W41101   2.534   3.852  14.947  0.0479  0.1017  0.1044
25971W        W41102  13.551  13.254  15.120 -0.2569  0.0307 -0.0491
25972W        W41103  16.440   2.103   3.696  0.0471  0.2701  0.1475
25973W        W41104  11.829   8.744  10.938  0.2745  0.3222 -0.0955
25974W        W41105  14.813  16.657   3.462  0.2289  0.0191  0.1047
25975W        W41106   8.163  14.914   0.035 -0.0414  0.0786  0.0620
25976W        W41107  14.067  16.710   2.397 -0.0598  0.0816 -0.2198
25977W        W41108  12.024  17.168  14.070  0.0837  0.0064  0.1861
25978W        W41109   4.505   4.563  13.252 -0.0027 -0.1652  0.0491
25979W        W41110   3.645  10.377   3.765 -0.1265 -0.1614  0.1660
25980W        W41111  15.961  17.857  13.799  0.0863  0.0666  0.0194
25981W        W41112  16.964   6.959  14.820  0.3387  0.1737 -0.1818
25982W        W41113  12.601   4.126   3.981 -0.0443 -0.2282  0.1044
25983W        W41114  13.949   3.160   5.231  0.1134  0.0752  0.2639
25984W        W41115  15.952  10.968   5.058  0.0354 -0.0002  0.0853
25985W        W41116   8.815  16.046  13.677  0.0511  0.0620 -0.1996
25986W        W41117   8.129   7.708   1.557 -0.2595 -0.0892 -0.0607
25987W        W41118   1.029  10.929   1.604  0.0123  0.2192  0.0645
25988W        W41119  13.060  14.445  13.862 -0.0028 -0.0444  0.2040
25989W        W41120  16.923  16.347  14.731 -0.0786  0.1958  0.0968
25990W        W41121  14.216  15.288  11.448  0.0703 -0.2219  0.1510
25991W        W41122  12.695   2.726   4.089  0.0698 -0.2316 -0.4384
25992W        W41123  12.612  11.660   1.664 -0.1762  0.0456 -0.1392
25993W        W41124  17.013   0.673  12.741  0.0228  0.2245 -0.2233
25994W        W41125   6.862  15.373  14.923  0.3520 -0.2006  0.1115
25995W        W41126  12.486  17.654  15.951 -0.0820  0.2170  0.3037
25996W        W41127  10.626  16.428   5.285  0.3446  0.1993  0.0630
25997W        W41128  14.940   6.664  15.400  0.2340 -0.1699 -0.1637
25998W        W41129  14.225   9.730   2.301 -0.0791 -0.0120  0.0504
25999W        W41130  17.970   6.792  14.154  0.3303  0.1166  0.0303
26000W        W41131  17.054  12.183   3.586 -0.0372 -0.1161  0.0316
26001W        W41132   8.419   8.385   2.909  0.1254  0.1204 -0.0223
26002W        W41133  10.821   0.539  14.976  0.2218  0.0716 -0.2737
26003W        W41134  14.487   5.080  14.067  0.0503  0.0804  0.0595
26004W        W41135   8.090   5.283  12.729 -0.0500  0.1797 -0.0393
26005W        W41136  15.786  15.836  14.514  0.2774 -0.0149  0.1248
26006W        W41137  15.835   3.538  14.519  0.5506 -0.0559 -0.0331
26007W        W41138   2.490   6.398  16.013 -0.0108 -0.3763 -0.2036
26008W        W41139   0.660  11.109  16.235  0.1900 -0.0779 -0.1353
26009W        W41140   4.773   5.170  13.944 -0.0808  0.3477 -0.2681
26010W        W41141   9.869   8.194  14.492  0.0926  0.1379 -0.0635
26011W        W41142   0.170   0.524   3.538 -0.2697 -0.2142 -0.1648
26012W        W41143  12.862   9.352   1.304  0.1127  0.1480  0.2033
26013W        W41144   3.404   6.851   1.822  0.1218 -0.0112  0.0593
26014W        W41145   8.047   0.804  14.967 -0.4707  0.3137 -0.1222
26015W        W41146  13.216   2.232   1.056 -0.1780  0.1210 -0.0121
26016W        W41147  14.527   1.477  16.070 -0.0367  0.0615  0.0761
26017W        W41148   8.974   1.899   1.067  0.0098  0.0246 -0.0743
26018W        W41149  14.302   5.589  14.075 -0.1222 -0.1411 -0.0024
26019W        W41150  10.322   1.603  12.807 -0.1300 -0.0212  0.0084
26020W        W41151  13.320   9.200   5.172  0.0725 -0.1370 -0.0187
26021W        W41152   3.059  15.216   4.488 -0.3544 -0.1322 -0.0339
26022W        W41153  11.282  12.020  12.862 -0.2554 -0.0274 -0.1502
26023W        W41154   7.207  15.037   0.862  0.3805  0.0917 -0.0469
26024W        W41155  16.674   3.753  10.133  0.0096  0.3312  0.0289
26025W        W41156   8.963  16.237  12.637  0.2581 -0.0272 -0.0708
26026W        W41157  17.176   8.750   2.544  0.0902 -0.1780  0.0968
26027W        W41158   9.843   3.300   1.361 -0.0396 -0.0497 -0.0988
26028W        W41159   4.677  10.142  13.636  0.0376 -0.1970  0.2532
26029W        W41160   4.569  16.992   4.791 -0.0264 -0.2010 -0.0037
26030W        W41161   8.740   1.833  13.897  0.0490  0.1073 -0.1016
26031W        W41162   6.548   4.986   4.537 -0.3107 -0.0557 -0.0882
26032W        W41163  12.025  16.245  11.317 -0.0576 -0.1044  0.0692
26033W        W41164   8.998   5.928  14.624 -0.1951  0.1308 -0.0917
26034W        W41165   9.508   5.450  12.036 -0.0022  0.0566 -0.1048
26035W        W41166  16.339  15.141   3.532  0.0062  0.2115 -0.3017
26036W        W41167  12.192   6.035  12.172 -0.0596 -0.2679  0.3939
26037W        W41168  11.893  14.600   1.212 -0.2803  0.1011  0.0445
26038W        W41169   3.177  12.891  13.813 -0.2824 -0.0273  0.1322
26039W        W41170   9.575  13.861  10.458  0.0622 -0.0362 -0.1459
26040W        W41171   9.855  10.974  14.274 -0.1303  0.0638  0.1906
26041W        W41172   1.836   5.176  16.002  0.0932 -0.1248 -0.3816
26042W        W41173   3.733  16.870   2.396 -0.0110  0.1308  0.0335
26043W        W41174  12.693   9.217   0.401 -0.1484 -0.0522  0.3176
26044W        W41175   8.241   3.611  15.218  0.0239  0.0793 -0.0388
26045W        W41176   2.842   5.885   5.596 -0.0851 -0.2289 -0.0205
26046W        W41177  10.751  17.778  11.016  0.1154  0.1480  0.1022
26047W        W41178   3.454   8.677   0.312 -0.0402  0.0880 -0.0061
26048W        W41179  13.344  16.586  11.194 -0.1686  0.0613 -0.0024
26049W        W41180   7.220   2.955  14.038 -0.0638 -0.0432 -0.0836
26050W        W41181   1.068   0.561  12.194  0.1017 -0.1415  0.1182
26051W        W41182  10.337   3.471  12.936  0.0281  0.2905 -0.0463
26052W        W41183  14.548   0.552  14.279 -0.2119  0.0964 -0.1294
26053W        W41184  13.915   0.598   0.072  0.2194 -0.2729  0.0793
26054W        W41185   4.265   8.024   0.797  0.0701 -0.1082 -0.0768
26055W        W41186   0.567  14.489  13.039  0.1313 -0.1877  0.1058
26056W        W41187   0.581  14.033  10.913  0.1938 -0.2048  0.1794
26057W        W41188   8.549   2.050   1.823 -0.4466 -0.1970 -0.1717
26058W        W41189  13.715  16.842  15.931  0.1140 -0.1751  0.3460
26059W        W41190   8.871  13.520   4.973  0.1238  0.1515 -0.1047
26060W        W41191  11.236   8.076   0.434  0.1031  0.0408  0.0480
26061W        W41192   9.906  12.516   4.013  0.2060  0.3068 -0.1193
26062W        W41193  11.203   3.127   0.382  0.0553  0.3013 -0.3904
26063W        W41194   4.619  13.749   1.245  0.1216  0.2768 -0.2584
26064W        W41195   6.753  10.031  12.525  0.0043 -0.2660  0.0654
26065W        W41196  12.083  13.503   3.036  0.0608  0.1790  0.1585
26066W        W41197  10.326   1.220  13.326 -0.1223 -0.0495 -0.0666
26067W        W41198   0.645   1.237  14.530  0.2449 -0.0032 -0.0382
26068W        W41199   8.037   7.479   4.188  0.2625 -0.1873 -0.0594
26069W        W41200  17.281  10.007   3.358  0.0938 -0.1685  0.0976
26070W        W41201   7.939  11.510   5.640  0.1701  0.0924 -0.2455
26071W        W41202   7.868   2.227   3.537 -0.2352  0.0048  0.2611
26072W        W41203  14.162   0.983  16.050 -0.1462 -0.1103 -0.0303
26073W        W41204  10.614   5.539   5.146 -0.0904  0.1262  0.0126
26074W        W41205   4.543   8.365  11.655 -0.0979  0.1230  0.1913
26075W        W41206   8.793   5.824  12.506  0.3279  0.0772  0.0102
26076W        W41207   6.306   7.729   0.811 -0.0252  0.1058 -0.1452
26077W        W41208   7.307   7.074   3.574  0.1677 -0.1939  0.2416
26078W        W41209   5.582  16.720   3.881  0.1289  0.2064 -0.0247
26079W        W41210  16.034  10.463  13.527 -0.3274 -0.0539 -0.0017
26080W        W41211   0.602   9.905  14.118 -0.0101  0.1188 -0.1036
26081W        W41212  13.876   4.983  10.984 -0.1598 -0.1112 -0.0146
26082W        W41213  16.844  15.509  12.383 -0.0500 -0.0070 -0.0498
26083W        W41214   1.079   5.405  14.987  0.0001 -0.0340  0.3366
26084W        W41215  14.163  17.591  11.505 -0.2198 -0.1197  0.1363
26085W        W41216  17.069   8.917   6.067 -0.1367  0.1343 -0.1838
26086W        W41217  11.525   2.388  15.098  0.4548 -0.0508  0.0695
26087W        W41218  18.092   6.709  15.923  0.1463 -0.1251 -0.0434
26088W        W41219   2.390   3.816   5.080 -0.0437 -0.0720  0.0149
26089W        W41220   7.653   1.164  13.469  0.1425  0.1441  0.2089
26090W        W41221   9.068   0.522   0.041  0.2395  0.1351  0.2721
26091W        W41222   6.484   7.628  16.134  0.1222 -0.1152  0.0614
26092W        W41223   7.541   1.919  15.596 -0.0881  0.3409 -0.2047
26093W        W41224  16.668  12.525   2.643 -0.0463  0.0571 -0.0230
26094W        W41225   8.526  13.857   1.174 -0.1116 -0.0139 -0.1503
26095W        W41226  13.894  12.580   2.110 -0.1079 -0.0032  0.1969
26096W        W41227  16.966   3.611   0.687 -0.3322  0.2740 -0.0735
26097W        W41228  12.873   4.449  16.188  0.0611 -0.0297  0.1434
26098W        W41229  12.278   7.149   4.635 -0.4521  0.2515 -0.2035
26099W        W41230  14.534   2.273  11.726 -0.0296 -0.1131  0.1559
26100W        W41231   8.308   8.437   1.583  0.0263  0.0278 -0.3899
26101W        W41232   6.730  15.150   3.884  0.0539  0.1888 -0.2428
26102W        W41233  13.421  13.036  15.777 -0.0838  0.2493 -0.1422
26103W        W41234   8.168   0.107  13.102  0.1253 -0.0016  0.1871
26104W        W41235  11.877   7.661   1.009 -0.0913  0.1268 -0.1297
26105W        W41236  12.220  13.534  12.517  0.1992  0.3314  0.2100
26106W        W41237   9.211  16.420  15.870  0.0113  0.0769 -0.2100
26107W        W41238   8.515  12.984   0.795 -0.1131  0.2779  0.0845
26108W        W41239   8.405   8.201   1.129  0.1252  0.1777  0.1430
26109W        W41240   9.765  15.484   3.160  0.0134  0.1701 -0.2005
26110W        W41241  17.097   5.715   1.485  0.0082  0.0589  0.6301
26111W        W41242   8.972   3.563   2.676 -0.1695  0.2524  0.1581
26112W        W41243  16.207   4.117  12.619  0.0611 -0.1351  0.1422
26113W        W41244  10.509  16.468  13.737  0.0869 -0.0915 -0.1659
26114W        W41245   7.943   5.570   0.973  0.1284 -0.3311  0.1010
26115W        W41246  11.304   5.059  12.284 -0.2827 -0.0625  0.0435
26116W        W41247   0.319   2.950   4.407 -0.0098  0.4336 -0.0153
26117W        W41248   7.051  18.009  13.492 -0.0217  0.1152 -0.0388
26118W        W41249   2.613  18.015   5.618 -0.2413  0.1666  0.0245
26119W        W41250   5.299   2.136   4.844  0.1328 -0.0014 -0.3111
26120W        W41251   1.712   1.864   4.426  0.0155  0.2363  0.2469
26121W        W41252  13.511   5.792   4.281 -0.2021  0.1692 -0.0501
26122W        W41253   3.935  12.092  14.908  0.0116  0.0138 -0.0980
26123W        W41254  12.752   9.470  13.636  0.1935  0.1778 -0.1820
26124W        W41255  10.025   4.329  15.822  0.0736  0.2401  0.2079
26125W        W41256   7.930   2.259   0.608 -0.0045  0.1633 -0.1529
26126W        W41257   3.783  13.517  15.714 -0.1675  0.0900 -0.0858
26127W        W41258   1.683  14.278  11.813  0.2110  0.0041  0.0151
26128W        W41259   4.497  16.574   5.583 -0.1571 -0.0660  0.0840
26129W        W41260   7.829   2.984  12.602 -0.3198 -0.1126 -0.2153
26130W        W41261   4.429   4.982  12.921 -0.0812 -0.0063  0.2267
26131W        W41262  14.052  14.301   3.193 -0.0673 -0.0083 -0.4171
26132W        W41263  17.581  16.772   5.146  0.2657 -0.1302 -0.1712
26133W        W41264   6.148   1.085  10.909  0.0434 -0.2299 -0.3032
26134W        W41265   7.451   3.490   0.938  0.0795  0.1256  0.0144
26135W        W41266   3.935  12.338  10.278 -0.0148  0.2445  0.1436
26136W        W41267  10.516  15.103  16.166 -0.0160 -0.1119 -0.0296
26137W        W41268   9.860   1.054   0.972 -0.3259  0.4632 -0.1460
26138W        W41269  13.184  16.015   2.644 -0.3218  0.1415  0.0266
26139W        W41270   7.294   6.216   0.661  0.1599  0.4155 -0.0438
26140W        W41271   0.999  17.156   1.566  0.1755 -0.0242  0.2379
26141W        W41272  16.050   7.739   4.745  0.2587  0.0940 -0.1454
26142W        W41273   2.200  10.062  12.871  0.0939  0.2152 -0.0579
26143W        W41274  15.356   4.877   3.068 -0.1693  0.2114 -0.2586
26144W        W41275   5.390   7.403   0.742  0.0106  0.3173  0.0683
26145W        W41276   4.030   2.422  14.633 -0.0210 -0.0462  0.0747
26146W        W41277  14.862  15.382   5.024 -0.0438  0.1428 -0.1828
26147W        W41278  17.679  10.288   3.082  0.4598 -0.2654 -0.1861
26148W        W41279   1.399   1.385   0.639 -0.3693  0.4130  0.0188
26149W        W41280  11.339   3.526   0.678  0.0448 -0.0885  0.3776
26150W        W41281  11.931  11.652   5.831 -0.0599  0.0658 -0.0287
26151W        W41282   0.987   8.167   3.353  0.3429  0.3219 -0.1515
26152W        W41283  17.948   1.512  11.961 -0.1233 -0.1877 -0.2035
26153W        W41284   7.980   5.873   3.006 -0.2330 -0.0335  0.0701
26154W        W41285  17.302   0.982  13.056 -0.2440  0.2477 -0.2827
26155W        W41286   3.980   0.409   2.014  0.2694  0.1264  0.2094
26156W        W41287  11.326  15.568  13.690  0.4319 -0.0997  0.0430
26157W        W41288   4.311   1.382  14.092 -0.1825 -0.2008 -0.0095
26158W        W41289  10.721   7.250   3.530  0.1334 -0.1506 -0.1776
26159W        W41290  17.185  12.191  15.124  0.1789  0.2203  0.0779
26160W        W41291   4.425  13.314   3.081  0.2223  0.1350  0.1176
26161W        W41292   9.628  10.946   3.295  0.0377 -0.2026 -0.0102
26162W        W41293  13.475  11.043  16.014 -0.0114 -0.0540 -0.0138
26163W        W41294   2.367   7.850   5.324  0.2120  0.2844 -0.0878
26164W        W41295   6.937  13.660  12.427 -0.1687 -0.0094 -0.0020
26165W        W41296   5.636   5.991  14.817 -0.2851  0.2028 -0.0536
26166W        W41297  10.426   8.914   6.205  0.0859  0.0310 -0.1652
26167W        W41298   0.299  18.087  12.216 -0.1245 -0.2369 -0.3163
26168W        W41299  10.805   3.469  13.829  0.0880  0.0827  0.0560
26169W        W41300   4.146  14.940   3.307  0.0494 -0.0697 -0.0258
26170W        W41301   3.355  15.162  10.796 -0.4310  0.2056  0.0363
26171W        W41302   8.827  13.817  14.279 -0.1083  0.0740 -0.1951
26172W        W41303   7.070  15.385  15.381 -0.2627  0.0019  0.3827
26173W        W41304  16.087   7.173   4.903  0.0586 -0.2664  0.0829
26174W        W41305   4.774   3.237  15.194  0.1070  0.1951 -0.0789
26175W        W41306  14.898   1.585  10.182  0.2358 -0.0774  0.0014
26176W        W41307   3.664   2.449  13.838 -0.0732  0.0612  0.2383
26177W        W41308  11.099  10.440   1.110  0.4389 -0.2523 -0.4096
26178W        W41309   9.306   6.241  13.670 -0.0248  0.0785  0.0540
26179W        W41310  13.951   6.808  14.509 -0.0039  0.1600  0.2267
26180W        W41311  14.107  16.129  16.055 -0.0269  0.4240 -0.1350
26181W        W41312   1.004   0.491   1.516 -0.2724  0.1314 -0.1673
26182W        W41313   8.415  15.529  12.205 -0.0613  0.2730  0.1011
26183W        W41314   4.956   4.594  12.941 -0.0794 -0.1547 -0.0184
26184W        W41315   1.172  10.329  15.356  0.1263 -0.0950  0.1864
26185W        W41316  18.058   7.914   3.490 -0.1465  0.0190 -0.0997
26186W        W41317   5.339  11.580   3.105  0.0410 -0.1657  0.2386
26187W        W41318  11.517   2.933   2.682 -0.2601 -0.0249 -0.0040
26188W        W41319   5.090  16.943   4.856 -0.0836  0.0942  0.2669
26189W        W41320   5.159   2.955  15.367 -0.3127 -0.1389 -0.1180
26190W        W41321  12.338  15.539   3.182  0.1938 -0.0098  0.2691
26191W        W41322  14.108   0.896  12.501  0.0085  0.1735  0.1077
26192W        W41323   8.569  16.592   1.380  0.0153 -0.3137  0.0188
26193W        W41324  12.972  15.116  10.618 -0.1767 -0.0160 -0.0287
26194W        W41325  13.756   7.191  12.124  0.2909 -0.1376  0.2060
26195W        W41326  10.377  15.578  11.636  0.2501 -0.3499  0.0206
26196W        W41327   3.995  17.866   0.415  0.1114  0.0153 -0.0497
26197W        W41328   9.487  11.349   3.584  0.0546 -0.1489  0.0292
26198W        W41329   3.698   4.016  13.282  0.2583  0.0423 -0.2110
26199W        W41330   2.697  16.157   3.475 -0.2131 -0.1384 -0.1384
26200W        W41331   9.146   5.600   1.772  0.1014 -0.1470  0.0050
26201W        W41332  17.971  10.770  15.883 -0.1522 -0.0341 -0.3017
26202W        W41333   4.485   2.048  15.799  0.1970  0.4534  0.0731
26203W        W41334  14.469   4.278  14.123  0.0879 -0.0832  0.0487
26204W        W41335   8.035   0.692   2.282  0.2391 -0.0798 -0.1654
26205W        W41336  17.282  16.834  12.169 -0.0732  0.1013 -0.1360
26206W        W41337   6.432  12.658   1.431 -0.0933 -0.0479  0.1021
26207W        W41338   4.291  16.337   1.714 -0.0139 -0.0330  0.0081
26208W        W41339   9.931   8.980   1.629 -0.0935  0.0465  0.4590
26209W        W41340   9.262  11.880   1.289 -0.0987 -0.1583  0.1545
26210W        W41341  17.115  16.325  12.182  0.3266 -0.3071  0.0439
26211W        W41342   8.159   9.958  14.170 -0.2135  0.0388 -0.2511
26212W        W41343   3.635   8.653   4.568 -0.1164  0.2077 -0.0250
26213W        W41344   2.447  12.009   2.294  0.4026 -0.1860  0.2256
26214W        W41345  17.235   5.977   0.443  0.0199  0.2221 -0.2075
26215W        W41346   6.397  17.210  12.987  0.1987  0.1933  0.2341
26216W        W41347  13.537   5.218   3.659  0.0993 -0.0754  0.3053
26217W        W41348   6.480   4.415  16.121  0.1831  0.0160  0.0041
26218W        W41349   6.218  17.477  14.171 -0.1863  0.0725  0.1989
26219W        W41350  14.892  11.121  12.365 -0.0487  0.0689 -0.0761
26220W        W41351  13.698  17.999  15.155  0.0119 -0.1067 -0.2483
26221W        W41352  13.686  11.550   5.421 -0.0276  0.0738 -0.0351
26222W        W41353  16.111  12.576   2.717  0.1195  0.5547  0.1511
26223W        W41354  11.729   4.030  15.748  0.0241  0.1095  0.0395
26224W        W41355  13.152   1.968   2.480 -0.1395  0.0260  0.1005
26225W        W41356  13.181  14.497   2.245  0.0047 -0.0095 -0.0695
26226W        W41357  15.055   4.865  16.222 -0.0412  0.1066  0.0757
26227W        W41358   2.135   9.269   0.488 -0.1922  0.0666 -0.0324
26228W        W41359  15.274  16.336   3.026 -0.2640  0.2790 -0.1362
26229W        W41360   7.194   7.058  14.682 -0.1551  0.0933  0.0361
26230W        W41361   5.888   2.713   3.643 -0.2054 -0.0892 -0.2189
26231W        W41362   8.650   1.146  13.089 -0.1227  0.0857  0.2551
26232W        W41363  15.102   2.209   4.270 -0.1755 -0.3422 -0.1769
26233W        W41364  14.438   6.004   1.407  0.0026  0.0099 -0.2375
26234W        W41365   6.401   8.009  12.943 -0.0700  0.1211 -0.1651
26235W        W41366   5.675  11.720  12.104 -0.1396 -0.1150  0.1684
26236W        W41367  14.237  10.291   3.592  0.2670 -0.1850 -0.0092
26237W        W41368  11.691  11.080  15.336  0.1735  0.1795  0.1797
26238W        W41369  17.764  12.282   3.689 -0.2835  0.0789 -0.2770
26239W        W41370   2.081   8.438   3.695 -0.0198  0.1089  0.3853
26240W        W41371   1.107   4.896  16.188  0.0734 -0.1991 -0.1327
26241W        W41372   1.067  13.774   2.279 -0.3289  0.2310  0.3015
26242W        W41373   1.808  16.458  11.276 -0.0723  0.1123 -0.1221
26243W        W41374   0.589   4.046  16.094  0.1708  0.1868 -0.0470
26244W        W41375  10.429  17.304  13.367 -0.0508 -0.0228 -0.2110
26245W        W41376   0.802   3.661   4.987 -0.1828  0.3271  0.3807
26246W        W41377   1.944  15.793   1.655  0.1102 -0.0815  0.1736
26247W        W41378   3.675  10.586   3.113  0.0296  0.0183  0.0895
26248W        W41379   4.671   6.257  10.685 -0.0317 -0.1892 -0.1988
26249W        W41380  18.028   0.625  15.219 -0.3415 -0.0676 -0.0199
26250W        W41381   1.979   4.936   1.632 -0.2728  0.0667 -0.0249
26251W        W41382   5.779  12.812   1.046 -0.3275 -0.1001  0.2695
26252W        W41383   2.571  17.816   3.583 -0.0403 -0.0958 -0.0675
26253W        W41384  14.606   7.327   5.267  0.0404 -0.0720  0.1821
26254W        W41385   4.353   0.748   0.879  0.3515  0.0455  0.3805
26255W        W41386   4.701   4.613  14.007 -0.1055  0.0398 -0.0033
26256W        W41387   3.967  12.185   1.357 -0.1219  0.2739 -0.3129
26257W        W41388   6.346  10.014  12.272  0.1048 -0.0170 -0.0316
26258W        W41389  10.042  12.597  15.729  0.0364 -0.4559  0.1305
26259W        W41390  13.666  15.328  11.161  0.1116  0.0347  0.3190
26260W        W41391  15.463   1.995  11.305  0.1658  0.0221  0.1337
26261W        W41392   8.189  14.107   1.429  0.0784 -0.1163  0.0748
26262W        W41393   7.345   2.901  11.185 -0.0936 -0.0825  0.0259
26263W        W41394  14.392   9.390  12.257 -0.1205  0.2431  0.2444
26264W        W41395   3.326   8.138  14.794 -0.0231 -0.2446 -0.3051
26265W        W41396  14.521   3.473  15.012  0.0436 -0.0267 -0.2471
26266W        W41397  13.883  10.411   3.044 -0.0203 -0.1172 -0.1302
26267W        W41398  12.392  14.863   3.965 -0.3184 -0.0533  0.0304
26268W        W41399   9.964   1.882  14.099  0.1404  0.0322 -0.1157
26269W        W41400   0.048   7.711  13.344  0.0278 -0.0325 -0.2595
26270W        W41401  14.954   8.801  12.454 -0.1854  0.1816  0.1628
26271W        W41402   2.447   1.975   3.395  0.0008  0.2990 -0.1641
26272W        W41403  15.232   6.771   4.850  0.0547 -0.1435  0.2668
26273W        W41404   3.654   5.389   0.414  0.1868 -0.0004  0.0432
26274W        W41405   8.904   2.825   0.690  0.1762  0.1662  0.2940
26275W        W41406  15.694  15.879  10.351  0.1147 -0.0437 -0.1745
26276W        W41407   0.179   5.988   3.813  0.0575  0.0259  0.1751
26277W        W41408   0.026   7.732   2.140 -0.1109 -0.0372 -0.0395
26278W        W41409   6.985   0.475  16.222  0.0360 -0.0831 -0.0888
26279W        W41410   1.095   4.592  12.617  0.1164 -0.0425 -0.0184
26280W        W41411   0.349   2.151   2.086 -0.0680  0.2629 -0.0867
26281W        W41412   2.714  10.486   0.082 -0.3955  0.0063  0.1007
26282W        W41413  17.240   4.866  14.497 -0.0977  0.1656 -0.1747
26283W        W41414  16.900  12.587  11.836 -0.0587 -0.0999  0.0517
26284W        W41415  11.039   3.420  11.354  0.3534 -0.2126  0.2015
26285W        W41416   8.851   0.467  14.148 -0.0433 -0.2933 -0.0765
26286W        W41417   3.153   7.072   0.372 -0.2460 -0.2153 -0.0289
26287W        W41418   2.642  15.632  12.553 -0.0958 -0.1786 -0.0710
26288W        W41419  14.966  12.034   2.781  0.0517  0.0008 -0.0383
26289W        W41420   0.573   2.585  13.551 -0.3104 -0.1570  0.1307
26290W        W41421  12.910   7.291   4.079  0.1315 -0.1217 -0.0810
26291W        W41422   7.629  13.314  11.428  0.0816 -0.2549  0.1983
26292W        W41423   5.772   6.614  15.841 -0.1823  0.0835  0.0295
26293W        W41424   7.418   2.690  12.505 -0.1118 -0.0032 -0.2065
26294W        W41425   5.861   8.569  11.263 -0.1699  0.1023  0.0265
26295W        W41426  11.397   5.394   4.363 -0.0810  0.3653  0.1141
26296W        W41427   0.633   1.750  10.561 -0.1067 -0.0324 -0.1250
26297W        W41428   0.003   3.813   1.232  0.1241 -0.1658 -0.0521
26298W        W41429   6.465  12.012  10.443  0.0216 -0.0106  0.0250
26299W        W41430   4.408  10.797  11.804 -0.1391  0.1273 -0.0481
26300W        W41431   7.670  15.009  13.842 -0.0474 -0.0616 -0.0355
26301W        W41432  16.486  15.015   1.596  0.0255  0.1026 -0.1878
26302W        W41433   5.042   7.881   4.192  0.0636  0.2642  0.0347
26303W        W41434  17.365  13.397  12.386  0.0919  0.0558  0.3283
26304W        W41435  13.657   2.128  12.425 -0.2872 -0.6220 -0.1474
26305W        W41436   0.928   3.361  13.164 -0.3073  0.1358  0.0605
26306W        W41437   5.149   3.913  12.144  0.0878  0.0830  0.2446
26307W        W41438  16.569   0.957   5.854  0.2917  0.3492 -0.0297
26308W        W41439  15.416   6.135   0.167 -0.0629  0.3373 -0.0578
26309W        W41440   2.503  10.677  12.022  0.0682 -0.0446  0.0282
26310W        W41441   7.917   5.361   0.023  0.2292  0.0872 -0.2163
26311W        W41442   2.559  15.961  14.206 -0.0114 -0.2688  0.1512
26312W        W41443  11.382   2.451   2.621 -0.0993 -0.3481  0.0337
26313W        W41444   2.873   9.354  12.671  0.0003  0.2133  0.1777
26314W        W41445   0.968  16.640  13.226 -0.2643  0.1435 -0.2136
26315W        W41446   6.229   8.726  12.055  0.0589  0.2070 -0.0048
26316W        W41447  16.461  17.991   2.797 -0.0709  0.2270 -0.1096
26317W        W41448   6.274  15.059   3.675 -0.1575 -0.1484  0.2970
26318W        W41449  10.742  14.818   3.435  0.0152  0.3828  0.3613
26319W        W41450   3.249   4.599   3.833  0.0876 -0.2617  0.1060
26320W        W41451   3.888   0.818  12.806  0.0532 -0.1603 -0.1508
26321W        W41452  11.165   2.090  13.973  0.0250 -0.1117  0.0170
26322W        W41453  15.452  14.960  11.601  0.0281 -0.1140 -0.2117
26323W        W41454   5.703   4.073  11.287 -0.1344  0.2192  0.1220
26324W        W41455   2.149   9.355  16.223 -0.1268  0.1380 -0.1991
26325W        W41456  10.719   7.386   2.581  0.0927 -0.0780 -0.0190
26326W        W41457   7.507  14.617   5.132  0.1858 -0.0495 -0.1773
26327W        W41458  15.274   3.030  14.700 -0.0337 -0.1910 -0.0244
26328W        W41459  12.900   6.942  15.167  0.1459 -0.1818 -0.0992
26329W        W41460  15.622  14.352  12.215  0.2738 -0.1538  0.1492
26330W        W41461   2.656   0.571   1.771 -0.0894  0.0881 -0.0773
26331W        W41462   2.392   4.424  13.512 -0.0009 -0.0733  0.3033
26332W        W41463  10.007  15.417  10.265  0.0940 -0.0466  0.2823
26333W        W41464  11.398   1.587   2.331  0.2277  0.1731  0.1465
26334W        W41465   5.456  12.965   0.710 -0.1811  0.1042 -0.1656
26335W        W41466   1.351   3.431  11.995 -0.0763 -0.1832  0.0944
26336W        W41467   1.849   1.078  11.822  0.3239 -0.0991 -0.1670
26337W        W41468  11.179  12.928   5.616 -0.1817 -0.2456 -0.1550
26338W        W41469   9.447   9.803   1.453 -0.1807 -0.0223 -0.0018
26339W        W41470  17.466   0.476  11.236  0.0709 -0.1142  0.0747
26340W        W41471   8.154  17.804   4.850  0.1067 -0.1015 -0.2287
26341W        W41472  13.481  13.493   1.471  0.0194 -0.1248 -0.0308
26342W        W41473  16.326   3.987  15.107 -0.1985 -0.1433  0.0433
26343W        W41474  13.834  12.450  14.840  0.1384  0.1228  0.2377
26344W        W41475  13.311   1.545   2.891  0.0034  0.1003 -0.1495
26345W        W41476   1.077   3.403  13.665  0.1803 -0.0338 -0.3606
26346W        W41477  12.226  16.119   4.370 -0.0154 -0.2450  0.0206
26347W        W41478   9.989   0.347   0.101  0.0375 -0.2139 -0.0969
26348W        W41479   2.965   0.384   1.115 -0.2266 -0.3700 -0.0156
26349W        W41480  12.767   7.953  15.121 -0.2783 -0.1484  0.0072
26350W        W41481  11.338   1.013  15.008  0.1134 -0.2170  0.2026
26351W        W41482   8.469   0.730   1.994 -0.2230  0.2534  0.1177
26352W        W41483  18.010   0.728  12.594  0.2014 -0.0721  0.1353
26353W        W41484  14.782   3.875  14.171 -0.1056  0.0427  0.4354
26354W        W41485  12.100   0.258  11.510 -0.0291 -0.0427 -0.2547
26355W        W41486  16.450   4.430   0.498  0.0850 -0.1818 -0.0682
26356W        W41487   8.596  16.613   4.890  0.2532 -0.0316 -0.0348
26357W        W41488   8.297  12.731   0.056 -0.1511  0.0325 -0.2865
26358W        W41489  10.678   8.138  11.348  0.3153  0.0619 -0.4268
26359W        W41490   9.914  17.297   5.517  0.3469 -0.1457 -0.2737
26360W        W41491  15.475  11.343  15.411  0.3327  0.0106  0.0632
26361W        W41492  15.091   8.745   0.332 -0.0764 -0.2085 -0.0059
26362W        W41493  14.457  15.228  12.447 -0.1277 -0.0655 -0.2185
26363W        W41494  11.597  14.360   4.198 -0.1012 -0.4760  0.0106
26364W        W41495  14.175  17.148  15.688  0.0516 -0.2526  0.0640
26365W        W41496  17.789   3.017   5.539 -0.2219 -0.3287 -0.0580
26366W        W41497   9.237  12.713  13.203  0.0119  0.1203 -0.0956
26367W        W41498  10.426  15.744  10.528 -0.1527 -0.1890 -0.1059
26368W        W41499  12.315  17.423  13.024  0.0712  0.0387 -0.0842
26369W        W41500  17.578  14.045   2.437 -0.1135 -0.1463 -0.0597
26370W        W41501   4.472  10.815  13.466 -0.2732  0.0767 -0.2118
26371W        W41502   7.789  14.032  11.934 -0.0588 -0.2766 -0.0306
26372W        W41503  15.433   5.304   2.270  0.3226  0.1782 -0.2137
26373W        W41504  16.282   1.135  12.280 -0.0433  0.0339  0.0911
26374W        W41505   1.241   3.197   4.102 -0.0337  0.1678 -0.0703
26375W        W41506   2.558  15.171  14.491  0.1974 -0.0478 -0.0865
26376W        W41507   1.197  16.911   0.837 -0.2629  0.1917  0.2982
26377W        W41508   2.436   3.195  12.891  0.0932  0.0705  0.1236
26378W        W41509   3.494   5.349  15.773 -0.1319 -0.2521 -0.1353
26379W        W41510  11.502   3.060  11.702  0.0193  0.2216  0.1120
26380W        W41511  13.791  10.917  11.476 -0.0209 -0.2910 -0.0912
26381W        W41512   9.394   6.981  15.476  0.1328 -0.0464  0.0241
26382W        W41513  13.596   7.645  12.199 -0.1087 -0.0491  0.2982
26383W        W41514   4.795  16.790  12.702 -0.0490  0.0246 -0.1241
26384W        W41515   9.788   7.373  13.824 -0.3300 -0.1633  0.2249
26385W        W41516  12.954   2.942   2.168  0.0644  0.3337 -0.0446
26386W        W41517  12.725   4.319   0.401  0.0117 -0.1294  0.0883
26387W        W41518  10.555   9.808   3.158  0.0399 -0.0330 -0.0822
26388W        W41519  14.420  12.649  13.111 -0.1247  0.1014  0.2818
26389W        W41520   1.543   2.964  12.107 -0.3175  0.2965  0.2445
26390W        W41521   0.710  17.074   2.103 -0.0508  0.0247 -0.1094
26391W        W41522   0.847   7.596   2.072 -0.0850 -0.1390 -0.1950
26392W        W41523  13.408   3.279  11.089  0.1119  0.1772 -0.0756
26393W        W41524  12.254   7.091   5.212 -0.0490 -0.4103  0.3178
26394W        W41525   0.429   8.073  15.658 -0.0729  0.0109 -0.0099
26395W        W41526  14.194   2.348   4.744  0.2882 -0.0676 -0.0124
26396W        W41527   3.910   0.854   2.341  0.0352  0.0390  0.0104
26397W        W41528   8.414   9.332  15.616  0.0572  0.2492 -0.0362
26398W        W41529   7.008  17.250   2.152 -0.0344  0.1497 -0.0422
26399W        W41530   0.060   3.865   1.767 -0.2093  0.0053  0.2902
26400W        W41531   5.267   9.442   2.258  0.0551  0.2292  0.1578
26401W        W41532  12.537   4.083   5.566  0.0672  0.1480  0.0663
26402W        W41533   5.906   7.932  11.936 -0.2780  0.0878  0.2862
26403W        W41534  10.386  12.104   0.403 -0.0417 -0.0862 -0.0973
26404W        W41535  12.754  14.451   4.434 -0.1946 -0.0503  0.1964
26405W        W41536   1.797   8.579  12.509  0.2673 -0.1334  0.3178
26406W        W41537  15.613  15.439  11.646 -0.4194 -0.1416 -0.0754
26407W        W41538   1.716  15.855  15.884 -0.0139  0.3761 -0.2479
26408W        W41539  13.640  12.958   6.159 -0.1460 -0.2448 -0.1173
26409W        W41540   9.767   3.960  11.938 -0.3492  0.2651 -0.1184
26410W        W41541  14.166   7.090   4.428 -0.2214  0.0893 -0.0012
26411W        W41542  13.077   6.528   4.166  0.0315 -0.2743  0.0573
26412W        W41543  12.787   7.073  12.543 -0.3128  0.3867 -0.2543
26413W        W41544   2.497  14.789   2.845 -0.2729  0.1551  0.4702
26414W        W41545   1.360   2.749  15.246  0.0963 -0.1782 -0.0626
26415W        W41546   2.691  12.152   4.646  0.1862 -0.1114 -0.2478
26416W        W41547  12.276   4.670   3.580 -0.3435  0.0051 -0.0255
26417W        W41548   1.417   4.886  11.804  0.0505 -0.1222  0.1457
26418W        W41549   5.481   0.902  13.275  0.0145  0.1496 -0.2383
26419W        W41550   9.274  16.930  13.957  0.0601  0.4134  0.4573
26420W        W41551   3.570   5.669  12.053  0.1313  0.0421  0.1570
26421W        W41552   3.372  10.192   2.882 -0.1275  0.1276  0.1116
26422W        W41553  17.321  15.698  12.481 -0.0527  0.1363 -0.0657
26423W        W41554  15.031   1.798  12.063 -0.0161  0.0935 -0.0721
26424W        W41555  17.494   0.696   4.283  0.0276 -0.1227 -0.1644
26425W        W41556  15.907   1.892  14.108 -0.0082 -0.1295  0.2344
26426W        W41557   1.380   3.743  12.871 -0.0317 -0.1171 -0.1058
26427W        W41558   7.239  15.228   2.788  0.3506 -0.0255 -0.0965
26428W        W41559   4.401   4.087  13.083  0.1976  0.1712 -0.1774
26429W        W41560  11.547   3.067  15.117 -0.0741 -0.1045  0.1931
26430W        W41561  13.374   0.178   4.362 -0.1213  0.1233 -0.3106
26431W        W41562  17.325  11.347   4.067 -0.2427 -0.0507 -0.0338
26432W        W41563   3.256   5.817  14.950 -0.2173 -0.1995  0.3736
26433W        W41564   6.296  12.333  14.847 -0.0777 -0.0976 -0.1120
26434W        W41565   0.870  14.245  12.190  0.1325  0.2791 -0.1611
26435W        W41566   2.931   6.574  13.173  0.0596 -0.2346  0.0087
26436W        W41567  16.189   7.560   2.760 -0.1518 -0.1752 -0.2563
26437W        W41568   7.311  17.781   3.576  0.1294  0.0707  0.0235
26438W        W41569   6.446   6.274  13.444  0.0621 -0.0470  0.0132
26439W        W41570   2.223  14.476  12.270 -0.0809  0.2741 -0.0546
26440W        W41571   3.093  11.844   4.503  0.1809 -0.0922  0.0163
26441W        W41572   5.040   3.378   3.443 -0.1324  0.0926 -0.2978
26442W        W41573   5.389   3.048   4.763 -0.4135  0.0855  0.3754
26443W        W41574   8.434   6.275  11.984  0.0853  0.0452  0.0998
26444W        W41575   4.590   4.578   0.325  0.0606  0.2200  0.0002
26445W        W41576   0.269  13.207   4.532 -0.0044 -0.1954  0.3523
26446W        W41577   4.935  12.309  13.573 -0.0845  0.2235 -0.0425
26447W        W41578  17.900   4.832  11.837 -0.3539 -0.2486  0.0819
26448W        W41579   7.844   5.407   2.963 -0.1211  0.1920  0.0091
26449W        W41580   1.923  14.530   4.783  0.1856 -0.0143  0.0844
26450W        W41581   5.139   9.852   4.122 -0.3096  0.0959 -0.2486
26451W        W41582  15.865  12.284  13.608 -0.0656  0.0954  0.2559
26452W        W41583   9.134   9.355  11.622  0.0056 -0.1605  0.0749
26453W        W41584  13.235   4.064  16.216 -0.0327  0.0510  0.0190
26454W        W41585   4.570  14.322   4.608  0.0386  0.1413 -0.0312
26455W        W41586   0.749   6.507   0.310 -0.1674  0.0796  0.0177
26456W        W41587  17.991   6.996   2.218  0.2862 -0.0519  0.0514
26457W        W41588  12.690   6.906  15.770  0.0989 -0.0930 -0.2639
26458W        W41589  16.192   0.174   1.468 -0.0529  0.0277 -0.1154
26459W        W41590   8.143  12.388  15.960  0.0219 -0.1261 -0.1482
26460W        W41591   4.912   2.540  14.564  0.0293 -0.1015  0.0176
26461W        W41592   8.111  11.713  11.024 -0.0572  0.0619 -0.1675
26462W        W41593   2.718  17.003   4.102 -0.1472 -0.0458  0.1251
26463W        W41594   0.753   8.049   4.718 -0.2147  0.1916 -0.1069
26464W        W41595  16.850  10.206  15.901  0.1716  0.0884  0.3056
26465W        W41596  15.190  13.880   2.057  0.1492  0.1419 -0.0635
26466W        W41597   0.129   2.062  14.733  0.0301  0.0242 -0.0320
26467W        W41598   1.816   5.154   0.892 -0.0450 -0.1488 -0.0309
26468W        W41599  12.219  14.513  11.603 -0.1696  0.1891 -0.2097
26469W        W41600   4.918  15.066   3.874  0.0371 -0.1522  0.1937
26470W        W41601  15.689  16.749  15.345  0.1221 -0.3015 -0.0081
26471W        W41602  17.246  17.298  13.943  0.2222  0.0874  0.0312
26472W        W41603  14.582   8.675  10.570  0.2004  0.2521 -0.0017
26473W        W41604  11.692  13.571  11.909 -0.1022 -0.0728  0.0063
26474W        W41605  11.976   7.488  14.384 -0.1431  0.1419  0.1113
26475W        W41606   3.189   1.448  11.606 -0.1077  0.0150  0.0760
26476W        W41607  13.054   5.898  11.202 -0.1155 -0.1485  0.3398
26477W        W41608  10.007  15.598  10.696  0.0991  0.0751 -0.1489
26478W        W41609   9.889   5.331   5.305  0.1031  0.1732 -0.3295
26479W        W41610   9.036   2.988  10.263  0.0685  0.0966  0.2404
26480W        W41611   7.612   2.220   2.204  0.0255  0.0829 -0.2077
26481W        W41612   8.988   6.879   3.022  0.0354 -0.0186  0.0046
26482W        W41613  16.721   6.760   3.940 -0.1781 -0.1276 -0.0687
26483W        W41614  16.313   3.330  15.556  0.0026 -0.3172 -0.0266
26484W        W41615   9.305   8.677   0.031  0.1369  0.0137 -0.1618
26485W        W41616   7.875   4.608   2.972  0.0642  0.1717 -0.0524
26486W        W41617  12.654   0.004  16.111  0.1130 -0.0755 -0.2546
26487W        W41618   9.797   4.438  12.068  0.1356 -0.0922  0.0627
26488W        W41619  14.320   2.949  12.585 -0.0849  0.1648 -0.1392
26489W        W41620   8.227   1.998   6.442 -0.3169 -0.1225 -0.0613
26490W        W41621   7.701  16.500  11.443 -0.1509 -0.1434 -0.0658
26491W        W41622   5.317  13.237   9.981  0.3515 -0.2983 -0.0300
26492W        W41623  14.008   5.495   4.974 -0.1446  0.0936  0.0948
26493W        W41624   7.518   8.483  14.582 -0.2211  0.3501  0.0189
26494W        W41625   6.958  16.967   0.545 -0.2007 -0.0847  0.0686
26495W        W41626   3.278   6.681   0.956 -0.2745 -0.2368 -0.0241
26496W        W41627   1.316  15.021   4.968  0.0946 -0.1470 -0.2074
26497W        W41628  11.171  15.421   4.093  0.2381 -0.0551 -0.1090
26498W        W41629   9.632   8.973  15.738  0.0523 -0.2381  0.1275
26499W        W41630   6.893  12.333  15.836 -0.0970 -0.3192 -0.1748
26500W        W41631  11.783   1.767  12.965 -0.1744 -0.2509 -0.3761
26501W        W41632   2.494  10.280   3.254  0.0671 -0.4297 -0.1180
26502W        W41633  17.888   9.117  10.879  0.0733 -0.0605 -0.0083
26503W        W41634  11.388   6.235  12.500  0.1813 -0.0673 -0.3376
26504W        W41635  15.658  11.277  12.307  0.0346 -0.0599 -0.0210
26505W        W41636   1.519  15.388  14.336 -0.1438  0.0834  0.0983
26506W        W41637  12.160   4.727  14.675  0.0975  0.0939 -0.3789
26507W        W41638  12.639  17.370  14.914 -0.1837  0.2841 -0.3891
26508W        W41639  16.760   2.974  12.936  0.0506  0.3538 -0.2681
26509W        W41640  12.222   9.456   2.429 -0.1194  0.1982  0.0050
26510W        W41641   7.004  13.280  12.101 -0.5114  0.1104  0.0896
26511W        W41642   4.908   3.319  12.120 -0.0904 -0.3161 -0.1029
26512W        W41643   1.587   6.147  14.379  0.0341 -0.2755  0.1034
26513W        W41644  12.289   1.762  13.018 -0.1814 -0.0701  0.0907
26514W        W41645  16.457   5.249   4.714 -0.0568  0.3679  0.1599
26515W        W41646   6.333   3.614   5.026 -0.0167 -0.2285  0.0383
26516W        W41647  15.641   8.972  14.451 -0.1417  0.1072  0.0976
26517W        W41648  16.744  13.739  14.901 -0.1018 -0.0351 -0.1921
26518W        W41649   7.727   9.373   1.305  0.2862 -0.3948 -0.0250
26519W        W41650   6.020   0.219   2.206  0.0470  0.0235 -0.0587
26520W        W41651  10.702   4.343   2.948  0.2026 -0.3244 -0.0224
26521W        W41652   9.807  12.397  14.455 -0.1711  0.1013 -0.0560
26522W        W41653   8.334   7.504   2.633  0.1290 -0.1435  0.0545
26523W        W41654   4.866   6.301   5.447  0.0336 -0.0341 -0.2019
26524W        W41655   4.845  16.096  14.118 -0.1777 -0.0572  0.0703
26525W        W41656   2.121  15.151  12.488  0.0928 -0.2616 -0.1703
26526W        W41657  16.490   6.248   5.264 -0.1657 -0.0310 -0.1796
26527W        W41658   1.668   3.371   1.591 -0.2009  0.1384  0.1230
26528W        W41659  15.463   0.757   0.969  0.1606 -0.0958  0.0003
26529W        W41660   0.740   8.682   1.717 -0.0627 -0.0227 -0.2284
26530W        W41661  16.408   9.942   0.688 -0.0241 -0.1901  0.0127
26531W        W41662  11.261   5.615   5.031 -0.2353 -0.2686 -0.0253
26532W        W41663   7.142  15.012   4.259  0.0703  0.0363 -0.1618
26533W        W41664  15.621  15.574   0.207 -0.2367  0.0786  0.1034
26534W        W41665   3.970  15.867   1.400  0.1430 -0.1010  0.1199
26535W        W41666   3.136   8.414   5.251  0.0424  0.2439  0.1851
26536W        W41667  17.673  10.059   4.813 -0.4503  0.0341 -0.2235
26537W        W41668   5.064   8.418   3.024 -0.2742 -0.0311 -0.1800
26538W        W41669  10.369  12.383  11.715 -0.4798 -0.0549  0.1107
26539W        W41670   2.067  10.103  14.647  0.0298 -0.0425 -0.1360
26540W        W41671   6.222   6.627  16.179  0.2574 -0.0800  0.3858
26541W        W41672   1.662   9.089   2.834  0.0381 -0.0317  0.3668
26542W        W41673   2.837   8.736   2.446  0.1753 -0.2166  0.0129
26543W        W41674  15.574   8.712   4.769  0.0252 -0.1711  0.0501
26544W        W41675   3.572   7.880   6.010  0.1000  0.2810 -0.1720
26545W        W41676   4.200   7.224  15.282  0.2277 -0.3448 -0.0813
26546W        W41677   5.630   8.104  13.016 -0.1930 -0.0276  0.1061
26547W        W41678   8.899   6.063  12.073  0.1778  0.1384 -0.0501
26548W        W41679  11.198  11.965  15.748 -0.2607 -0.0259 -0.0695
26549W        W41680   6.600   9.416  14.399  0.0749  0.0302  0.1919
26550W        W41681   9.854   4.696   2.753  0.2490  0.0286  0.1889
26551W        W41682   5.291   1.947  13.816  0.1599 -0.0721  0.0681
26552W        W41683   2.652   6.581  14.152  0.1840 -0.2981  0.1357
26553W        W41684  14.843   9.634   0.057  0.1528  0.2648 -0.1716
26554W        W41685   9.452  12.022   6.047 -0.0399  0.0522  0.1742
26555W        W41686  12.953   6.555  13.311 -0.3564  0.1166 -0.0131
26556W        W41687   0.432   0.831  14.329  0.1248 -0.2522  0.1058
26557W        W41688   3.549   3.479  13.988 -0.2258 -0.0514  0.2081
26558W        W41689  13.158  13.718  15.194 -0.0999 -0.0693  0.2940
26559W        W41690   0.883  17.667   2.811  0.0731  0.3181 -0.4535
26560W        W41691   5.641   0.957  11.869  0.1363 -0.0369 -0.1443
26561W        W41692  11.031   5.494  12.500 -0.1549  0.2775 -0.2318
26562W        W41693   9.141   6.977  11.569  0.0286 -0.0980 -0.2377
26563W        W41694  10.152   5.914  12.602 -0.0007  0.2114  0.2311
26564W        W41695  10.060   6.886  13.866  0.0569  0.0510  0.0973
26565W        W41696  16.259  17.324   5.037 -0.1286  0.3332  0.3402
26566W        W41697   1.673  12.593   1.839 -0.1661 -0.1958 -0.1361
26567W        W41698   2.037  11.639   3.317  0.0530 -0.1808  0.0008
26568W        W41699   7.706  11.599  16.166  0.0279  0.1972  0.0106
26569W        W41700  14.696   7.272  10.890 -0.0554  0.0278  0.0884
26570W        W41701  14.732   9.139   4.416  0.2650  0.1713 -0.1621
26571W        W41702  12.838   5.147   2.111 -0.0863 -0.0506  0.0472
26572W        W41703  11.828  15.610   3.166  0.1878  0.1893  0.0666
26573W        W41704   2.057  17.207  14.769  0.2536 -0.1174  0.0735
26574W        W41705   9.072   2.156   2.660  0.1092 -0.2013  0.0302
26575W        W41706  16.189  15.442  15.606 -0.1900  0.0064  0.2323
26576W        W41707  11.975  14.507  13.958  0.1979  0.2714 -0.0444
26577W        W41708   8.344   7.306  12.071  0.0845 -0.0669  0.2808
26578W        W41709   8.767   8.987  14.679 -0.1191  0.0933 -0.0646
26579W        W41710   3.497  17.724  15.704 -0.0550 -0.3040 -0.1277
26580W        W41711  15.379   6.969  16.232 -0.4452 -0.0683 -0.2899
26581W        W41712  12.299  14.206  12.578 -0.0538 -0.0238  0.0418
26582W        W41713  16.668  11.240   1.124  0.2732  0.1125  0.1905
26583W        W41714   5.316  13.164   1.809 -0.1206  0.2079 -0.1506
26584W        W41715  14.322  11.312   3.185 -0.0042  0.0219 -0.2280
26585W        W41716   7.820   2.710  12.175 -0.2094 -0.0469 -0.1369
26586W        W41717  10.686   8.192   1.117  0.2387  0.1216  0.0952
26587W        W41718   9.282  14.552  15.470 -0.3414 -0.1126  0.2344
26588W        W41719  17.875   9.540  14.631  0.0313 -0.5812 -0.1607
26589W        W41720  12.332   1.903   0.586 -0.1485  0.1649  0.1472
26590W        W41721   7.460   1.410  13.841  0.0496 -0.2660 -0.0337
26591W        W41722  12.663  13.175   5.215  0.2906  0.0191  0.0091
26592W        W41723  13.163   1.875   3.955  0.1490 -0.0824  0.1321
26593W        W41724   8.871  13.377   3.951 -0.1276  0.0729  0.0037
26594W        W41725   7.632   5.927   1.134 -0.1343 -0.2772 -0.0271
26595W        W41726   2.078   5.816   0.805  0.0455 -0.1900  0.1735
26596W        W41727  10.927   2.279   3.868  0.0172 -0.0923 -0.0021
26597W        W41728   5.960   1.030   1.588  0.0179 -0.1981 -0.1205
26598W        W41729  16.654  11.585  15.546 -0.2168  0.0975  0.0814
26599W        W41730   6.812   3.935  16.233 -0.1440 -0.0528 -0.3436
26600W        W41731   5.547   4.698  13.662 -0.1140  0.1869  0.1921
26601W        W41732  11.752  11.534   2.111 -0.2027  0.0996  0.1975
26602W        W41733  16.305   1.404  15.061 -0.2168 -0.1465 -0.2706
26603W        W41734  15.154  12.625   5.730  0.1505 -0.2706  0.0989
26604W        W41735  12.198  16.797  13.699 -0.2717  0.1910 -0.1865
26605W        W41736   8.416   4.422   3.644  0.1393 -0.1165 -0.0040
26606W        W41737   3.157   6.217  13.519 -0.0102  0.0975  0.0161
26607W        W41738   8.062   2.577  15.413 -0.1830  0.0048  0.2630
26608W        W41739   2.748  11.506   0.425  0.1458 -0.2221 -0.0872
26609W        W41740   2.501   9.949  14.311 -0.1995 -0.0010  0.0011
26610W        W41741  13.305   2.116  13.094 -0.2021 -0.0088 -0.0023
26611W        W41742   6.244  17.726  12.705  0.0814 -0.1765 -0.1473
26612W        W41743   5.738   2.165  11.589  0.0018  0.2282 -0.1436
26613W        W41744  17.265  16.776   0.511  0.0842  0.2651 -0.2155
26614W        W41745   9.636   8.177  13.540  0.0644 -0.1986  0.2540
26615W        W41746  10.655  12.459   2.362  0.0988  0.0989  0.0034
26616W        W41747  15.421  15.110  13.301 -0.1636  0.0846 -0.0852
26617W        W41748   7.431   8.919   4.381  0.0782 -0.0908  0.4413
26618W        W41749  12.173   0.837   4.428 -0.0532  0.1288 -0.1440
26619W        W41750  10.623   5.914  11.267  0.1611 -0.1700  0.0590
26620W        W41751  17.654   6.643   5.729 -0.2718  0.1571  0.2849
26621W        W41752  17.335  17.730  15.714  0.0130 -0.1975 -0.1006
26622W        W41753  16.381   9.120   0.774 -0.0343  0.2236 -0.1025
26623W        W41754  16.720  13.992   1.316  0.0864  0.2072  0.1234
26624W        W41755   2.099  14.666  15.475 -0.0359 -0.1333  0.0753
26625W        W41756   0.989   1.550  13.948 -0.2047  0.0767  0.1222
26626W        W41757   4.001   0.486  11.876 -0.2117  0.1193 -0.1094
26627W        W41758   3.150   2.807   4.277  0.0845 -0.3740 -0.0439
26628W        W41759   8.881   5.245  11.471  0.1939  0.1393  0.0546
26629W        W41760   3.004   2.996   4.965 -0.0023 -0.1694 -0.1554
26630W        W41761   9.213  11.110   1.615  0.0238  0.0294 -0.2677
26631W        W41762  11.184   8.843   2.206  0.1645  0.0418 -0.1393
26632W        W41763   1.301  13.770   3.265 -0.0489  0.1234  0.0911
26633W        W41764  15.174   9.563  14.904  0.0900  0.2191  0.0606
26634W        W41765   0.950  14.225   1.314  0.0052  0.3532 -0.2241
26635W        W41766   2.932   8.825   3.816  0.1356  0.0186  0.3859
26636W        W41767   2.269  14.754  15.048  0.2466  0.0506 -0.1070
26637W        W41768   6.435  17.659   5.854  0.0324 -0.3750  0.1934
26638W        W41769  15.590   8.278   1.901 -0.3964 -0.5193 -0.0193
26639W        W41770   2.157   0.655   5.703 -0.1321  0.0307 -0.0116
26640W        W41771   0.073   1.492  13.224 -0.1305  0.0342  0.1748
26641W        W41772   8.159  17.624  15.851 -0.3225 -0.1284 -0.0012
26642W        W41773   1.309   2.989   2.458  0.3309 -0.3522  0.3372
26643W        W41774  13.645  14.463  11.238 -0.0133 -0.0728 -0.0203
26644W        W41775  10.409   7.045  14.207  0.1138 -0.0986 -0.1871
26645W        W41776   8.192  14.935  13.944 -0.0519 -0.1120 -0.1508
26646W        W41777  10.986  16.456   0.822 -0.1713 -0.1801 -0.0229
26647W        W41778   1.318   1.770   2.349 -0.1174 -0.0040  0.0957
26648W        W41779   6.590  12.293  10.039  0.3479  0.0511  0.0591
26649W        W41780   6.852  10.226   5.049  0.0822 -0.1864  0.0943
26650W        W41781   4.654   0.893  14.880 -0.0817  0.0652  0.1286
26651W        W41782   9.766  12.509  11.464 -0.1312 -0.0277  0.1326
26652W        W41783  10.710  13.331  12.051 -0.0517  0.0359  0.2169
26653W        W41784   3.889  16.171  15.232  0.0179 -0.1949 -0.2892
26654W        W41785   3.978  16.803   1.333  0.4485  0.1435 -0.0450
26655W        W41786   2.388   9.995  12.404 -0.1276  0.1025 -0.3033
26656W        W41787   5.118  10.451   1.980  0.2901  0.2354  0.2098
26657W        W41788  17.945   1.679  14.375 -0.2491  0.3609 -0.0790
26658W        W41789   3.278  17.960   0.701  0.1447 -0.1230 -0.0283
26659W        W41790  17.716  15.580  13.533  0.2854  0.0881 -0.2399
26660W        W41791   1.249   3.152  11.029  0.0819 -0.0784  0.3267
26661W        W41792   9.303   3.012  15.772 -0.0186 -0.2614 -0.1350
26662W        W41793  17.903  17.719  12.025 -0.0009  0.2521 -0.0727
26663W        W41794   9.895   6.212  11.803 -0.0721 -0.0309  0.0923
26664W        W41795   4.162  16.251   4.595 -0.2942  0.0035 -0.3075
26665W        W41796  12.483   1.177   1.821 -0.0101  0.0746  0.2482
26666W        W41797  12.601   9.321  13.054  0.1014 -0.1094 -0.0174
26667W        W41798  14.236   4.075  13.692 -0.0119 -0.0418  0.0235
26668W        W41799  12.482  11.362  15.178 -0.0920  0.1586 -0.1940
26669W        W41800   2.086   1.737  12.953 -0.1767 -0.2179  0.0601
26670W        W41801   2.801   7.731   2.194  0.1939  0.0738  0.0131
26671W        W41802   2.578   8.197   2.910 -0.0101 -0.0432  0.0139
26672W        W41803   3.910   5.373   3.778 -0.4806 -0.1860  0.1523
26673W        W41804  15.396   4.860  15.877 -0.2818  0.0395 -0.0350
26674W        W41805   0.938  12.393   0.637 -0.1207  0.3036  0.0827
26675W        W41806   0.912  11.917  12.092  0.1345  0.0492  0.0771
26676W        W41807  15.590   1.798   1.501  0.0323  0.0167 -0.1156
26677W        W41808   5.839   1.625  11.115 -0.3057  0.4194 -0.1621
26678W        W41809   9.644  17.581  13.901 -0.0048  0.1340  0.0070
26679W        W41810  12.092   8.587   3.839  0.1674  0.2661  0.1484
26680W        W41811  16.258   5.499  15.014  0.0753 -0.2762  0.1146
26681W        W41812  12.560   1.293  13.048  0.0535  0.1333  0.3710
26682W        W41813   4.312   9.763   3.053  0.0097  0.0140 -0.3987
26683W        W41814  11.734  17.232   2.809  0.2233 -0.2029 -0.0063
26684W        W41815   7.050  10.266  13.459  0.1903  0.0090  0.0823
26685W        W41816  14.783   5.541  13.883  0.1491 -0.2273  0.0040
26686W        W41817   4.580   5.796  15.480 -0.2577  0.1664  0.1753
26687W        W41818   3.311   0.390  10.655 -0.3578 -0.0189  0.0807
26688W        W41819   8.352   2.340   6.092  0.1603 -0.2020 -0.1291
26689W        W41820  14.704   1.584   2.520  0.0158 -0.0493  0.2608
26690W        W41821   9.196   8.127  12.245  0.1674 -0.2787  0.0217
26691W        W41822   6.895  11.259   1.002 -0.1617  0.1542  0.0204
26692W        W41823  10.608  15.170   5.191 -0.0708  0.0503  0.0438
26693W        W41824   5.478  11.983   4.736  0.1668 -0.1517  0.0376
26694W        W41825  10.306  14.556   1.081 -0.2618 -0.1088  0.1251
26695W        W41826   1.775  16.154   9.670  0.1377  0.0533 -0.2939
26696W        W41827   0.546   6.391  12.557 -0.1202  0.0062  0.2585
26697W        W41828   3.352  15.117  11.650 -0.1856 -0.0898 -0.0402
26698W        W41829   7.523   3.157   4.506 -0.2651 -0.2226 -0.0450
26699W        W41830  15.185  12.360   3.256 -0.0775 -0.2777  0.3755
26700W        W41831   9.562  11.381  15.432  0.3622 -0.1361 -0.2106
26701W        W41832   9.825   8.151   5.705 -0.3676  0.0479 -0.0472
26702W        W41833   2.105   4.814  11.169  0.1906  0.0825  0.1568
26703W        W41834  14.557   5.541   2.446 -0.2620 -0.0165 -0.0473
26704W        W41835   3.022  14.389  11.739 -0.1985 -0.2289  0.0133
26705W        W41836  12.937  16.482   4.479  0.0798 -0.0355  0.0614
26706W        W41837   0.433  17.171  12.341 -0.0545 -0.2034 -0.0708
26707W        W41838   3.033  11.392   4.598  0.3233  0.1655  0.2474
26708W        W41839   5.138   7.736   4.836 -0.0757  0.1340 -0.4494
26709W        W41840  10.163   6.267  14.971  0.2537  0.0299  0.0318
26710W        W41841  17.051  13.311  10.536 -0.0828  0.1850  0.2179
26711W        W41842   7.661   8.105   1.668  0.0321 -0.0655  0.0928
26712W        W41843  14.126  13.694  15.148 -0.2696 -0.0524  0.1633
26713W        W41844  12.775  17.909  14.953 -0.0103  0.1146 -0.1110
26714W        W41845   9.431   2.541  12.393  0.0522 -0.0356  0.3748
26715W        W41846  15.748  17.891   1.424 -0.1102  0.1833 -0.3985
26716W        W41847  15.103  13.772   0.548  0.2492 -0.0186 -0.0301
26717W        W41848   9.938   5.838   5.276 -0.0839 -0.1395  0.1018
26718W        W41849   8.400  14.876   1.836 -0.3244 -0.0806 -0.1658
26719W        W41850   4.819  12.186  15.927  0.2043 -0.1256 -0.2072
26720W        W41851  16.449  13.818   4.261 -0.4082 -0.0976  0.0709
26721W        W41852   3.032  10.428  14.858 -0.1160 -0.2919 -0.1545
26722W        W41853   4.998   7.408   3.994 -0.1039  0.1014 -0.3332
26723W        W41854   5.381  13.020   0.187  0.0534 -0.0561 -0.1211
26724W        W41855  15.133  17.935  12.417  0.1022 -0.2071 -0.0550
26725W        W41856   8.380   5.904   4.905 -0.1883 -0.2089 -0.0739
26726W        W41857  16.053  14.529  12.578  0.0489  0.3670  0.0575
26727W        W41858  14.134  10.538   4.282  0.0967 -0.0253 -0.0798
26728W        W41859  11.510  15.044   0.530  0.0501 -0.0127 -0.1516
26729W        W41860   9.409   3.244  11.386  0.1468 -0.0312  0.1887
26730W        W41861   9.354   6.068  11.873  0.1427  0.1820  0.1673
26731W        W41862   4.777  12.527   4.630  0.0736  0.1057 -0.2227
26732W        W41863  17.517  17.864  14.243 -0.0978  0.0682 -0.0538
26733W        W41864   3.213  16.149  14.665  0.1080 -0.3105  0.2123
26734W        W41865  16.069   5.745   2.157 -0.0557  0.1171 -0.1924
26735W        W41866  10.589   0.822  14.572  0.0212 -0.2065  0.0221
26736W        W41867   8.812  17.846   0.726  0.1241  0.0534 -0.1256
26737W        W41868  10.400  17.842   5.245 -0.0931 -0.1577  0.0967
26738W        W41869   6.016   4.452  12.827  0.0922 -0.0111  0.1741
26739W        W41870   1.429  10.004  12.546  0.0557 -0.1682 -0.3047
26740W        W41871   7.217   0.067   3.267  0.1316  0.0278  0.3392
26741W        W41872   2.209   9.041   5.028  0.2517  0.1543  0.0297
26742W        W41873   8.258  14.916  14.513 -0.1019 -0.1063  0.0777
26743W        W41874  17.702   8.340  13.969  0.1213 -0.1371  0.1028
26744W        W41875   3.897   8.967  12.761 -0.2201  0.0994 -0.0209
26745W        W41876   7.214   0.756  14.478 -0.2006 -0.0732  0.2850
26746W        W41877  12.096  10.403  14.112 -0.0297  0.1460 -0.1515
26747W        W41878  11.094   8.683   2.665  0.0428 -0.2342  0.0239
26748W        W41879  10.549  15.850  12.063 -0.2677  0.0590  0.3767
26749W        W41880   1.692  16.804   1.076  0.4168 -0.2370  0.0761
26750W        W41881  17.404  17.889  11.984  0.1681 -0.0266  0.1548
26751W        W41882   8.569   7.153  15.005 -0.0937  0.0167 -0.0005
26752W        W41883   6.610   9.868   1.603 -0.0092  0.2182 -0.0244
26753W        W41884   4.189  11.328  15.634 -0.2216  0.2677  0.0010
26754W        W41885   6.214  12.778  11.933 -0.1786 -0.0649 -0.3092
26755W        W41886   2.307   1.452   1.032 -0.0749  0.0287  0.3897
26756W        W41887   6.176   0.699   0.336  0.1612 -0.0840  0.1320
26757W        W41888   6.096  15.152  14.541 -0.0392  0.0504 -0.0752
26758W        W41889   5.069   8.152   2.354  0.0893  0.1238 -0.1220
26759W        W41890  12.395   9.115   6.225  0.2929  0.2605  0.0503
26760W        W41891   9.969   8.500  11.973  0.2642  0.1081 -0.2723
26761W        W41892  14.944  17.312   3.861  0.0615 -0.0101 -0.4772
26762W        W41893  16.672   8.688   5.818  0.0496 -0.1159 -0.0909
26763W        W41894  14.886   6.165  15.289 -0.0094  0.1057 -0.0581
26764W        W41895  11.092  17.594   5.917  0.0687  0.4601 -0.2481
26765W        W41896  17.965  16.739  13.217  0.1897 -0.1067 -0.0081
26766W        W41897  17.075   4.767   2.038  0.0511 -0.0175  0.0315
26767W        W41898   0.743  14.134  15.432  0.0865  0.1440 -0.0523
26768W        W41899   6.014  12.708   3.963 -0.0435 -0.0449  0.0244
26769W        W41900  10.927  17.305  16.178 -0.2562 -0.1587 -0.2257
26770W        W41901  11.523   4.439  12.491  0.2447 -0.3471  0.2127
26771W        W41902  13.804  11.629   4.134  0.2528  0.1013  0.0567
26772W        W41903  17.220  12.202  11.845 -0.2035 -0.1054  0.0429
26773W        W41904  10.421   1.954   0.378 -0.1397 -0.0053 -0.0447
26774W        W41905  16.349  10.450   0.597  0.1030 -0.1019 -0.1073
26775W        W41906   6.085  17.726  13.707 -0.1861  0.0481  0.1128
26776W        W41907   2.522  11.264  11.866 -0.2772  0.1404 -0.0428
26777W        W41908   6.710  10.040   5.506  0.1952  0.0922 -0.2561
26778W        W41909  13.632   5.865   0.061  0.0651  0.1489  0.0148
26779W        W41910   6.875  12.564   5.400 -0.0288  0.0132 -0.1456
26780W        W41911   6.251   3.120   3.640 -0.4013  0.0629 -0.2953
26781W        W41912  13.223   2.679   2.580  0.0335 -0.0018  0.0281
26782W        W41913   9.741   1.822   2.830 -0.3406 -0.0824 -0.3391
26783W        W41914   7.678   4.624   1.228 -0.0137 -0.0053 -0.0554
26784W        W41915   4.860   8.417   5.032  0.2700  0.1458  0.1432
26785W        W41916   7.784   6.035  11.369 -0.2073 -0.1723 -0.0521
26786W        W41917  14.176   7.540   5.279  0.0265  0.0000  0.4772
26787W        W41918  16.573  15.545  11.934  0.2554  0.3606 -0.0483
26788W        W41919   7.540   4.121  11.924  0.3124 -0.0576 -0.1710
26789W        W41920   3.996   0.878   1.816 -0.1319 -0.0737  0.1367
26790W        W41921  17.372   1.265  13.540 -0.1704  0.1010 -0.0017
26791W        W41922   0.673   5.789  14.741  0.1929  0.1522  0.3137
26792W        W41923   9.820  13.635  11.863  0.2752  0.0538  0.0992
26793W        W41924   8.744   2.419   0.372  0.2164 -0.0631 -0.1459
26794W        W41925   3.909  10.734  16.123  0.2078  0.2060  0.1388
26795W        W41926   4.178  10.246  15.137  0.2379 -0.1136  0.0979
26796W        W41927  13.696   9.713  14.103 -0.4350  0.1198  0.1343
26797W        W41928  13.980   7.938  12.551  0.0271 -0.0130  0.0386
26798W        W41929   0.154   6.256   6.238  0.0781 -0.0945  0.0555
26799W        W41930  17.441  11.455   5.718 -0.4594  0.1736 -0.1633
26800W        W41931   6.445   4.026   2.882  0.0085 -0.0336  0.1264
26801W        W41932   1.594   6.069  11.843 -0.1347 -0.0536  0.2248
26802W        W41933   4.029  17.017   2.798  0.2329  0.1751 -0.2242
26803W        W41934  10.241   5.204  11.330 -0.2802  0.0345  0.0852
26804W        W41935  13.978  15.343  15.519 -0.1824  0.0764  0.1384
26805W        W41936   6.534   4.845   4.020  0.0439 -0.0880 -0.2789
26806W        W41937  17.228   3.813  14.824 -0.0050  0.1461  0.2773
26807W        W41938   9.528  13.871   4.403 -0.2274  0.3634  0.0481
26808W        W41939   5.713   5.642   3.100 -0.5330  0.1985 -0.0934
26809W        W41940   3.206  13.622  11.331 -0.0518 -0.0167  0.2260
26810W        W41941   9.862  17.439  10.795  0.0078  0.0159 -0.1425
26811W        W41942  12.277  11.728  14.323  0.3168 -0.3668 -0.0414
26812W        W41943   1.597   2.006  14.679  0.2657 -0.1673  0.1321
26813W        W41944   1.385  14.195  12.210 -0.1203  0.0258  0.2346
26814W        W41945   6.960   1.632  13.783 -0.0268  0.0650  0.1122
26815W        W41946   8.270  11.383   2.857 -0.0316 -0.4421 -0.2035
26816W        W41947  14.788   6.904   0.314 -0.2767  0.1302  0.0559
26817W        W41948   1.645  11.343  15.147  0.3628  0.0780  0.0573
26818W        W41949  15.244  11.156   2.936  0.0306 -0.1350  0.1005
26819W        W41950   7.324   5.099  11.143  0.2458 -0.3275 -0.0720
26820W        W41951  16.163   9.817  14.719  0.0038 -0.3345 -0.1284
26821W        W41952  13.844  16.637   1.566  0.1163  0.0063  0.3178
26822W        W41953  17.198   6.957   4.859 -0.1919  0.0085  0.0945
26823W        W41954   5.990  14.521  13.280  0.0025 -0.0280 -0.0480
26824W        W41955   0.026  17.675   3.113  0.1301 -0.1060  0.0746
26825W        W41956   9.455   6.473   5.243 -0.3227  0.0645 -0.0197
26826W        W41957  11.772   6.430   0.498 -0.1134  0.0332 -0.2120
26827W        W41958   7.064   1.271  13.484 -0.2491 -0.0407  0.3998
26828W        W41959   0.103  16.281  13.326  0.2759  0.0393 -0.1818
26829W        W41960   5.899   4.077   0.415 -0.2186  0.7052 -0.1896
26830W        W41961  16.518  11.129   3.043 -0.2646 -0.0118 -0.1400
26831W        W41962   6.733  14.890   0.767 -0.1016  0.1394  0.1336
26832W        W41963   8.219  10.622   3.616 -0.3107  0.0509 -0.2961
26833W        W41964   0.740  12.702  15.586  0.0885 -0.1441  0.2002
26834W        W41965   5.921   0.843   4.111 -0.3861  0.2634 -0.1387
26835W        W41966   3.986   8.905  11.848 -0.0260 -0.0792 -0.3312
26836W        W41967   3.679   8.514   5.380 -0.1497  0.1767  0.2315
26837W        W41968   9.714  12.204  15.830 -0.0841 -0.1015  0.3863
26838W        W41969  14.574   6.567  16.199  0.1563 -0.0432 -0.1470
26839W        W41970  16.284   5.133  15.937  0.0990  0.0272  0.0980
26840W        W41971   9.770  10.012   0.993 -0.1905  0.2208 -0.0068
26841W        W41972   5.205   5.122   4.317  0.1834  0.1262  0.0510
26842W        W41973   2.787  10.718   2.447 -0.1434  0.0920 -0.0821
26843W        W41974  17.408  10.659  11.584 -0.0281  0.0817  0.1854
26844W        W41975   3.974  16.046   0.527 -0.1214  0.0749 -0.1940
26845W        W41976   3.152  14.561   5.687 -0.0895 -0.0158 -0.1041
26846W        W41977   9.769  15.544  13.900 -0.1381 -0.1757  0.1241
26847W        W41978   4.099   2.795  13.809 -0.1370  0.0469  0.4083
26848W        W41979   4.041   1.520  12.122 -0.2167 -0.2778  0.0598
26849W        W41980   8.947  11.909  12.503  0.0576 -0.0141  0.3353
26850W        W41981   7.134   1.905   0.204 -0.3018 -0.1842 -0.0282
26851W        W41982  14.426   8.865  12.532 -0.1303  0.1674  0.2604
26852W        W41983   4.343   0.142   3.257 -0.0953  0.1587  0.1562
26853W        W41984   7.934  16.599   3.799  0.1330  0.0801  0.3103
26854W        W41985   6.268  10.373   4.345  0.4052 -0.0566 -0.0801
26855W        W41986  11.790  14.966  13.812  0.3194  0.0481  0.4166
26856W        W41987   6.676   6.751   0.774  0.1009 -0.0505  0.3896
26857W        W41988  11.040   4.558  12.409  0.0991 -0.0788  0.0207
26858W        W41989  10.865   6.382   1.031  0.0191 -0.0905  0.2906
26859W        W41990   0.155  13.292   5.063  0.0343 -0.0326  0.3139
26860W        W41991   8.602   9.143   4.404 -0.0937  0.1548  0.4392
26861W        W41992   9.396  16.167  11.679 -0.0475  0.1737  0.0673
26862W        W41993  11.939   2.068   0.855  0.1316  0.2080  0.0483
26863W        W41994   8.610  13.510   5.529 -0.2207  0.0468 -0.1628
26864W        W41995  10.156   3.729  15.995 -0.1457  0.1030 -0.1402
26865W        W41996   3.997   9.854   2.334  0.3467 -0.2179 -0.3161
26866W        W41997   3.132  13.203   5.829  0.1091  0.0484  0.0624
26867W        W41998   4.463  12.030   0.551 -0.1523  0.0603  0.0139
26868W        W41999  11.394   1.237  13.529  0.0736 -0.1255 -0.1956
26869W        W42000   4.018  12.352   2.032 -0.0826 -0.2559  0.2877
26870W        W42001  12.585   7.197  13.880  0.1144 -0.0952 -0.1857
26871W        W42002  11.012  14.996  16.046 -0.0148  0.2244  0.3845
26872W        W42003  11.853  10.234  12.767 -0.4545 -0.1246 -0.2701
26873W        W42004   6.197  10.177   1.723 -0.0312 -0.1318  0.0222
26874W        W42005  11.314   9.787   4.346 -0.2766  0.3376 -0.2133
26875W        W42006   5.145   3.885  11.245  0.0178 -0.0205  0.3053
26876W        W42007   3.475  13.272  16.116 -0.1810 -0.0324  0.1432
26877W        W42008   9.179   3.306  16.188 -0.0496  0.0965  0.1084
26878W        W42009  13.882  15.406  15.068 -0.2057  0.0459  0.1181
26879W        W42010  11.681  10.222  15.302  0.1025 -0.0869 -0.0955
26880W        W42011  17.747   4.950   4.194  0.2346 -0.0189 -0.2526
26881W        W42012   2.997   5.583  15.821  0.1802  0.1091  0.0740
26882W        W42013   8.412   7.499   4.489 -0.1031  0.0827 -0.0862
26883W        W42014   0.580  12.870  16.049 -0.2201 -0.0190  0.0762
26884W        W42015  15.259   0.072   0.548  0.0128 -0.0272  0.2321
26885W        W42016  13.131   8.780   3.120 -0.0835 -0.2252  0.0844
26886W        W42017  16.776   4.111   1.367 -0.4154  0.2117 -0.1785
26887W        W42018   1.683  12.008   0.264  0.0600  0.0275  0.1713
26888W        W42019   0.424   1.789   3.020 -0.1401 -0.2004 -0.0035
26889W        W42020  15.233   8.219  13.951  0.2550 -0.3095 -0.1392
26890W        W42021   4.582   7.354   1.722 -0.0716 -0.0170 -0.1721
26891W        W42022   3.512   7.709  15.004  0.1342 -0.1397  0.1610
26892W        W42023   9.266   1.785   4.327  0.1601  0.5103  0.0685
26893W        W42024  10.679  12.472   0.664  0.1472 -0.3468  0.0705
26894W        W42025  11.377  12.603  16.072  0.2309 -0.0108 -0.1895
26895W        W42026   0.430  17.696  11.222  0.0122  0.0559  0.1140
26896W        W42027  16.469   4.286  11.135  0.0079 -0.0162 -0.1886
26897W        W42028   9.344   5.235  11.296  0.0560  0.1701  0.0597
26898W        W42029   8.048  14.165   5.567 -0.0336 -0.0601 -0.1206
26899W        W42030   3.022   9.394   5.308  0.0020  0.1920 -0.1333
26900W        W42031   6.556  13.761  13.374 -0.0116  0.0465  0.0903
26901W        W42032   5.513  15.036  11.257 -0.0551 -0.4407  0.0547
26902W        W42033  13.490  17.024  13.704  0.0251 -0.1159 -0.0575
26903W        W42034   3.053   7.324  14.262  0.2669 -0.3420 -0.0791
26904W        W42035   5.485   2.980   5.235  0.1051 -0.1231 -0.0425
26905W        W42036  13.348  11.045   0.702  0.0933  0.1369  0.1329
26906W        W42037  14.265  11.851   1.457 -0.1992  0.0120 -0.0737
26907W        W42038   4.363   1.329  14.985 -0.2897  0.0165  0.0309
26908W        W42039  16.382  11.723   3.777  0.0641  0.2068  0.5566
26909W        W42040  10.585   7.610   1.221 -0.0882  0.0887  0.1114
26910W        W42041   7.036   5.835   2.870 -0.0341  0.1329  0.0117
26911W        W42042  17.349   5.623   2.195 -0.2622  0.0835 -0.1471
26912W        W42043   1.493   7.961   0.606 -0.5853  0.0987  0.2349
26913W        W42044  17.954  10.499   3.964  0.0071  0.0705  0.0797
26914W        W42045   7.011  15.759  11.827  0.5700 -0.1243  0.2235
26915W        W42046   0.251   4.296   5.260 -0.0377  0.2249 -0.0621
26916W        W42047  14.419   0.562  16.218 -0.2140  0.0940  0.3750
26917W        W42048   6.471   9.798  15.392 -0.2454  0.1745 -0.0025
26918W        W42049   7.884  12.343  12.140 -0.1795 -0.1423 -0.1118
26919W        W42050   1.981   8.825   0.091 -0.2010  0.0242 -0.0742
26920W        W42051   9.616  10.910  16.234 -0.0335  0.2824  0.0111
26921W        W42052   3.375   1.834   5.109  0.0143 -0.1530  0.2143
26922W        W42053   6.849   6.068  15.235 -0.3643 -0.1124  0.2020
26923W        W42054  12.559   9.046  15.029 -0.0343 -0.1676  0.1729
26924W        W42055   1.699   3.839  13.794 -0.2629 -0.4220  0.0544
26925W        W42056   9.545   0.600  11.375  0.1804 -0.0399  0.0323
26926W        W42057   0.327   2.744  12.698 -0.0829 -0.0813 -0.1319
26927W        W42058   1.705   8.206   0.976 -0.1833 -0.1333 -0.2630
26928W        W42059   7.246  11.839   2.962 -0.0502 -0.1577  0.0656
26929W        W42060   5.162   0.539  13.410  0.0945 -0.1387 -0.3391
26930W        W42061  15.074  10.798   3.861 -0.0488  0.2203 -0.2050
26931W        W42062   9.641   3.655  10.229 -0.1256 -0.2012  0.0341
26932W        W42063   9.181   9.520  13.986 -0.0119 -0.3042  0.4487
26933W        W42064   6.297  12.164  11.556 -0.1388 -0.2580 -0.2695
26934W        W42065   1.769   1.255   1.510 -0.1424  0.1201  0.0815
26935W        W42066  13.017  13.639  14.335  0.0503  0.0660 -0.2997
26936W        W42067  13.751  16.378  15.757 -0.0157 -0.0421 -0.2035
26937W        W42068   0.945   0.931  14.243 -0.2219 -0.1446 -0.3489
26938W        W42069   6.729  15.862  15.481  0.2904 -0.1751 -0.0226
26939W        W42070   3.066  14.333   3.921  0.1244  0.0157  0.1147
26940W        W42071  17.759   5.050   4.669  0.2925  0.2742 -0.1241
26941W        W42072   3.795  12.757   3.467 -0.1708  0.3118  0.0226
26942W        W42073  13.768   0.010   1.758 -0.2628  0.0085  0.1583
26943W        W42074   3.462   6.303   0.159 -0.0491 -0.0674 -0.1566
26944W        W42075   7.351  16.833   1.941  0.1018 -0.1361  0.2283
26945W        W42076   1.088   2.831   1.997 -0.2781 -0.1122 -0.2196
26946W        W42077   0.032   5.303   4.311 -0.0298  0.0142  0.1638
26947W        W42078   7.241  11.093  12.160  0.0510  0.1098 -0.0301
26948W        W42079   3.178   1.244   1.071 -0.2820 -0.0091  0.0596
26949W        W42080   7.852   7.803  15.278 -0.3607  0.0071 -0.0283
26950W        W42081  10.619  11.397   1.612  0.2022 -0.1174  0.4264
26951W        W42082  17.325  15.933   0.647 -0.1421  0.0001 -0.1108
26952W        W42083  16.933   0.993   3.435 -0.1137  0.2952  0.0490
26953W        W42084   0.605   5.316  13.560  0.3065 -0.1758 -0.1561
26954W        W42085  10.359  17.370   2.978 -0.0910  0.0072 -0.2255
26955W        W42086  13.293   7.962  10.388  0.1322  0.0143 -0.0919
26956W        W42087   8.560   5.041   2.383 -0.0694  0.0836  0.0379
26957W        W42088   4.766   3.197   5.451  0.2963  0.1424 -0.1651
26958W        W42089   0.730   9.111   6.071 -0.1080  0.0404 -0.0071
26959W        W42090   5.262  12.348  10.374 -0.1380 -0.0082 -0.1208
26960W        W42091  11.619   0.776   1.558  0.0897  0.2879  0.3032
26961W        W42092  16.651  10.317  13.913 -0.6325 -0.1633 -0.0674
26962W        W42093  16.710   2.229  12.867  0.1699 -0.1017  0.0101
26963W        W42094  16.492  17.044  11.857  0.1175  0.3233 -0.0062
26964W        W42095  14.542  15.893   2.971  0.0040  0.1334 -0.1176
26965W        W42096  16.535  11.086   1.817  0.0939  0.0004 -0.2769
26966W        W42097  10.171  10.293   4.975  0.0925 -0.1027  0.2860
26967W        W42098  15.862  17.625   1.003 -0.3064 -0.1096 -0.0956
26968W        W42099  15.200   9.122  16.219  0.3099 -0.0765 -0.0671
26969W        W42100  16.043   9.286   2.152 -0.0450  0.2624  0.0706
26970W        W42101   2.889   8.163  12.267 -0.1119 -0.1921 -0.4330
26971W        W42102   5.844  12.997  14.388 -0.0271  0.0518 -0.0519
26972W        W42103  13.835  12.832  12.717 -0.2377 -0.0389  0.1859
26973W        W42104   4.826  12.594  13.964  0.1010 -0.0179 -0.2730
26974W        W42105   9.968   1.973   5.627  0.1787  0.2371 -0.4425
26975W        W42106  15.359   1.940  14.105 -0.1891  0.0224  0.0510
26976W        W42107  10.430  15.917   2.590  0.1420  0.1840  0.3028
26977W        W42108   8.608  11.586   1.069 -0.3019 -0.2568 -0.0736
26978W        W42109  13.073   6.633  16.067 -0.1413  0.0587  0.0229
26979W        W42110  17.380   3.587  10.722  0.3361 -0.2658 -0.1679
26980W        W42111   6.309  15.624   2.953 -0.2076 -0.0358  0.1307
26981W        W42112   3.103   7.789  14.038 -0.3225 -0.0681 -0.0816
26982W        W42113   8.463   7.831  15.510  0.0603 -0.1489  0.1992
26983W        W42114  10.146   6.595  15.927 -0.1105  0.0688  0.1661
26984W        W42115   7.985  10.224   4.840 -0.2704  0.2950 -0.0238
26985W        W42116   5.298   5.249  12.242  0.0214 -0.1720  0.1703
26986W        W42117  16.265  15.584   1.560  0.1197  0.0174  0.1483
26987W        W42118   3.454  11.818  12.636  0.1499  0.0626 -0.0525
26988W        W42119   5.310  11.087  12.147 -0.0800 -0.3346 -0.2355
26989W        W42120   5.376   6.566  12.884  0.3809 -0.0199 -0.0568
26990W        W42121  15.218  10.964  11.460 -0.2499 -0.0566  0.1576
26991W        W42122  12.492  16.470   4.726 -0.0490 -0.0478  0.3179
26992W        W42123   2.113   5.099   6.051 -0.1530 -0.0527 -0.0609
26993W        W42124  15.696  12.862   6.179  0.1788 -0.0046  0.3058
26994W        W42125   0.479   3.936   1.264 -0.0269 -0.0996 -0.0188
26995W        W42126  12.251   8.255   4.604 -0.0066  0.1372 -0.1249
26996W        W42127   7.178  14.982   1.920  0.1703 -0.2588  0.0675
26997W        W42128  10.401   4.700   3.119  0.2774  0.0345  0.0271
26998W        W42129  13.707  13.942  11.667 -0.1523  0.1020 -0.2166
26999W        W42130  17.749   3.954  11.659  0.0444  0.1186 -0.1655
27000W        W42131   3.167  17.406   5.060  0.0855  0.2419  0.0224
27001W        W42132  10.292   9.904   4.157 -0.1619  0.2765  0.0015
27002W        W42133  16.361   0.624  14.345 -0.1782 -0.2735 -0.1260
27003W        W42134   6.808   4.876   0.005  0.2262  0.0142  0.1878
27004W        W42135  12.524  11.065  14.816  0.1676 -0.2292 -0.3169
27005W        W42136   4.640   2.357  14.039 -0.0758  0.0818 -0.0114
27006W        W42137  11.427  15.437   5.599  0.2811  0.0016  0.0946
27007W        W42138  14.181  11.229   0.943 -0.4819 -0.1760  0.1262
27008W        W42139  17.255  11.912  12.840  0.1766 -0.1001 -0.2519
27009W        W42140   5.351   9.034   0.351 -0.0387 -0.2676  0.0317
27010W        W42141  11.984  12.000   1.110  0.0486 -0.0928 -0.1437
27011W        W42142   8.982  17.818   5.315 -0.4252  0.3919 -0.1640
27012W        W42143   5.300  12.949   3.735 -0.1073 -0.0419 -0.0377
27013W        W42144  16.187  16.744  13.273 -0.0189 -0.1011 -0.2720
27014W        W42145  15.599   6.247   4.691 -0.1674  0.2858 -0.4453
27015W        W42146   3.474   9.977  14.370 -0.5317  0.0260  0.1690
27016W        W42147   1.113  13.807  12.107 -0.0111 -0.0026  0.0007
27017W        W42148   6.312   5.747   5.379 -0.1706  0.1236  0.0999
27018W        W42149  16.378   7.679  14.986  0.2161  0.2669  0.0404
27019W        W42150   1.687   9.704   0.939 -0.1554  0.0085 -0.0288
27020W        W42151   8.519   2.728   1.124  0.0839 -0.0206  0.1742
27021W        W42152  14.095   2.936  13.316 -0.0670  0.0959  0.3151
27022W        W42153  12.114   8.667   1.782 -0.4407 -0.0727  0.0536
27023W        W42154   7.957  13.001  12.297  0.2131 -0.1981 -0.0159
27024W        W42155   5.849   0.572  13.442 -0.2938  0.1859  0.2114
27025W        W42156  14.211   0.283  13.997  0.2068 -0.2037 -0.2560
27026W        W42157   1.141  10.070  12.095 -0.0590  0.1302 -0.0407
27027W        W42158  16.905   7.534  14.013  0.3008  0.2658 -0.2532
27028W        W42159   6.224   2.225   5.871  0.0612 -0.0245  0.0236
27029W        W42160   7.025   3.116   0.976  0.0530 -0.2653  0.0663
27030W        W42161   9.081  12.084  15.711  0.2601 -0.1040  0.2144
27031W        W42162  15.124   7.382  11.131  0.0483 -0.1324 -0.0418
27032W        W42163   9.624   7.255   4.541  0.1193  0.0123 -0.2398
27033W        W42164   9.282   1.774  13.765 -0.1336 -0.0818 -0.2622
27034W        W42165   4.665  16.099   1.404  0.3200 -0.1144 -0.0252
27035W        W42166   3.362   8.958  12.776  0.1146  0.2799 -0.0113
27036W        W42167  15.276  16.055   0.769 -0.0726  0.1092  0.1146
27037W        W42168  13.890   4.674   4.009  0.3552  0.0557  0.1935
27038W        W42169   7.759   6.344   1.678  0.1900 -0.2548  0.0174
27039W        W42170   8.460  17.076   3.186  0.1151 -0.0668  0.0453
27040W        W42171   6.747  14.834  12.256  0.2383 -0.1042 -0.0516
27041W        W42172   1.823   6.627   4.448 -0.2002  0.0768  0.1692
27042W        W42173   2.793  16.510  12.134 -0.0273 -0.1719 -0.3487
27043W        W42174  15.268   4.767  13.817 -0.0438  0.0468  0.1176
27044W        W42175  16.263   8.397  13.358  0.0377  0.1923 -0.2108
27045W        W42176  10.046  16.733  16.142 -0.0024 -0.0263 -0.0672
27046W        W42177   5.520   7.006   2.010 -0.5113  0.1707 -0.2359
27047W        W42178  17.982   1.843   3.167  0.0161 -0.0397  0.1252
27048W        W42179  14.649   7.829  14.657  0.0512  0.0885 -0.3819
27049W        W42180  11.313  17.563   1.649 -0.1213 -0.1506  0.1116
27050W        W42181  17.273  16.751  12.671 -0.1172 -0.1816  0.1103
27051W        W42182   2.390  13.913  15.640 -0.0180  0.0565  0.2797
27052W        W42183   4.162  10.544   0.251  0.0229  0.1513 -0.1778
27053W        W42184  18.052  17.219   0.973  0.1067  0.0602 -0.1379
27054W        W42185   3.780   6.637   2.367 -0.1946  0.0912 -0.1744
27055W        W42186   6.297   4.058   4.627 -0.1998  0.0133 -0.0223
27056W        W42187   5.007  14.574   2.935  0.2710 -0.0680 -0.0838
27057W        W42188  16.965   4.322  12.122 -0.1915  0.1615  0.2236
27058W        W42189   8.964   2.419   1.796 -0.2360 -0.0470  0.4497
27059W        W42190  14.648  15.216   2.319  0.2515  0.1436  0.1447
27060W        W42191  11.705  10.463  14.406  0.0727 -0.1324 -0.2392
27061W        W42192   5.362   4.940  12.644  0.2022 -0.2346 -0.0277
27062W        W42193   8.038   3.205  10.647 -0.1081 -0.3245  0.0523
27063W        W42194   8.266  10.486   2.574  0.0615 -0.0043  0.0288
27064W        W42195  12.620   6.260   0.702  0.1063 -0.0660  0.2874
27065W        W42196   5.058  16.460   5.059  0.0522 -0.2995  0.2317
27066W        W42197  12.672  14.306   2.102  0.0181 -0.0317  0.3973
27067W        W42198   5.241   9.013  13.996  0.0649 -0.1702  0.0485
27068W        W42199   6.159   2.519   1.905 -0.1066 -0.0776 -0.0328
27069W        W42200   1.765  17.020   3.873  0.0415  0.0214 -0.0728
27070W        W42201   5.788   9.010   1.280  0.0415 -0.1769  0.3384
27071W        W42202  11.468  15.380  12.833  0.2079  0.0061 -0.1472
27072W        W42203  11.467   9.824   1.689  0.1724  0.0426  0.2451
27073W        W42204  14.217   9.742   0.965  0.3232 -0.0275 -0.2408
27074W        W42205  15.984   7.997   3.838 -0.2130  0.1054  0.0526
27075W        W42206   0.138  15.260  15.820  0.1204 -0.0722  0.0814
27076W        W42207   0.640  16.118   2.540  0.1794  0.0107  0.0005
27077W        W42208  10.665  17.871   0.908  0.0217 -0.4271  0.0923
27078W        W42209   2.221  16.927  15.129 -0.0628 -0.0168 -0.0914
27079W        W42210   1.090  13.788   4.180  0.0855  0.2457 -0.1336
27080W        W42211   1.701   7.124   2.356 -0.1025 -0.0765 -0.0656
27081W        W42212   2.462   6.990   5.694 -0.2652  0.1532 -0.1365
27082W        W42213  15.531  13.672   0.783  0.0568 -0.1568 -0.0314
27083W        W42214   4.647  10.198   0.366  0.2289 -0.0768  0.1965
27084W        W42215   2.821   8.387  13.281 -0.1567  0.3130  0.2021
27085W        W42216  11.129  13.198   2.815  0.2909  0.1789 -0.2979
27086W        W42217   7.070  11.045  15.679 -0.3007  0.2228  0.0421
27087W        W42218   3.396   7.404  16.237  0.1178  0.0695  0.1809
27088W        W42219  14.361   6.556   0.488 -0.2517 -0.1687  0.3382
27089W        W42220   2.043  15.689  11.795 -0.0935 -0.0407  0.0051
27090W        W42221  12.386   4.858  16.159 -0.0693  0.2862  0.1668
27091W        W42222  13.064  15.415   4.596  0.1731  0.1570 -0.1591
27092W        W42223   5.190  11.580  12.166 -0.3500  0.2337  0.1284
27093W        W42224  10.508   2.046   2.963 -0.1085 -0.0282  0.1408
27094W        W42225   1.697  14.241   4.383 -0.2856  0.0298  0.1327
27095W        W42226   7.990  16.091   5.356  0.1722 -0.0537  0.2397
27096W        W42227   5.534  16.437  12.471  0.4365 -0.0027  0.0150
27097W        W42228   7.457  12.066  13.626  0.1218 -0.2082 -0.0982
27098W        W42229  14.692   6.419   2.934  0.0907  0.0488 -0.1680
27099W        W42230  10.987  11.951   2.302 -0.0025  0.0488 -0.3760
27100W        W42231  14.846  11.254   4.738 -0.1390  0.3238  0.3132
27101W        W42232  14.301  17.713   4.629  0.2147 -0.0058  0.0645
27102W        W42233   0.500  10.823  13.778 -0.1876 -0.1076 -0.2800
27103W        W42234  14.720  13.193  12.819 -0.2118  0.2900 -0.0576
27104W        W42235   7.903   2.871   0.878  0.2250 -0.0825  0.0514
27105W        W42236   6.671  12.867   1.833  0.0239  0.2304  0.0631
27106W        W42237   6.791  14.031   5.201 -0.2379 -0.1827  0.0510
27107W        W42238   5.637   4.671   5.385 -0.0293  0.1373 -0.1037
27108W        W42239  14.618   0.217  15.325 -0.0586 -0.0485 -0.1954
27109W        W42240   6.125   8.521  13.661  0.0006 -0.1077  0.3625
27110W        W42241   1.638  17.172   9.754  0.0421  0.0967 -0.1078
27111W        W42242  13.519  12.412   5.477  0.0080  0.1039 -0.1885
27112W        W42243   9.718  11.590  14.876  0.0930  0.2423 -0.5813
27113W        W42244  10.351   7.701  13.341 -0.0929 -0.1118 -0.0974
27114W        W42245   2.298  14.470   5.088  0.0535 -0.2051 -0.0370
27115W        W42246   9.801  14.682  10.557 -0.3869 -0.1619 -0.1290
27116W        W42247  14.245   6.720   2.947 -0.2625  0.3911  0.1006
27117W        W42248   6.528   9.398   4.238  0.0573  0.1077 -0.1856
27118W        W42249   5.594  16.032   2.969 -0.0764  0.0076  0.3137
27119W        W42250   5.885   0.479  10.468  0.0815  0.1735 -0.1411
27120W        W42251   6.288   4.467   4.192  0.2164  0.0512  0.1654
27121W        W42252  16.661  12.474   0.812  0.1353  0.0774 -0.0759
27122W        W42253  12.164   9.423  14.515 -0.0293  0.1469  0.3778
27123W        W42254   0.185  14.175  13.202 -0.2397 -0.1165  0.3451
27124W        W42255  15.028   3.811  12.860 -0.0022 -0.0535  0.0429
27125W        W42256  15.617  10.863  11.136 -0.2270 -0.1412 -0.0767
27126W        W42257   7.919   5.726  12.973  0.0053  0.3611 -0.0287
27127W        W42258  14.177  10.020  14.014 -0.0957 -0.0215  0.2235
27128W        W42259   6.689   0.758   4.908  0.0694 -0.1953 -0.1981
27129W        W42260  17.362  10.241   5.599 -0.2383 -0.1659 -0.0815
27130W        W42261   7.030   6.905  13.606 -0.2128 -0.1087  0.3048
27131W        W42262   2.773  18.006  15.923  0.4958 -0.1037 -0.0204
27132W        W42263   2.090  10.184   3.592  0.2185  0.2402 -0.3343
27133W        W42264  14.152   7.966   5.546  0.2191 -0.2221  0.2233
27134W        W42265   6.306   4.447   5.667 -0.1410  0.0259  0.0073
27135W        W42266  10.347   5.125   5.298  0.4829  0.2866  0.3010
27136W        W42267  15.745   0.979  11.106  0.0526  0.1754  0.1523
27137W        W42268   2.449  11.274   1.742  0.2213  0.1748 -0.2105
27138W        W42269   9.407   7.663  14.971 -0.2096 -0.0844  0.0711
27139W        W42270   9.452  11.362  16.078 -0.0577 -0.2686  0.0400
27140W        W42271   6.673   3.876   3.321  0.1141 -0.2485  0.1866
27141W        W42272  15.754   7.965   0.000  0.2935  0.2176 -0.4342
27142W        W42273  15.047   6.005  12.464 -0.0585  0.0524  0.0023
27143W        W42274   7.503   2.423  15.645  0.3829  0.3132  0.0949
27144W        W42275   6.563  16.652  15.597  0.1009 -0.1644  0.1356
27145W        W42276   7.848   5.837   1.681 -0.0959  0.2094 -0.0594
27146W        W42277  10.892   1.486   2.476 -0.1137  0.0843  0.2301
27147W        W42278   4.059   0.434  15.428  0.1239 -0.0606  0.0245
27148W        W42279   5.688  10.792  12.230  0.0434  0.2621 -0.1098
27149W        W42280  11.443  17.098  11.088 -0.0126  0.0099 -0.1236
27150W        W42281  13.125  14.759   0.466  0.0505  0.1748  0.1208
27151W        W42282   1.279  17.974   2.994  0.1131  0.1211 -0.1035
27152W        W42283  18.076   1.707  10.779 -0.0055  0.0353  0.0146
27153W        W42284  15.952  15.883   4.837  0.0382  0.1101 -0.3689
27154W        W42285  16.666   4.044  15.493 -0.1920  0.0183  0.1125
27155W        W42286   4.448   4.425   1.366 -0.0170  0.2512  0.0181
27156W        W42287   0.551   6.600  15.818 -0.1541 -0.1615 -0.0912
27157W        W42288   5.535  14.176   3.688  0.0626  0.0983  0.0787
27158W        W42289   8.602   1.038  13.579  0.2178  0.1357  0.1586
27159W        W42290   5.232  17.184   0.492 -0.0020  0.1198  0.1057
27160W        W42291  14.113   9.738  14.492  0.5518  0.0172  0.0845
27161W        W42292   3.099  10.066   1.016  0.0711  0.3172  0.0448
27162W        W42293   5.136  17.112   5.913 -0.2127 -0.0274  0.1011
27163W        W42294   2.649   9.728  12.929  0.0855 -0.2678  0.1917
27164W        W42295   7.368  14.688  15.989  0.2742 -0.0345 -0.0407
27165W        W42296   1.184   7.961   1.025  0.0498 -0.3739  0.0751
27166W        W42297   4.333  12.235  14.666 -0.0092 -0.0927 -0.2683
27167W        W42298  10.834   8.992   3.448 -0.1965  0.1165  0.1633
27168W        W42299  12.498   4.666   0.831 -0.1874  0.0367 -0.0220
27169W        W42300   1.165   6.780  14.649 -0.1533  0.5475 -0.0548
27170W        W42301  11.344   4.047  10.575 -0.2324 -0.2906 -0.0625
27171W        W42302   0.895  12.219   3.852 -0.2062  0.2251  0.0261
27172W        W42303   9.140  12.420  12.315  0.0009 -0.0971 -0.0119
27173W        W42304  13.573   4.074   1.541  0.2003  0.2096  0.0773
27174W        W42305  15.101   1.864  10.561 -0.0636  0.3821 -0.1595
27175W        W42306  17.676   9.114   2.307  0.4580  0.1870  0.2141
27176W        W42307  13.658   4.734   0.166 -0.1303  0.0958  0.0707
27177W        W42308  16.533   2.612  13.165 -0.0437 -0.0100  0.0644
27178W        W42309   0.737  13.112  11.310  0.1016 -0.0981 -0.0847
27179W        W42310   2.118   3.620   4.176 -0.0379  0.2653  0.1958
27180W        W42311   6.620  17.047  11.895 -0.0235  0.1042 -0.1482
27181W        W42312   2.877  11.501   5.498  0.0455 -0.2030 -0.2331
27182W        W42313   3.530   0.177   2.005  0.4361  0.0632 -0.1087
27183W        W42314  16.164  13.513  12.081  0.0389 -0.1190  0.1071
27184W        W42315   7.071   6.348  12.478 -0.0687  0.1627 -0.1338
27185W        W42316   2.160  17.271   0.223  0.1573 -0.2119  0.1118
27186W        W42317   0.707  12.411   2.168  0.0261 -0.2546  0.0005
27187W        W42318   8.545   6.772  11.816 -0.4116  0.0996 -0.0891
27188W        W42319  14.145  14.726   3.691  0.1672  0.2407 -0.0483
27189W        W42320   4.581  16.802   0.400  0.1293 -0.0384  0.3547
27190W        W42321  11.910   4.971   4.101  0.0450  0.2367 -0.2245
27191W        W42322  17.610  11.760   4.471  0.2288  0.0792  0.0409
27192W        W42323  16.727   6.147  14.452  0.0422 -0.0758 -0.1058
27193W        W42324  13.178   2.393   5.175  0.0184  0.2059 -0.1609
27194W        W42325  16.099  15.928  14.935 -0.1351 -0.1984  0.1069
27195W        W42326   5.397   9.831   1.188  0.0981  0.2024 -0.0546
27196W        W42327   9.268   5.914  15.462 -0.0739  0.2757  0.2000
27197W        W42328  16.146   2.630  15.442  0.2379  0.3478  0.1835
27198W        W42329  16.620   9.652  11.834 -0.1225 -0.0689 -0.1758
27199W        W42330  12.870   6.446   3.580  0.0554  0.0012  0.1980
27200W        W42331   8.523   5.651   6.041  0.0368 -0.2075  0.0149
27201W        W42332   2.631   2.186  15.613  0.1363 -0.3385  0.0304
27202W        W42333   9.538  13.971  15.331 -0.2490 -0.1942 -0.0938
27203W        W42334  15.714  16.282   3.832 -0.0824  0.0490  0.1251
27204W        W42335   6.368  16.769  16.029  0.2143 -0.1330  0.0145
27205W        W42336  14.123   4.257   3.720 -0.2717 -0.2221  0.0193
27206W        W42337  10.303  14.733   1.659 -0.0441  0.2787 -0.1014
27207W        W42338  17.620   2.794  15.002  0.1149 -0.1209 -0.2841
27208W        W42339  15.435   9.995   1.458  0.0461  0.0397  0.2356
27209W        W42340  14.960   1.222  14.802  0.0349 -0.3791  0.1162
27210W        W42341   1.736  11.284   1.688  0.1178  0.0305 -0.0998
27211W        W42342  15.844   1.082   0.961  0.1152  0.4265 -0.1394
27212W        W42343  13.585  10.647   4.624  0.2622  0.1501  0.1716
27213W        W42344  16.996   5.759  14.226 -0.1679 -0.1707 -0.5820
27214W        W42345  10.126   4.777  15.936 -0.0485  0.3015 -0.1180
27215W        W42346  10.614  17.503   1.625 -0.0650  0.2229 -0.0366
27216W        W42347   8.981   7.392   5.601  0.0570  0.0006  0.0425
27217W        W42348   1.518  12.192  11.644 -0.1377  0.2607  0.0161
27218W        W42349  10.755   1.482   0.540  0.2520 -0.1063 -0.1588
27219W        W42350  14.967   5.034  15.626  0.5198 -0.0437 -0.0472
27220W        W42351  13.810  15.872  15.704  0.0767  0.3916 -0.0453
27221W        W42352   9.059  18.020   4.897  0.2736  0.3326  0.0649
27222W        W42353  12.839   8.544   2.471  0.0592  0.0354  0.2146
27223W        W42354   8.160   3.046   0.432  0.0081  0.0952 -0.3133
27224W        W42355   4.313   2.588   2.333 -0.1702 -0.0932 -0.4129
27225W        W42356   3.666  16.829  11.088  0.0915 -0.0449 -0.1743
27226W        W42357   6.210   1.718   4.851 -0.2307 -0.1773  0.1831
27227W        W42358   7.469   8.553  11.696  0.1151 -0.0278 -0.1220
27228W        W42359  14.768  11.493  15.868  0.2926 -0.1351  0.1009
27229W        W42360   9.660   8.524  12.424 -0.0871  0.0584  0.0174
27230W        W42361  12.669  14.746   4.828 -0.5736 -0.1634 -0.2890
27231W        W42362  14.940  13.597   1.000 -0.0805  0.2476 -0.1625
27232W        W42363  12.654  14.533  15.116  0.1391 -0.1354 -0.0836
27233W        W42364   8.514   3.496  11.326  0.4468 -0.0532 -0.1509
27234W        W42365  16.285   6.847   3.648  0.2512  0.3199  0.1590
27235W        W42366   2.411   0.217   1.907  0.0441  0.3373 -0.3260
27236W        W42367  13.711   4.841  15.817  0.0237 -0.0482 -0.0260
27237W        W42368   9.617  14.082   2.223  0.0281 -0.0644  0.0433
27238W        W42369   9.241   0.761  15.383  0.0889  0.0329  0.1543
27239W        W42370   5.637   7.916   3.639  0.0868 -0.1526  0.2465
27240W        W42371   6.556  13.656   0.069  0.2640  0.1010  0.1264
27241W        W42372   5.540   0.299   0.937 -0.0902 -0.0985 -0.3547
27242W        W42373  16.102  11.384  13.571 -0.1001 -0.1891  0.0156
27243W        W42374   9.585  12.520  12.198 -0.0583 -0.0158 -0.3179
27244W        W42375  18.073   9.850   5.019  0.2917 -0.2241 -0.2066
27245W        W42376  14.187  13.841   3.417  0.2140  0.0387 -0.0946
27246W        W42377   4.470   0.304   1.126  0.0829 -0.2740  0.0874
27247W        W42378   6.944  15.296   0.549 -0.0689 -0.0938 -0.1484
27248W        W42379  15.123   5.765   4.866 -0.3038  0.1927 -0.0079
27249W        W42380   4.927   6.550   1.907  0.0087 -0.1750 -0.0931
27250W        W42381   5.406   9.478  14.920 -0.1017  0.3431 -0.2892
27251W        W42382   9.336  13.422   4.754 -0.0726 -0.1205  0.2165
27252W        W42383   1.037   6.351  12.464  0.0425 -0.0954 -0.1781
27253W        W42384   8.734  13.849   4.062 -0.0697 -0.0852  0.3780
27254W        W42385  10.117  11.663   2.284  0.1898 -0.2272 -0.1515
27255W        W42386   1.463   5.411  14.670 -0.1003  0.1838  0.0945
27256W        W42387   8.830   4.402   4.779 -0.1991  0.1708  0.2318
27257W        W42388  11.025   0.190   4.035  0.0471  0.0329 -0.2259
27258W        W42389   2.255  16.873  14.458  0.1871 -0.1464 -0.0101
27259W        W42390   3.541  16.556  10.713 -0.1188  0.3511  0.1318
27260W        W42391  14.952  17.330   0.165  0.5090  0.0041 -0.2315
27261W        W42392   8.176  17.031   1.523 -0.0181 -0.0755 -0.0797
27262W        W42393   7.936   4.491   2.055 -0.3382 -0.1249  0.0028
27263W        W42394  11.981  11.782   1.610  0.1662 -0.0377  0.0483
27264W        W42395  11.718  17.577  11.872  0.1588  0.0168 -0.0878
27265W        W42396   5.160   3.110   0.854 -0.3165 -0.1225 -0.2434
27266W        W42397  14.290  11.021   0.437 -0.1482  0.3540  0.2524
27267W        W42398  14.773  16.201  14.172 -0.2175  0.0184  0.1348
27268W        W42399  11.640   5.448  12.115  0.2506  0.0995  0.0307
27269W        W42400   2.416   8.681  13.179  0.3159  0.0767  0.1731
27270W        W42401   0.194  16.894   2.096 -0.1025 -0.1370  0.0349
27271W        W42402   0.130  14.941  16.232  0.0341  0.1880  0.1548
27272W        W42403   7.014   8.009   4.161 -0.1687  0.1403 -0.1005
27273W        W42404   5.253  17.662   2.415  0.0575 -0.1648 -0.0991
27274W        W42405   4.992   0.028  12.566 -0.0111 -0.0646 -0.0192
27275W        W42406   9.572   2.152  13.919  0.0743  0.0697 -0.0239
27276W        W42407  15.341  14.738   3.000 -0.2602 -0.3286  0.0657
27277W        W42408  16.769   1.892   2.502  0.2057 -0.0247  0.1201
27278W        W42409   0.618   3.192   4.732 -0.3519  0.2119  0.2384
27279W        W42410  14.075  11.720  15.336 -0.0987 -0.0183  0.0725
27280W        W42411   0.347  17.603  12.710  0.0422 -0.0455 -0.0686
27281W        W42412   2.328  11.949  11.430 -0.1973  0.0463 -0.3434
27282W        W42413   5.791   4.958  15.887  0.2484  0.4035 -0.1856
27283W        W42414  12.067   1.450   0.499  0.1178  0.1819  0.0921
27284W        W42415   9.392   9.510  15.716 -0.0479 -0.0373  0.0503
27285W        W42416   9.559   7.886  11.907  0.0539 -0.1460  0.3645
27286W        W42417   9.825   0.914  15.173  0.1648  0.2666 -0.0233
27287W        W42418   1.380   2.299   4.345 -0.0406  0.0754 -0.0419
27288W        W42419   4.719  14.163   3.049 -0.1888  0.0609  0.0329
27289W        W42420   7.672  14.968   0.123  0.0422  0.0661 -0.3738
27290W        W42421   4.748  16.229  12.877 -0.1022 -0.1850 -0.0681
27291W        W42422   0.116   7.651  12.616  0.1341 -0.0257 -0.2028
27292W        W42423   4.508  14.843  12.331 -0.0476 -0.0205 -0.1352
27293W        W42424   4.633   6.392  14.709 -0.0940  0.4137 -0.0170
27294W        W42425   4.784   6.006  13.359  0.0178  0.1550 -0.0156
27295W        W42426  17.914  10.896  12.362 -0.2272 -0.2570 -0.0349
27296W        W42427  14.287   8.515  12.196 -0.1458 -0.1348  0.0558
27297W        W42428  10.598   1.180   1.845 -0.0365  0.2056 -0.2165
27298W        W42429   4.318  17.934   5.554 -0.0987 -0.1620  0.0360
27299W        W42430  14.510  16.760   0.842  0.2279 -0.3675 -0.1039
27300W        W42431  10.285  12.215  14.475 -0.2062  0.0735 -0.1799
27301W        W42432   5.350   0.433  10.744  0.0297 -0.0512  0.1811
27302W        W42433  17.699  11.458   4.911  0.1381  0.0402 -0.1101
27303W        W42434   0.658   3.010  11.768 -0.0527 -0.0431  0.0086
27304W        W42435  16.246  13.175   5.206  0.1738 -0.0697  0.2230
27305W        W42436   8.980  10.453  14.566 -0.1332  0.2096  0.2036
27306W        W42437   3.613   0.216  12.076  0.0060  0.1134 -0.1019
27307W        W42438  17.382   0.704   3.538 -0.1387  0.3066 -0.0481
27308W        W42439   8.466   6.220   0.857  0.2543  0.0639 -0.0517
27309W        W42440   8.258   1.262  12.220  0.1956  0.1030 -0.0883
27310W        W42441  15.159  14.495  14.016 -0.2520  0.1359  0.0014
27311W        W42442   6.230   7.801   4.758 -0.1428  0.3197  0.0804
27312W        W42443   4.265   4.805   2.204 -0.2242  0.0033 -0.0407
27313W        W42444  13.877   0.686  12.027 -0.0584  0.0167 -0.0054
27314W        W42445   6.117   0.348  15.767  0.1114  0.2270 -0.1003
27315W        W42446  14.744   7.872   6.068  0.0645  0.0139  0.0713
27316W        W42447   2.944  14.428  14.277 -0.1062 -0.3557  0.0955
27317W        W42448  13.622  10.388  13.954 -0.0415 -0.0011  0.3180
27318W        W42449   3.580   2.995   4.853 -0.0470  0.0594 -0.1862
27319W        W42450  12.258   5.356   1.252 -0.2881 -0.0764 -0.0777
27320W        W42451  13.240  16.600  12.891  0.2917  0.0574 -0.1845
27321W        W42452  14.587   8.004  14.144  0.3147 -0.0217  0.1677
27322W        W42453  11.095   8.878  12.699  0.2115 -0.0079  0.1158
27323W        W42454  16.983   5.379   2.016 -0.0198 -0.0714  0.1584
27324W        W42455  17.310   6.438  15.269  0.0503 -0.0731 -0.1116
27325W        W42456  11.837  12.096   0.270  0.1323 -0.2014 -0.1630
27326W        W42457   0.496   5.659   4.598 -0.0158  0.0085 -0.2055
27327W        W42458   4.237  16.072  13.878 -0.0399  0.1420  0.1150
27328W        W42459  12.767   0.983  15.770 -0.2349  0.1223 -0.1357
27329W        W42460   9.346  16.175  14.388 -0.0753 -0.2097  0.3412
27330W        W42461   0.992  15.682   0.311  0.1051 -0.0860  0.1486
27331W        W42462  13.551   7.257  12.953  0.2035  0.3380  0.0100
27332W        W42463   7.608  13.700  14.622  0.2899  0.2773  0.2806
27333W        W42464  12.978   5.035  15.104 -0.0966  0.1257  0.0962
27334W        W42465  11.339  12.100  11.972  0.3623  0.1012 -0.1166
27335W        W42466  12.369   0.512  12.228  0.1996  0.2382 -0.3383
27336W        W42467   1.067   6.627   5.740  0.2170  0.4721 -0.3619
27337W        W42468  14.073   4.989   3.052 -0.1495  0.2493  0.0413
27338W        W42469  15.764  13.072  16.140 -0.1635 -0.2344 -0.2753
27339W        W42470   8.658  17.105   4.788  0.2212  0.2822  0.3291
27340W        W42471   0.765  12.182   1.682  0.2636  0.0496  0.1951
27341W        W42472   1.560   5.601  15.222 -0.0915 -0.1062  0.0694
27342W        W42473   2.733  12.060   1.212  0.1316 -0.1996 -0.0498
27343W        W42474   3.656   1.609  11.698  0.1252  0.1292 -0.0187
27344W        W42475  13.278   2.459   2.072 -0.0242 -0.0492 -0.0277
27345W        W42476  16.251   4.820   5.140 -0.1772  0.0462  0.0221
27346W        W42477   9.598  17.012   1.408  0.1597  0.0220  0.0184
27347W        W42478  14.136   5.389  11.244 -0.1751 -0.1092 -0.0201
27348W        W42479   1.231   0.661   5.817  0.2715  0.2628  0.0773
27349W        W42480  17.778   1.699  10.309 -0.5260 -0.0114 -0.2898
27350W        W42481  11.127  17.704  15.083 -0.0104  0.3097  0.0103
27351W        W42482   5.291  12.843  11.031 -0.0840  0.0835  0.2808
27352W        W42483  16.617   7.333  16.229 -0.0044 -0.1752  0.1608
27353W        W42484  11.565   6.873   4.494  0.3011  0.0352 -0.0814
27354W        W42485  17.760  14.142  10.684 -0.1426 -0.1444  0.1078
27355W        W42486   6.947  16.574  16.005  0.1484 -0.1319 -0.3663
27356W        W42487   5.492   2.204  15.850  0.2291  0.3912  0.3359
27357W        W42488   4.902   5.079  12.759  0.0009 -0.0755 -0.0143
27358W        W42489  17.695   1.131   0.731 -0.1244 -0.2599  0.1156
27359W        W42490  16.792  14.337   2.186  0.1767 -0.0391  0.2622
27360W        W42491   8.422   5.425  14.148  0.2847 -0.2178  0.0099
27361W        W42492   6.710  16.965  11.120  0.2118 -0.2484  0.0499
27362W        W42493  13.709  10.976   1.077  0.1845  0.0818 -0.0850
27363W        W42494   4.473   9.760  14.468 -0.0357  0.2040 -0.0416
27364W        W42495  10.942   6.116  15.582 -0.3187 -0.0679 -0.3008
27365W        W42496  12.888   7.597   1.022 -0.1194  0.0924  0.3042
27366W        W42497   7.313  17.735   2.111  0.1824  0.1677 -0.0117
27367W        W42498   9.039  17.336  13.972  0.2128 -0.0269 -0.0188
27368W        W42499   5.671  14.532   0.614 -0.2586  0.0756  0.2476
27369W        W42500   4.677  15.720   5.277 -0.2957 -0.0009 -0.0900
27370W        W42501  15.638   7.021   0.421  0.0665 -0.0534 -0.0787
27371W        W42502  17.265  16.754  13.976 -0.2388  0.3489  0.2985
27372W        W42503  12.988   4.909  12.090 -0.0168  0.1032 -0.2698
27373W        W42504   9.802   3.683  12.339 -0.1039 -0.3937 -0.2295
27374W        W42505   3.536   0.582   3.152  0.1340  0.4030  0.0588
27375W        W42506  15.262   9.936  14.599  0.0703  0.0534  0.1578
27376W        W42507   5.190  14.566  11.300  0.0806 -0.0083 -0.0401
27377W        W42508   2.050  14.553   4.287 -0.2302 -0.0191  0.0630
27378W        W42509   7.505  10.367   0.096 -0.0394  0.0123 -0.0700
27379W        W42510   0.682   5.185   0.012  0.0201 -0.1542  0.0892
27380W        W42511  13.166   4.838   4.659 -0.0137 -0.3637 -0.1649
27381W        W42512   4.842   2.936  11.847 -0.0965  0.2715  0.0757
27382W        W42513  11.796  15.302   1.802  0.0999  0.1270  0.1343
27383W        W42514   6.209  11.060   4.851  0.2063 -0.1346 -0.0690
27384W        W42515   1.810  10.954   3.548  0.3248  0.1219 -0.1652
27385W        W42516   5.061   4.723  11.235 -0.1105  0.0706 -0.0991
27386W        W42517  14.019  17.917   4.998  0.0583  0.2332  0.2639
27387W        W42518   4.781   4.090   3.860  0.0527 -0.0241 -0.0214
27388W        W42519   2.381   3.807  11.193  0.0830  0.0369 -0.2425
27389W        W42520   2.566  11.291  13.728 -0.2263  0.0199 -0.1826
27390W        W42521   9.180   9.597   3.438 -0.0608 -0.0006  0.2170
27391W        W42522   7.322   6.699   0.230 -0.2014 -0.1252 -0.2222
27392W        W42523   6.359  10.091   0.914 -0.0016 -0.2563 -0.3312
27393W        W42524   8.039   5.581  11.782 -0.3104 -0.1348  0.2052
27394W        W42525  17.245   4.909   0.100 -0.1412 -0.0398  0.0063
27395W        W42526  15.729   4.490   0.855 -0.3111 -0.0269 -0.0056
27396W        W42527   8.246   0.708  13.388  0.0532  0.5124 -0.3826
27397W        W42528   6.459   4.622  13.013 -0.1983  0.1311 -0.3196
27398W        W42529   3.059  10.955   4.850  0.3554 -0.1072 -0.0453
27399W        W42530  17.909  11.597   1.835 -0.2511  0.1171 -0.0347
27400W        W42531   3.722  15.634  16.101 -0.3545 -0.0437 -0.2415
27401W        W42532  11.344  15.156  14.086  0.0142  0.1604 -0.3234
27402W        W42533   3.144  10.383   0.399  0.4393  0.1693 -0.1736
27403W        W42534   8.531  17.999   5.203 -0.0388  0.0584 -0.2280
27404W        W42535   3.098  12.416   4.421  0.0628 -0.1260 -0.0979
27405W        W42536  11.668   5.429   0.608  0.0133 -0.2182  0.2727
27406W        W42537   3.940   0.082   3.801  0.0229 -0.0143  0.0951
27407W        W42538   6.840  14.811  16.121  0.2313 -0.0950  0.0720
27408W        W42539  10.036   1.217  11.670  0.1172 -0.0624  0.0891
27409W        W42540  14.478  14.150  15.692  0.2240 -0.1846 -0.3580
27410W        W42541   9.881   9.420  15.809  0.0377 -0.1823  0.4532
27411W        W42542  12.643  16.952  11.318 -0.0062  0.2109  0.1586
27412W        W42543  10.157   1.823  11.817 -0.0147 -0.1494  0.1618
27413W        W42544   8.904  11.178  16.239 -0.1655  0.0093  0.2553
27414W        W42545  13.294   6.764   4.643 -0.2926  0.1283  0.0371
27415W        W42546   2.214   9.011  12.231  0.2457  0.2054  0.1251
27416W        W42547   6.277  10.658   3.794 -0.0252  0.0580 -0.4675
27417W        W42548  15.886   6.339  11.683  0.1239  0.1289 -0.0170
27418W        W42549   4.765  17.634   4.109  0.0600  0.0877 -0.1151
27419W        W42550  13.694  17.568  11.185 -0.3702 -0.2358 -0.3106
27420W        W42551  12.164  10.157  11.462 -0.3593  0.3411  0.0380
27421W        W42552  14.078  17.257   0.423 -0.1375 -0.2617  0.2447
27422W        W42553   1.611   7.788  11.746  0.1866 -0.1399 -0.0953
27423W        W42554   1.477  11.601  14.257  0.2492  0.0400  0.1933
27424W        W42555  14.845   0.816  15.035  0.1116  0.1298 -0.0262
27425W        W42556   0.807  13.437  14.891 -0.0975 -0.0867  0.2226
27426W        W42557   6.420  15.643  16.066  0.1312  0.1911  0.0526
27427W        W42558   8.039  14.108  11.022 -0.2193  0.2549 -0.1578
27428W        W42559   7.504   0.004  10.844 -0.0046 -0.0633  0.0844
27429W        W42560   4.617  13.016   0.653 -0.0857  0.3214  0.1155
27430W        W42561   3.968  16.391   3.538  0.1535 -0.1915 -0.2415
27431W        W42562  10.444   3.469   2.605 -0.1828  0.0583 -0.3434
27432W        W42563   1.810  10.799   2.988  0.0522 -0.1263  0.1254
27433W        W42564   4.243   8.067  15.404  0.2660  0.2346 -0.2459
27434W        W42565  10.577  13.786   5.131  0.1294  0.1417  0.1837
27435W        W42566  10.979   5.264   1.837  0.2101  0.0363  0.0308
27436W        W42567   1.663   7.471  10.371  0.3130 -0.0835  0.1234
27437W        W42568  13.442   7.832   1.131 -0.0231 -0.0999  0.1306
27438W        W42569   6.427  10.509   2.736  0.3314 -0.1395  0.1623
27439W        W42570   7.914   3.916   0.427 -0.0832  0.0987 -0.1251
27440W        W42571   2.537   3.990   3.846  0.3355 -0.0700  0.1236
27441W        W42572   8.153  16.458   1.079 -0.0445 -0.1529 -0.0516
27442W        W42573   9.637   1.863  14.896 -0.1431 -0.0522  0.0034
27443W        W42574   4.786   1.016   2.328  0.0645 -0.2880  0.0294
27444W        W42575   0.592  14.286  14.122 -0.1327 -0.1505 -0.1454
27445W        W42576  16.644  17.636   5.048  0.3583 -0.2087  0.0044
27446W        W42577   9.416  17.646   4.079 -0.0655 -0.0091  0.0138
27447W        W42578  16.962  17.137  11.736 -0.2148 -0.0838 -0.0927
27448W        W42579  17.223  13.352  13.056 -0.2576 -0.0623 -0.0942
27449W        W42580  10.673  17.183  10.249  0.1050 -0.3133 -0.2342
27450W        W42581   9.846   3.536  14.788  0.0252 -0.2452 -0.0512
27451W        W42582   6.977  17.024   5.216  0.1495  0.1639 -0.2192
27452W        W42583   4.487  11.673  15.086  0.0891  0.1346  0.0589
27453W        W42584   6.732  13.522   0.525 -0.1851  0.4140 -0.2183
27454W        W42585   9.800   1.282  14.181 -0.2294  0.0772  0.2377
27455W        W42586  16.186  10.519  10.457 -0.1509  0.2154 -0.3901
27456W        W42587   1.236  12.778   0.670 -0.0726  0.0898  0.1122
27457W        W42588  17.104  15.738  14.640  0.1579 -0.1024 -0.2942
27458W        W42589  10.857   0.028  15.035 -0.1122  0.0251  0.1357
27459W        W42590   3.174   5.803   2.947  0.0161 -0.0739 -0.0127
27460W        W42591  15.240   6.789  11.652  0.0357  0.1570 -0.0797
27461W        W42592  15.810  11.901  13.126 -0.2143  0.0925 -0.1247
27462W        W42593  10.017   3.754   4.347  0.0498  0.0378  0.1806
27463W        W42594  12.667  14.352   6.445 -0.1209 -0.1473  0.1454
27464W        W42595  17.036   7.180   3.996  0.1476  0.3900 -0.1966
27465W        W42596   9.728   6.461   0.474 -0.1125 -0.1395 -0.1425
27466W        W42597  12.484   2.200  13.062  0.1138  0.0200  0.4298
27467W        W42598  17.815   9.257  15.082 -0.2276 -0.3692  0.1149
27468W        W42599   0.653   1.830  15.996  0.4726 -0.1768 -0.0382
27469W        W42600  12.853   4.543   2.181  0.2676 -0.0355  0.1449
27470W        W42601   5.363   0.813  11.490  0.0807 -0.1034 -0.0348
27471W        W42602   9.609   9.213  15.326 -0.2307  0.0104  0.0080
27472W        W42603   8.152  13.898   4.190  0.1268  0.1005 -0.2604
27473W        W42604   4.547  13.614   1.717 -0.0679  0.4207 -0.0465
27474W        W42605   3.499   7.400  10.164 -0.1947 -0.0175 -0.0142
27475W        W42606   8.742  12.617   1.774  0.3127 -0.1784  0.3210
27476W        W42607  14.105  10.087  13.058 -0.0719 -0.0430  0.0795
27477W        W42608  16.547  15.740   0.248  0.1020  0.1437 -0.0216
27478W        W42609   0.477  13.701  16.161  0.1579  0.0856  0.0403
27479W        W42610  10.677   5.466  14.894 -0.1853 -0.1081  0.1268
27480W        W42611   7.877   1.355   0.413 -0.1023 -0.0854 -0.0260
27481W        W42612   3.899  12.763   2.566 -0.2199  0.1117 -0.2160
27482W        W42613  15.308  16.433  15.105 -0.0850 -0.3009  0.1316
27483W        W42614  17.122   2.110  15.590  0.1315 -0.1583  0.1641
27484W        W42615  10.528  17.642   3.450  0.1813  0.4346  0.1535
27485W        W42616  16.922   7.739   0.362 -0.1328 -0.3508 -0.0146
27486W        W42617  12.643   2.930   2.602  0.0126  0.0847  0.0912
27487W        W42618   1.817   0.698  14.732  0.2631 -0.0975 -0.1010
27488W        W42619  16.653  17.200  10.375 -0.0434 -0.0998  0.0278
27489W        W42620  10.256  10.595  13.081  0.2750  0.1495  0.1803
27490W        W42621   7.908   2.937  13.888 -0.3102 -0.0800  0.2151
27491W        W42622  15.618   1.125  11.642  0.1281 -0.2147  0.0625
27492W        W42623  12.731   2.148   0.550 -0.1366  0.1037 -0.1423
27493W        W42624   6.682  16.695   2.697 -0.0256  0.0175  0.1378
27494W        W42625   5.128  15.443  14.942 -0.0905 -0.0112  0.2658
27495W        W42626   3.142   0.395  11.713  0.1557  0.2047 -0.1176
27496W        W42627   8.721   9.006  12.469  0.0173  0.2121  0.3326
27497W        W42628  16.302  10.963   0.205  0.2550 -0.0489  0.2613
27498W        W42629  11.850  10.751   2.870 -0.3299  0.2902 -0.1267
27499W        W42630  11.661  16.652   0.060 -0.0945  0.0717 -0.1122
27500W        W42631   9.389   0.692  11.869 -0.0089  0.3006 -0.0675
27501W        W42632   1.607  13.567  11.202  0.0616 -0.3052 -0.1932
27502W        W42633   2.260   3.243   3.267 -0.0196  0.3277  0.5180
27503W        W42634   1.314   0.158   5.769  0.0340  0.0767 -0.0731
27504W        W42635   1.183  14.272  10.907 -0.0568 -0.0443 -0.0820
27505W        W42636   2.459  10.935  15.028 -0.1372  0.1600 -0.0181
27506W        W42637  12.383  10.010  13.642  0.0275  0.1066 -0.0841
27507W        W42638   4.287  12.237  15.841 -0.4766  0.1558  0.0871
27508W        W42639   2.226  10.764   4.759 -0.0177  0.1928  0.1627
27509W        W42640  17.442   2.858   2.092 -0.1810 -0.4293  0.2179
27510W        W42641   4.873   2.479   3.070  0.2490  0.0839 -0.0884
27511W        W42642   0.016   8.853  13.526 -0.1366  0.1356 -0.0270
27512W        W42643  15.515  12.842  12.890  0.0016  0.1298 -0.2966
27513W        W42644   5.800  15.870  14.407  0.2618  0.1870  0.1486
27514W        W42645  16.642   3.909  14.538  0.2791 -0.0765 -0.2803
27515W        W42646  13.823   6.509  14.063  0.4476 -0.1405  0.2028
27516W        W42647   4.723   6.695  11.306  0.1624  0.0558 -0.1102
27517W        W42648   4.948   9.311   0.033  0.1305  0.1111  0.2824
27518W        W42649   8.711  11.159   5.529 -0.2811  0.2314 -0.0456
27519W        W42650   4.199   0.946  12.261 -0.0008 -0.1707  0.2275
27520W        W42651   1.686   0.742  15.642  0.0780  0.0176  0.0002
27521W        W42652  16.132  17.454  10.254  0.1549  0.0851  0.2383
27522W        W42653   0.123   5.037   0.397 -0.1752  0.3026  0.1298
27523W        W42654   6.409  11.270  14.956  0.2569 -0.1988 -0.4049
27524W        W42655   5.905   7.161   3.579  0.2388  0.0129 -0.0263
27525W        W42656   2.678   4.464   4.069  0.0571 -0.1115  0.0753
27526W        W42657  17.641  11.376  13.362 -0.0333 -0.0339 -0.1825
27527W        W42658   3.509   3.749   3.900 -0.4288  0.1109  0.0408
27528W        W42659   7.464  14.205  14.342 -0.1055 -0.0582 -0.4226
27529W        W42660   5.588  11.036   1.271 -0.1267 -0.2075 -0.1039
27530W        W42661   5.670   7.518   1.792 -0.3120 -0.1222 -0.1921
27531W        W42662  13.498   0.834  12.967  0.0863  0.0655  0.0878
27532W        W42663   9.946   4.438   9.853  0.0824 -0.1198 -0.0485
27533W        W42664   5.078   9.355   4.220  0.0506 -0.1216 -0.0116
27534W        W42665   1.746   1.834   0.364  0.0854 -0.1856  0.2065
27535W        W42666   9.712   1.818  10.473  0.3909  0.2034 -0.1138
27536W        W42667  13.062  13.966  11.934 -0.0507  0.1929  0.1722
27537W        W42668   9.423  17.300   3.185 -0.0153  0.0818  0.1311
27538W        W42669   0.881   4.753   0.414  0.2021  0.0882  0.0342
27539W        W42670  16.654   4.666  15.595  0.1665 -0.0124  0.0568
27540W        W42671   6.478  12.834   5.255 -0.0995  0.0445  0.1883
27541W        W42672  12.587   3.694  11.314  0.1386 -0.2272 -0.1631
27542W        W42673   3.696  10.699   4.217 -0.3190 -0.0689  0.0635
27543W        W42674  10.003  12.401   5.296  0.0516 -0.1035 -0.0227
27544W        W42675  11.628  10.812   4.802 -0.0180 -0.1759 -0.2148
27545W        W42676  13.264  15.976   1.817 -0.0309  0.0564  0.0272
27546W        W42677   5.500  14.398   2.642 -0.3665  0.1952 -0.2186
27547W        W42678  12.951   6.928   0.258  0.0682  0.2724  0.0585
27548W        W42679   2.063   9.567   1.231 -0.3663 -0.0470  0.2521
27549W        W42680  16.532  15.837  11.499 -0.2374  0.2604 -0.2842
27550W        W42681   2.514   9.598   1.937 -0.0080  0.2154 -0.2532
27551W        W42682  17.427   3.513   4.346  0.1024 -0.2158 -0.0700
27552W        W42683  10.327   4.112   2.014  0.2026  0.1233 -0.0984
27553W        W42684   7.502  17.454   0.682 -0.2405 -0.0292 -0.2697
27554W        W42685  14.449  17.981  11.680  0.1543  0.0841 -0.0115
27555W        W42686   2.304  13.752  12.828 -0.1298  0.0787  0.1855
27556W        W42687   6.191  10.729  11.378 -0.1716 -0.3262 -0.1986
27557W        W42688   7.654  10.898  13.760  0.1142  0.0298  0.1858
27558W        W42689  17.891  14.933  10.798 -0.3042 -0.0728 -0.0617
27559W        W42690  12.578  16.067  15.803  0.0677 -0.0064 -0.0657
27560W        W42691   2.151  15.222   2.940  0.3135 -0.1303 -0.1189
27561W        W42692  11.329   0.836  16.231  0.0970  0.1339 -0.1541
27562W        W42693  14.737   2.322   1.047 -0.1923  0.3098  0.2968
27563W        W42694   3.498   7.354  15.352 -0.0627 -0.1512  0.2685
27564W        W42695   2.328  16.562  13.520 -0.1368 -0.0222  0.1180
27565W        W42696   9.077  10.468  14.040 -0.2346 -0.1226  0.2760
27566W        W42697   7.205  15.170  12.274 -0.1572 -0.1437 -0.2102
27567W        W42698   5.678  11.019  14.315 -0.2790  0.2995 -0.1158
27568W        W42699   4.163   3.546  11.835 -0.2066  0.1193 -0.1701
27569W        W42700  14.980   2.499   2.812 -0.0394  0.0094 -0.0722
27570W        W42701  16.830  13.500  13.261 -0.0975  0.2332 -0.1073
27571W        W42702   1.476   9.445   1.398  0.2060  0.5079  0.1120
27572W        W42703  11.197   9.428   3.927 -0.1573  0.1023 -0.0899
27573W        W42704  17.088   8.396   1.132 -0.1114 -0.2184  0.2469
27574W        W42705   0.640  13.903   1.949  0.1652  0.1520 -0.0165
27575W        W42706   2.876  12.400  13.747 -0.0120  0.0719  0.3073
27576W        W42707  11.877   1.712   2.192  0.0122 -0.0661  0.1828
27577W        W42708  15.563  10.727   4.207  0.0036 -0.2484  0.0308
27578W        W42709   8.853  14.454   5.706  0.2101  0.0050 -0.0598
27579W        W42710   9.787   4.120  10.234  0.1683 -0.2303 -0.3105
27580W        W42711   6.590  17.310  12.530 -0.2427  0.3595  0.0996
27581W        W42712  11.379  11.479  14.553 -0.1756  0.1656  0.0442
27582W        W42713   4.265   2.081   0.646 -0.1688  0.1870  0.3872
27583W        W42714   1.808   1.688   5.529 -0.0064 -0.0312 -0.0142
27584W        W42715  15.590   6.571   0.201  0.0072  0.6925 -0.0846
27585W        W42716  17.403   2.732  13.417  0.1748  0.1201  0.2313
27586W        W42717   0.930   8.446   4.399  0.0406 -0.1930 -0.0150
27587W        W42718   1.135   0.102   3.442  0.2746  0.3380 -0.1273
27588W        W42719  10.557   0.343  12.822 -0.1302  0.2005  0.0055
27589W        W42720   5.102   0.952   4.488  0.1263 -0.0493  0.0189
27590W        W42721  11.445  13.428   0.502 -0.0375  0.1489 -0.3600
27591W        W42722   0.654  12.945  11.806 -0.2456  0.6124 -0.1601
27592W        W42723  12.464  15.672  12.818  0.1225 -0.1823  0.2766
27593W        W42724   3.199   0.418   2.427 -0.1342  0.0457 -0.0640
27594W        W42725  13.776  11.294   3.781 -0.2413  0.0889  0.1662
27595W        W42726  14.729  15.400   2.758 -0.2292 -0.0942 -0.2892
27596W        W42727   8.024  13.723   1.068 -0.2858  0.1948 -0.4015
27597W        W42728   3.036  12.128   3.500 -0.1210 -0.0863  0.2056
27598W        W42729  16.053   4.312   1.913 -0.2091 -0.3636 -0.1483
27599W        W42730   1.245  15.963   3.263  0.0966 -0.2547 -0.1494
27600W        W42731  12.417   5.627   0.807  0.1107 -0.2036 -0.2006
27601W        W42732  13.885  13.492   1.071 -0.3709  0.3350  0.0061
27602W        W42733   9.945  16.359  12.628 -0.0075 -0.1152  0.2510
27603W        W42734   4.678  14.697  11.155 -0.3195  0.1072  0.4308
27604W        W42735  12.797  10.710   1.605  0.0405 -0.5152  0.2696
27605W        W42736   6.414   4.190   5.128  0.1315 -0.2183  0.1907
27606W        W42737  13.884  13.000   1.314 -0.0600 -0.1471 -0.0386
27607W        W42738  16.385   4.584  13.910 -0.1165  0.1256 -0.1587
27608W        W42739  14.654   0.332   4.382 -0.2285  0.2673 -0.1382
27609W        W42740  17.149  13.325  11.027  0.1549 -0.1941  0.2340
27610W        W42741   6.428  15.089  14.086  0.1093  0.0568  0.1074
27611W        W42742  14.433  12.408  14.835 -0.1483  0.0307  0.1194
27612W        W42743   8.837   3.690   1.713  0.1736 -0.1187  0.2573
27613W        W42744  13.283   7.684  10.785 -0.1098 -0.1069 -0.2122
27614W        W42745  10.395  14.277   5.186  0.3198 -0.0017 -0.1838
27615W        W42746  10.061   0.855  11.255  0.0668  0.4179  0.0685
27616W        W42747   3.050   5.849  14.467 -0.1051  0.4254  0.2280
27617W        W42748   2.091  14.772  15.944  0.2831  0.1117 -0.1555
27618W        W42749   0.663  17.521   2.378  0.0234  0.0606  0.1542
27619W        W42750  14.226   9.566  15.470 -0.3669  0.1107 -0.0585
27620W        W42751   7.729   7.307  15.255 -0.0108  0.4305  0.2714
27621W        W42752   6.746   7.092  12.628  0.1018 -0.4756 -0.0570
27622W        W42753  11.653   9.213  15.652  0.3040 -0.1804 -0.0342
27623W        W42754   9.925  16.211  13.172  0.0928 -0.0657 -0.0803
27624W        W42755  11.066   8.554  15.916 -0.1441 -0.1419 -0.4464
27625W        W42756   7.282  10.906  12.621 -0.2915  0.1364 -0.1752
27626W        W42757  16.351   7.774   3.568  0.0431  0.2713 -0.2158
27627W        W42758  15.988  15.273   3.163 -0.1027  0.0633 -0.0223
27628W        W42759  17.600  11.173  15.259  0.0018  0.2605  0.0826
27629W        W42760   0.561   9.040  14.516  0.0034 -0.0697 -0.0209
27630W        W42761  10.775  16.692  11.818  0.0913 -0.1850 -0.1956
27631W        W42762   5.019   9.802   0.844 -0.1930 -0.2811  0.1366
27632W        W42763  13.618   0.322  15.920 -0.0582  0.0920 -0.2448
27633W        W42764   3.239   8.859  15.587  0.3110 -0.0581 -0.1055
27634W        W42765  13.345   8.125  15.744 -0.0134 -0.0878 -0.1284
27635W        W42766   1.655  13.190   0.616 -0.0358 -0.1920  0.0911
27636W        W42767  17.074   9.524   3.678  0.1005 -0.1715 -0.0562
27637W        W42768   2.491  16.451  15.827 -0.0210 -0.3344  0.0167
27638W        W42769   1.746  13.934   2.465 -0.0382 -0.0248  0.2534
27639W        W42770  15.881   1.504   3.462  0.1642 -0.0260  0.1901
27640W        W42771   8.556  11.503  13.626  0.0803 -0.0702  0.2999
27641W        W42772   3.413   1.483   0.323 -0.0666 -0.2225  0.1011
27642W        W42773   0.490   0.737   4.226 -0.3765 -0.3739  0.2328
27643W        W42774  16.080  12.111  15.475 -0.0441 -0.0042 -0.0959
27644W        W42775   0.226   1.469  12.315  0.0712 -0.3564  0.2345
27645W        W42776   4.320   3.590   5.572 -0.1614  0.0052  0.1200
27646W        W42777  15.134  17.980   3.247  0.1529  0.1300 -0.2031
27647W        W42778  12.163  16.060  16.134 -0.1969 -0.1349 -0.0000
27648W        W42779   9.270   1.424  14.121 -0.1647  0.3559  0.2331
27649W        W42780   1.762   0.301  14.319  0.3879  0.1490  0.2236
27650W        W42781  17.861   7.123  11.031 -0.1689  0.1019 -0.0593
27651W        W42782   3.952  14.237  12.876 -0.2623 -0.1634  0.2901
27652W        W42783   3.434   3.413  11.409  0.3961 -0.0419 -0.2235
27653W        W42784   7.175   4.911  13.008  0.1041  0.2826  0.2355
27654W        W42785  10.494  14.525  13.234  0.1769  0.0874  0.1701
27655W        W42786   4.330  17.017   5.284 -0.0506 -0.0374 -0.0552
27656W        W42787   5.788   2.501  12.114  0.1091  0.0717 -0.1624
27657W        W42788  13.752   3.313   3.340  0.0505 -0.0898 -0.1056
27658W        W42789  14.140  12.698  15.200 -0.2022  0.3931 -0.0538
27659W        W42790  12.497  10.462   4.752 -0.2348 -0.1180 -0.1344
27660W        W42791   6.083  14.067  13.597  0.0647 -0.1300 -0.4303
27661W        W42792   2.907   0.909   2.584  0.0193  0.1402 -0.0748
27662W        W42793  14.398   0.349   9.829 -0.1289  0.2731  0.4073
27663W        W42794   0.534  15.819   0.417 -0.1950 -0.1347  0.0301
27664W        W42795   3.515   4.980   4.662  0.0750  0.1146 -0.1314
27665W        W42796   4.254   2.142   1.547  0.1323 -0.0904  0.1422
27666W        W42797  10.517   7.387  11.693 -0.1460  0.1384 -0.1530
27667W        W42798  17.725   5.919  11.748  0.1735  0.1444 -0.1811
27668W        W42799  10.580   2.859   1.042  0.2024 -0.1886  0.2578
27669W        W42800   2.384  10.673  10.698  0.2560  0.0234  0.0281
27670W        W42801   5.035  18.006  10.826 -0.0915 -0.0845  0.0077
27671W        W42802   6.760   7.947   1.599  0.2354  0.1448 -0.1360
27672W        W42803   4.071   4.950   4.595  0.1834 -0.0150  0.0938
27673W        W42804   7.979   8.588   5.070 -0.0946 -0.2199 -0.0743
27674W        W42805   5.824  10.734   6.078  0.2400  0.2318  0.0565
27675W        W42806  14.543   7.184  12.170 -0.0921 -0.0107 -0.0196
27676W        W42807  14.478   3.915   4.918  0.0461 -0.1025 -0.1178
27677W        W42808  14.527  16.730   4.930  0.1894 -0.2318 -0.1200
27678W        W42809   8.505  15.686  12.989 -0.1438  0.1056 -0.0009
27679W        W42810   5.925   9.564   3.717  0.1353 -0.0455 -0.1582
27680W        W42811  10.382  17.574  12.903  0.0826 -0.1300 -0.3523
27681W        W42812   9.955   2.595   3.183 -0.3036  0.0398  0.0017
27682W        W42813   5.953   4.405   0.040 -0.1276 -0.4233  0.0292
27683W        W42814   3.692   9.432  12.173 -0.0165 -0.0575  0.0818
27684W        W42815   6.574  15.083  15.405 -0.0434 -0.0411 -0.1059
27685W        W42816   7.425  11.111   4.722  0.1011 -0.2439  0.1284
27686W        W42817   5.037   7.993  16.024 -0.0549 -0.2653 -0.0241
27687W        W42818  11.353   9.229   5.475  0.0481  0.1766  0.0169
27688W        W42819   3.729   4.134   0.152 -0.0306  0.1964 -0.2822
27689W        W42820  14.403   3.005  15.179 -0.0071 -0.0823  0.5368
27690W        W42821   1.267   8.443   2.440 -0.2925  0.0358  0.1254
27691W        W42822   7.833  16.960   4.965 -0.1841 -0.0566  0.1443
27692W        W42823  10.058   7.506  12.896 -0.0723 -0.1258  0.3318
27693W        W42824  13.433   0.657  11.799 -0.0452  0.0146 -0.0651
27694W        W42825   1.393   4.750   2.405 -0.0311 -0.0553 -0.0857
27695W        W42826   4.330  13.017   5.251  0.1058 -0.0827 -0.0900
27696W        W42827   2.210  15.262  13.660 -0.0975 -0.0654  0.1359
27697W        W42828  17.407  13.028   3.075 -0.0089 -0.1366  0.1793
27698W        W42829  17.762   2.669  11.781  0.1914 -0.1625  0.0133
27699W        W42830   4.282   7.373   3.456 -0.1193  0.0857 -0.2265
27700W        W42831  15.799   6.716  12.135 -0.1656 -0.2226 -0.0308
27701W        W42832   9.176  15.853   1.334 -0.0719  0.0796  0.3525
27702W        W42833   3.179  11.244   0.479 -0.0154 -0.2048  0.0820
27703W        W42834   7.651   1.917   0.939  0.1959  0.3744  0.0517
27704W        W42835   9.525   8.134   2.390  0.0860  0.1228 -0.2391
27705W        W42836  10.534   1.280  13.744  0.1420 -0.2885  0.1553
27706W        W42837   3.469  11.814  13.689 -0.1845  0.0413  0.0334
27707W        W42838   2.503   3.202   1.720 -0.1848  0.2668  0.2959
27708W        W42839   8.988  17.959  11.366  0.0565  0.2142 -0.2295
27709W        W42840   3.256  15.634  14.934 -0.0066  0.2369 -0.1496
27710W        W42841  11.390   0.531  12.802 -0.0498 -0.0366  0.1340
27711W        W42842   5.401   9.123  12.164  0.0519 -0.0289  0.2344
27712W        W42843   7.414   8.782  14.214  0.0066 -0.2165  0.0815
27713W        W42844  13.921   4.933  12.090 -0.3163 -0.3202  0.1778
27714W        W42845  17.061   6.799   3.098  0.3546  0.0191  0.0373
27715W        W42846   8.512  17.079   3.738  0.0757 -0.0460  0.1103
27716W        W42847  16.698   2.858   2.886  0.0721 -0.3398 -0.0793
27717W        W42848   0.504   6.552   2.617 -0.2836  0.0786 -0.1233
27718W        W42849   2.362   9.450   0.872  0.1710  0.2837 -0.1706
27719W        W42850  11.464   7.289  12.430  0.0148 -0.0955 -0.1390
27720W        W42851  10.929   6.079  11.649 -0.4525 -0.3323  0.2295
27721W        W42852  13.128   0.670  13.253  0.0259  0.1748  0.1301
27722W        W42853   1.624  10.222   4.497  0.0211 -0.2535 -0.1996
27723W        W42854  11.586  15.181   4.275  0.0132  0.0525  0.2091
27724W        W42855   5.206   3.913   2.715  0.1939 -0.1008 -0.2913
27725W        W42856  16.191   2.724  14.623 -0.0204  0.1421 -0.0793
27726W        W42857   4.355   1.857   5.327 -0.1375 -0.0825  0.2121
27727W        W42858   9.160   5.663   0.249  0.1183 -0.1046  0.1594
27728W        W42859  13.621   2.565   1.770  0.0260 -0.1050  0.3327
27729W        W42860  17.889   9.451   3.970 -0.1402 -0.1227 -0.0742
27730W        W42861  11.759   1.347   4.453 -0.0297  0.2210 -0.2161
27731W        W42862  16.186  12.150   0.809 -0.0322 -0.1560 -0.0474
27732W        W42863   3.814  14.626  14.700 -0.0391  0.0709  0.2462
27733W        W42864   7.075   8.779   1.012 -0.0093  0.1352  0.3029
27734W        W42865  13.410   6.822  11.976 -0.0234 -0.0726  0.1480
27735W        W42866  15.962  16.489   2.542  0.0348 -0.1297  0.0710
27736W        W42867  15.990   7.020  13.025 -0.0206  0.1386  0.2209
27737W        W42868  14.023   7.778  15.658 -0.0014  0.0411  0.0211
27738W        W42869   0.219   7.034  14.669  0.2757 -0.3166 -0.0195
27739W        W42870   2.149  15.955   2.326 -0.0095  0.4895  0.1916
27740W        W42871  12.118   2.896   0.481  0.1311 -0.0090  0.1995
27741W        W42872  16.034  16.531   1.523 -0.3565  0.1953  0.1247
27742W        W42873  15.379  11.643  12.983 -0.0872  0.2396 -0.2282
27743W        W42874  11.950  17.106   5.845 -0.1053 -0.1564  0.1624
27744W        W42875   3.379   9.339  15.654  0.2889  0.0100 -0.1817
27745W        W42876   0.136  16.185   0.509  0.2055 -0.0159 -0.0907
27746W        W42877  14.789   5.112   1.640  0.0934 -0.2073  0.2460
27747W        W42878  10.822   3.204  15.144 -0.2976  0.1547  0.1401
27748W        W42879  11.990   5.933   4.438 -0.2190 -0.0664 -0.0069
27749W        W42880   6.731   1.868  12.105  0.2731 -0.1378  0.6613
27750W        W42881   6.237   4.196   3.770  0.3704 -0.0344  0.2014
27751W        W42882  16.821  10.347   2.223 -0.1059  0.0981 -0.2133
27752W        W42883  17.403   7.220   3.116 -0.0479  0.3430  0.1384
27753W        W42884   9.559   4.411  13.277 -0.0913 -0.0494  0.0426
27754W        W42885  12.226   7.279   2.749 -0.1075 -0.0069 -0.2992
27755W        W42886   0.573   6.677  13.017 -0.2037  0.1368 -0.1798
27756W        W42887  11.151   4.043  15.069  0.1800 -0.2280  0.0337
27757W        W42888  10.083   2.824   4.134  0.0187  0.1702  0.1843
27758W        W42889  15.093  15.433   2.348  0.0998 -0.0460  0.1577
27759W        W42890   7.306   0.863  16.054 -0.0336  0.3919  0.0332
27760W        W42891   5.822   0.849  11.277  0.0400 -0.3075 -0.0292
27761W        W42892   0.732   9.912  11.853  0.0386  0.3237 -0.3272
27762W        W42893   7.385   8.794   2.506  0.1033  0.2281 -0.0324
27763W        W42894  14.507  17.021   3.633 -0.1756  0.3197 -0.1937
27764W        W42895   0.132   1.430   3.401 -0.1415  0.1584  0.1383
27765W        W42896   7.149   3.302   3.753 -0.0833  0.1416  0.3193
27766W        W42897  11.484  10.344   6.106 -0.1649 -0.0981  0.2651
27767W        W42898  11.983   1.135   1.718  0.0253  0.1410 -0.1483
27768W        W42899  15.314   3.703  11.323 -0.0445 -0.1284 -0.1140
27769W        W42900  16.205   3.586  11.854 -0.1595 -0.5782  0.0117
27770W        W42901   4.506  12.535  12.211  0.0795 -0.0033 -0.0501
27771W        W42902   3.531  10.822   4.891 -0.2292  0.3912 -0.1848
27772W        W42903  17.500   6.250   0.017  0.2249 -0.0150 -0.1835
27773W        W42904  11.797  13.019  10.926 -0.2095 -0.3327  0.2364
27774W        W42905   7.763   4.350  12.892  0.0125 -0.0729 -0.0229
27775W        W42906   0.864  14.183   0.740 -0.1953  0.1416 -0.1003
27776W        W42907   7.135  15.456  14.432 -0.0757  0.1355 -0.0912
27777W        W42908  11.897   3.234  11.966 -0.1782  0.0021  0.0857
27778W        W42909  10.341   8.824   5.355 -0.0708 -0.1063 -0.1616
27779W        W42910  12.490   0.350   0.141 -0.2935 -0.4140  0.2033
27780W        W42911  14.905   5.493   0.605  0.1563 -0.0098 -0.4689
27781W        W42912  12.757   5.706   2.009  0.0751  0.0581  0.2431
27782W        W42913   2.841  10.093  11.206  0.0638  0.0627  0.5787
27783W        W42914   9.203  14.149  11.736 -0.1338  0.1557 -0.2228
27784W        W42915  16.485  10.195  13.429 -0.0778  0.1105  0.2367
27785W        W42916   4.250  15.953   4.151  0.0706 -0.0693  0.3489
27786W        W42917  13.408  15.550   6.030 -0.3271 -0.2640 -0.1488
27787W        W42918  16.498   0.187   1.925 -0.0211  0.1442 -0.0603
27788W        W42919   3.488   6.794   3.020 -0.1535 -0.1448 -0.3103
27789W        W42920  17.414   4.312   4.855 -0.2393 -0.0386 -0.2308
27790W        W42921  15.225  12.141   0.816  0.0231 -0.3331  0.0922
27791W        W42922   7.259  12.018  11.076 -0.0695  0.0808 -0.0204
27792W        W42923  12.876   3.673  14.295 -0.0729 -0.0311  0.1745
27793W        W42924  15.519   6.518  10.166  0.0197 -0.1923  0.0905
27794W        W42925  14.369  13.365  11.638 -0.3867 -0.0429  0.1054
27795W        W42926  10.940   8.571  14.922 -0.1939  0.1560  0.0760
27796W        W42927   9.322  16.698  11.838 -0.2968  0.2852 -0.0183
27797W        W42928  11.970  10.665  12.510  0.1669  0.1402 -0.0369
27798W        W42929  10.553   1.901   3.843  0.1188  0.3902 -0.0898
27799W        W42930  12.114   3.493   1.308  0.1234 -0.0329 -0.2358
27800W        W42931  10.620   5.093  11.639 -0.2606 -0.0843 -0.0108
27801W        W42932   9.512  14.072  12.148  0.0389 -0.0918 -0.0992
27802W        W42933   8.866  17.340   3.459 -0.1856  0.2557 -0.1058
27803W        W42934   6.739  11.755   4.894  0.2549  0.1967 -0.1135
27804W        W42935   7.544   6.532   5.589 -0.0138  0.2102  0.0340
27805W        W42936  10.511  12.849  12.968 -0.1049 -0.0231 -0.0969
27806W        W42937   9.905   1.551  13.282  0.0750 -0.3801  0.2674
27807W        W42938  16.132   0.440  11.817 -0.0402  0.0776  0.1840
27808W        W42939  16.234   6.350   5.701 -0.2434  0.1412 -0.3000
27809W        W42940   0.770  16.112  14.607  0.1314 -0.0852 -0.1351
27810W        W42941   5.671   5.158   3.136 -0.1909 -0.0894  0.0343
27811W        W42942   0.771  12.468  13.861 -0.2221 -0.1181  0.0370
27812W        W42943  11.444   7.972   3.647  0.2278 -0.1185  0.0466
27813W        W42944   3.887   6.442   4.346 -0.2472 -0.2008 -0.0471
27814W        W42945   0.230   1.584   4.686 -0.1061 -0.1239 -0.0874
27815W        W42946  12.432  13.282   4.748 -0.1101  0.2476  0.1905
27816W        W42947  17.059   0.873   3.924  0.0506 -0.0211  0.1337
27817W        W42948   3.945   3.950   3.783 -0.2084 -0.2533 -0.1830
27818W        W42949  10.358   0.903  15.074  0.1644 -0.1779 -0.0939
27819W        W42950   9.405  10.406  11.077 -0.0779  0.0213 -0.0105
27820W        W42951   7.629   0.540  12.379  0.0857  0.1206  0.1965
27821W        W42952   2.105   6.244  12.586 -0.4088 -0.2131  0.1518
27822W        W42953   4.016   1.922  13.274 -0.0237 -0.0323  0.1660
27823W        W42954   4.919   0.013   2.360 -0.0063 -0.3767  0.0249
27824W        W42955   9.283   9.973  15.508 -0.2939 -0.0768  0.0085
27825W        W42956   1.858   2.920   4.853  0.0645  0.1400 -0.2013
27826W        W42957   3.632  16.258   4.245 -0.3403  0.3292 -0.0444
27827W        W42958   3.671   9.424  14.803  0.5281 -0.1340 -0.1475
27828W        W42959   4.610  15.409  13.606 -0.1917  0.0215  0.0346
27829W        W42960  10.737  14.368   4.832 -0.0048 -0.0353 -0.0900
27830W        W42961  13.227   8.286   1.270 -0.2363 -0.0090  0.0709
27831W        W42962   0.501  13.547   1.603  0.0386  0.0088 -0.1482
27832W        W42963   5.805   2.487   3.117  0.2835  0.0094  0.1108
27833W        W42964   0.824   3.734  12.789 -0.1846  0.0534  0.0250
27834W        W42965  10.672  10.358  10.812 -0.1047  0.2381 -0.5039
27835W        W42966  11.981   4.286  12.347  0.2988 -0.1909 -0.1583
27836W        W42967  13.839   2.763  13.750 -0.1152  0.1974  0.1120
27837W        W42968  10.213   6.447  15.433 -0.0239 -0.1232 -0.2665
27838W        W42969   3.679  12.463  12.602  0.1784  0.2069 -0.2674
27839W        W42970   2.150  15.501   3.732  0.1147 -0.1389  0.0388
27840W        W42971  16.229  17.421   2.066  0.1636 -0.1143  0.0493
27841W        W42972   8.598   3.498   4.680 -0.1438  0.1439  0.2424
27842W        W42973   8.573  17.593  14.684 -0.1097  0.0795 -0.2019
27843W        W42974  14.233   6.969   5.131 -0.0853 -0.2363  0.2158
27844W        W42975  17.252   8.044   2.811  0.0262  0.1571  0.1793
27845W        W42976  11.394  16.695   5.439 -0.0455 -0.3635 -0.0682
27846W        W42977   6.478   0.080  12.984 -0.0731 -0.1042  0.3094
27847W        W42978  11.798  14.090   4.591 -0.0460  0.0498 -0.0496
27848W        W42979   6.606  14.019  12.194 -0.0956  0.1128 -0.1876
27849W        W42980   0.723   1.784  11.946  0.0238  0.2682 -0.1346
27850W        W42981   7.041  12.806  11.991  0.4094  0.1576  0.0130
27851W        W42982   7.699   3.642  14.828 -0.1797  0.2418 -0.3759
27852W        W42983   3.977  13.413   0.911  0.2193 -0.0625  0.2399
27853W        W42984  14.414   8.119  13.694  0.2719 -0.1068  0.2440
27854W        W42985   5.449   1.246  13.903  0.0013 -0.3829  0.2373
27855W        W42986   9.010   6.833  12.651 -0.1265  0.0425  0.1481
27856W        W42987  10.259  16.129  14.098 -0.4097 -0.0049  0.0344
27857W        W42988   9.053  18.075   3.985 -0.1568  0.0721 -0.2954
27858W        W42989   8.620   0.625   0.433 -0.4757  0.2705 -0.0541
27859W        W42990   9.467   3.080  12.988 -0.0919  0.1332  0.2045
27860W        W42991   8.008  15.364   4.516 -0.1671  0.1223 -0.0384
27861W        W42992   5.992  16.759  10.690 -0.1823  0.1322  0.1779
27862W        W42993  14.093   9.967  15.793 -0.0944  0.2429  0.0308
27863W        W42994   1.779   9.308   4.926  0.1543 -0.0144  0.1887
27864W        W42995  15.383   6.470  12.016 -0.3016 -0.1276 -0.0085
27865W        W42996  15.032  12.171  15.284 -0.0032  0.0173  0.0593
27866W        W42997  17.752   3.296   3.771 -0.0403  0.0374 -0.2115
27867W        W42998   4.454   9.662   4.945 -0.3564  0.0789 -0.1534
27868W        W42999  12.013  15.082   0.422  0.1357 -0.3443  0.0863
27869W        W43000   2.199   9.954   9.952  0.1445 -0.1431  0.3955
27870W        W43001   1.650  11.891  13.842 -0.1228  0.1404 -0.1705
27871W        W43002   2.092  14.640  11.794  0.1593 -0.2133 -0.0494
27872W        W43003   7.095   7.917   2.653  0.2514  0.0402 -0.1635
27873W        W43004   7.259   8.160  15.355 -0.2316 -0.0446 -0.1448
27874W        W43005   7.820   9.129   5.715  0.0938  0.1009  0.0208
27875W        W43006   7.152  13.976  15.600  0.1077  0.0991 -0.1189
27876W        W43007  17.752   3.394   1.267  0.0631 -0.1548  0.1513
27877W        W43008   4.784  17.291   5.107  0.0352 -0.1747 -0.2210
27878W        W43009  14.902   2.232  14.173 -0.0565  0.1062  0.1582
27879W        W43010  11.629  10.694  16.124  0.0653  0.0220  0.0777
27880W        W43011   4.915   7.326  13.510  0.0624 -0.1438 -0.2710
27881W        W43012   3.858   2.386   0.091  0.1221 -0.1497 -0.3526
27882W        W43013   1.198  10.419   3.280  0.0077  0.0484  0.3334
27883W        W43014  16.213  12.668   0.097 -0.1438 -0.1884  0.1150
27884W        W43015   8.741  13.344   2.575  0.1472  0.0625 -0.1289
27885W        W43016  14.040   2.429   0.094 -0.3429  0.1442  0.1068
27886W        W43017   0.947  12.234  11.172 -0.1012  0.1823  0.0842
27887W        W43018   7.070   0.286   2.748  0.2942 -0.1470 -0.2457
27888W        W43019   3.706  11.549  11.750  0.1179  0.2091 -0.0086
27889W        W43020  10.534  10.962   1.678 -0.0188  0.2585  0.0798
27890W        W43021  11.390   3.875   2.176  0.0596 -0.1145  0.1827
27891W        W43022  14.922  11.679  12.592  0.0988 -0.1512  0.1146
27892W        W43023  11.451  16.415  14.651  0.0030  0.0618 -0.0510
27893W        W43024  10.257   2.229  12.749  0.2648  0.1199 -0.0024
27894W        W43025   5.877   4.817   4.402  0.1753 -0.3963 -0.1488
27895W        W43026   6.060   0.045   1.321  0.1076 -0.0251  0.0478
27896W        W43027  14.957  16.559  12.766 -0.2193 -0.1550 -0.2565
27897W        W43028   5.659  15.562  13.527 -0.2668  0.1915 -0.3935
27898W        W43029  11.533   6.527   0.033 -0.0485  0.0252  0.0630
27899W        W43030  14.976   6.883  12.143 -0.0930  0.0156  0.0176
27900W        W43031  17.639   3.662   1.674  0.0519 -0.0043 -0.1901
27901W        W43032   0.728  10.749  12.174  0.2761  0.0399 -0.2497
27902W        W43033   5.290   1.251   6.088  0.0851  0.1707 -0.3126
27903W        W43034  10.866  13.900   5.621  0.0483 -0.3047  0.1959
27904W        W43035   7.146   3.263   1.437  0.0613  0.1164 -0.0141
27905W        W43036   8.322   8.948  12.910  0.2671  0.2277  0.3314
27906W        W43037  10.883   4.422  14.807 -0.3127 -0.2924 -0.0500
27907W        W43038  14.654   5.535   4.506  0.1833 -0.0034 -0.1346
27908W        W43039  16.071  14.294   5.266  0.0774  0.0632  0.2990
27909W        W43040   7.576  15.499  12.366  0.3880 -0.1961  0.2188
27910W        W43041  14.319   6.534  14.807 -0.1209  0.0209  0.4319
27911W        W43042   2.672  17.739  10.599  0.1134 -0.1151  0.0482
27912W        W43043   7.354   5.065   1.122  0.1207 -0.2302 -0.1446
27913W        W43044   2.307  12.504  11.367 -0.0620 -0.0759  0.0785
27914W        W43045   7.959   0.160   4.992  0.0810  0.0568 -0.1538
27915W        W43046   1.599   2.657   3.414 -0.1008 -0.0130  0.1664
27916W        W43047  14.789   8.023  15.682 -0.0070  0.0365  0.2161
27917W        W43048  13.021   7.997  12.490  0.1559 -0.0118 -0.1927
27918W        W43049   7.819   1.910   3.961 -0.0703  0.0059 -0.1076
27919W        W43050   5.370   3.525  13.831 -0.3313 -0.0648 -0.0241
27920W        W43051  17.297   9.222  11.152 -0.1054 -0.1152 -0.2854
27921W        W43052  11.058  16.191  11.152  0.1097 -0.0271 -0.0044
27922W        W43053  11.628   7.103  14.289  0.1401 -0.2663  0.1494
27923W        W43054   4.847  11.229  12.426  0.2200 -0.1900  0.0344
27924W        W43055  16.549  17.675  10.506 -0.0652  0.0383 -0.1016
27925W        W43056  14.158  16.671  16.033  0.0178 -0.0333 -0.0706
27926W        W43057  14.420  14.957   2.762 -0.2250  0.3930  0.2252
27927W        W43058   8.113  11.639   1.033 -0.0720  0.2078  0.0837
27928W        W43059  14.349  17.175  13.314 -0.1024 -0.0411 -0.2088
27929W        W43060   3.555   9.401  12.699  0.0403  0.1377 -0.0368
27930W        W43061   4.028   4.513   3.799 -0.1242 -0.0391 -0.0180
27931W        W43062   7.115   2.744   2.983 -0.1160  0.0190 -0.0952
27932W        W43063   1.594   6.755   2.725  0.1433 -0.2688 -0.3635
27933W        W43064   1.003   9.764   4.068  0.0281  0.2783  0.1773
27934W        W43065   9.432  15.104   3.431 -0.0310 -0.1763 -0.0240
27935W        W43066   2.259  16.031   0.919  0.0198 -0.1453 -0.0558
27936W        W43067  13.004  10.268  11.217 -0.1583 -0.1001  0.0119
27937W        W43068  10.529  16.960   6.148 -0.1493 -0.3129  0.0582
27938W        W43069  10.031   0.876   3.252  0.1415  0.1721 -0.0443
27939W        W43070   2.519   5.739  15.964 -0.4094 -0.0095 -0.3681
27940W        W43071  16.314   2.080  12.053 -0.0469  0.0663  0.1136
27941W        W43072  14.925  10.274   3.014  0.0745  0.1748 -0.3711
27942W        W43073   1.817   5.656   4.772 -0.2914  0.0071 -0.2823
27943W        W43074   2.430  15.970  10.956  0.0157 -0.0470 -0.1775
27944W        W43075   6.917  12.270   2.380  0.1979 -0.0804  0.1623
27945W        W43076  10.163  15.726   3.835  0.3348  0.0269  0.0985
27946W        W43077   9.526  13.101   1.956  0.2476 -0.0005 -0.1449
27947W        W43078   3.078   7.706  15.246 -0.0473 -0.1349 -0.0597
27948W        W43079   0.475   7.750   3.284 -0.0892  0.1638  0.0490
27949W        W43080   6.560   9.559  12.129 -0.1937  0.0181  0.2734
27950W        W43081   3.529  12.460   4.152 -0.0459 -0.1697  0.1243
27951W        W43082   4.064  13.589   1.505 -0.0804  0.2730  0.1744
27952W        W43083  15.198   8.917  13.236  0.4243  0.0448  0.0366
27953W        W43084   0.232   1.984   1.537 -0.2783  0.1437 -0.1751
27954W        W43085   6.227  11.350  12.874  0.2134  0.1709  0.0052
27955W        W43086   4.552  11.487   0.340  0.2277  0.0592  0.0261
27956W        W43087  16.826  17.599   0.634  0.2822 -0.0935 -0.1511
27957W        W43088  11.721  17.960  11.385 -0.0022  0.0539 -0.2512
27958W        W43089   8.375  10.341   0.385  0.0401 -0.1769  0.1127
27959W        W43090  11.855   0.504   4.194 -0.0433  0.1660  0.0101
27960W        W43091  10.863  17.272  14.285 -0.0430 -0.0696 -0.2011
27961W        W43092   0.542  13.017  14.599  0.0903  0.1724  0.2370
27962W        W43093   7.239  16.317   2.104 -0.0818  0.2867 -0.0015
27963W        W43094   7.179   0.294   4.199 -0.0316 -0.2702 -0.2996
27964W        W43095   9.147   9.472  15.233  0.2268  0.0635 -0.1936
27965W        W43096  15.869  10.228   5.431 -0.2707 -0.1944  0.3476
27966W        W43097  11.031   5.721  12.078  0.2355 -0.0486  0.1889
27967W        W43098   0.293   4.402   0.510  0.1227  0.0391 -0.0163
27968W        W43099   7.597   7.835   4.247  0.3800 -0.0999  0.1419
27969W        W43100  14.645  11.421  14.127 -0.1505 -0.0581  0.0557
27970W        W43101   9.466  12.729   6.373 -0.2061 -0.1916  0.0985
27971W        W43102   7.427   2.926  14.835 -0.1436 -0.1376  0.1189
27972W        W43103   2.274   9.101   3.351 -0.0066 -0.0268  0.3059
27973W        W43104   3.740   6.204  13.668  0.0560 -0.1140  0.1496
27974W        W43105   4.717   9.219   4.637 -0.1403  0.0295 -0.1918
27975W        W43106  15.961  16.048   0.237 -0.3654  0.0972  0.0532
27976W        W43107   0.863  17.629  15.388  0.0717 -0.2814  0.1211
27977W        W43108   7.206  10.891  14.725 -0.0435 -0.1473  0.1867
27978W        W43109  14.052  12.603  12.290 -0.1689 -0.2394 -0.2945
27979W        W43110   9.595   5.660   0.575  0.3654 -0.2028  0.2523
27980W        W43111   7.796   2.997  15.662 -0.1336  0.1352  0.4272
27981W        W43112  10.920   4.604   3.955 -0.2183  0.2213  0.0976
27982W        W43113  11.094   0.509  11.538  0.1712  0.1719 -0.0230
27983W        W43114   0.424   3.804   2.862  0.0775  0.0134 -0.2818
27984W        W43115   8.310  11.591   3.701 -0.1175  0.0837  0.1545
27985W        W43116  10.050  17.067   2.372 -0.2175 -0.0308 -0.2196
27986W        W43117  16.812   2.915  10.056 -0.1275 -0.2279  0.1277
27987W        W43118   1.177   2.568  12.940  0.2405  0.2461 -0.0051
27988W        W43119   5.197  17.442   1.903  0.0969 -0.0325 -0.0608
27989W        W43120   5.255  16.405  11.534 -0.1163 -0.2645  0.2292
27990W        W43121   8.158   3.981  11.202  0.0258 -0.0276 -0.0603
27991W        W43122   8.166   3.199  11.153  0.0231 -0.0789  0.0005
27992W        W43123   3.668   2.301  15.655  0.0571 -0.2113  0.0397
27993W        W43124  15.053   3.240  11.562  0.0452  0.2979  0.0397
27994W        W43125  17.471   0.164   3.541 -0.1203 -0.0196  0.1930
27995W        W43126   8.398   4.320   2.816 -0.2409  0.3471  0.1047
27996W        W43127  17.696   4.159   1.699  0.1036  0.3262 -0.0874
27997W        W43128  14.278   6.094  10.679 -0.2580 -0.1157  0.0758
27998W        W43129  11.536   3.919   0.989  0.0578 -0.0859 -0.3212
27999W        W43130  12.868   0.607  15.433  0.2175 -0.4752 -0.0989
28000W        W43131  18.025  14.025  15.749  0.0851  0.3075 -0.3767
28001W        W43132  13.268   3.373   3.052  0.0077  0.1776  0.0204
28002W        W43133   4.729  12.535   3.767 -0.3551 -0.1073  0.0086
28003W        W43134   7.118   5.255   2.902  0.3239  0.0354  0.0062
28004W        W43135  16.435   3.374  12.964  0.1014  0.3171  0.0669
28005W        W43136   3.885   0.154   4.309 -0.3571 -0.0872 -0.1622
28006W        W43137   7.155  17.528   4.002 -0.0083 -0.0729 -0.0095
28007W        W43138   0.458  11.363   2.377  0.0563  0.4265  0.0046
28008W        W43139  14.297  11.076  11.237 -0.3465  0.0560  0.0745
28009W        W43140   7.243   5.718   3.600  0.0923  0.2419 -0.3100
28010W        W43141  16.128  10.380  14.021  0.1942  0.0494 -0.1120
28011W        W43142  15.220  17.020  15.367  0.0317  0.1732  0.1083
28012W        W43143   9.113  16.479   2.036  0.0909 -0.1235 -0.1414
28013W        W43144   5.880   7.316  13.152  0.2182  0.0084  0.0656
28014W        W43145  12.209   1.873  10.394  0.0207 -0.1910 -0.1947
28015W        W43146  12.420   5.381   5.043 -0.0936 -0.1006  0.0675
28016W        W43147  13.135   8.937  14.572  0.1697  0.0752 -0.1239
28017W        W43148   0.039   8.064  15.253  0.0850 -0.1572 -0.0601
28018W        W43149   7.740   2.466  11.301 -0.2379  0.2155  0.2001
28019W        W43150   9.044   2.632   1.266 -0.0628 -0.1447 -0.0525
28020W        W43151  17.249   0.278  12.521  0.0324  0.0075 -0.0429
28021W        W43152  13.302   9.986   1.886  0.1668  0.2840  0.0529
28022W        W43153   5.751   8.587  14.546  0.0117 -0.2366 -0.0963
28023W        W43154  11.529  16.271  13.261 -0.0896 -0.1108 -0.0623
28024W        W43155  15.362  17.925  11.130  0.1136  0.0326 -0.0515
28025W        W43156   5.048  15.943  14.862  0.2333  0.0556  0.0584
28026W        W43157  15.817   4.951  12.422 -0.1217  0.0036  0.1807
28027W        W43158   7.139   9.575  10.168  0.0046 -0.1600 -0.2017
28028W        W43159  16.939   1.148  12.724  0.0962  0.1957  0.1311
28029W        W43160  16.660   2.769  15.147  0.1857 -0.0185  0.2368
28030W        W43161   0.616   5.317   2.630 -0.1174  0.2214  0.0501
28031W        W43162   7.715  15.595   4.803  0.1069 -0.0712 -0.0859
28032W        W43163  12.123   1.523  15.171  0.0910  0.0376 -0.1500
28033W        W43164  14.683   3.902  13.657  0.0284  0.0489 -0.0498
28034W        W43165   3.978  16.735  12.615 -0.1909  0.0227 -0.2488
28035W        W43166   8.545   4.119   6.240  0.0155 -0.0458 -0.2277
28036W        W43167   3.503   9.858  11.928 -0.0684  0.0024  0.0739
28037W        W43168  16.612  14.771  15.597  0.0438  0.1405  0.0082
28038W        W43169   7.280  12.856   4.581 -0.1431 -0.0036  0.0563
28039W        W43170  13.039   5.526  15.362  0.0146  0.2244 -0.0834
28040W        W43171  10.178  12.895   5.160  0.2263  0.2662  0.0911
28041W        W43172  10.403  15.309  14.754  0.0510 -0.3049 -0.0400
28042W        W43173   1.596  15.244  10.872 -0.1228 -0.1356  0.3857
28043W        W43174   3.180   5.017   5.507 -0.2123 -0.3177  0.0880
28044W        W43175  16.641   3.647   1.193  0.2409 -0.1763 -0.0013
28045W        W43176   5.036   7.939   3.072  0.2825 -0.4523  0.2174
28046W        W43177   6.853   8.497  10.378  0.0045  0.0110  0.0789
28047W        W43178  11.635  11.656   0.263 -0.2192  0.0051  0.1674
28048W        W43179  17.315  10.195  11.666 -0.0564 -0.0210  0.1035
28049W        W43180  13.069  14.226   5.550 -0.1707  0.1056  0.1596
28050W        W43181  12.173  14.913  14.141 -0.1407  0.4249 -0.0488
28051W        W43182   3.979   5.101  15.138 -0.1375 -0.0918 -0.0129
28052W        W43183  15.746  12.214  11.139  0.0812 -0.1806 -0.2831
28053W        W43184  17.722   9.987   1.873  0.1832  0.1810  0.0067
28054W        W43185  10.163   4.206  11.810  0.0231  0.0518  0.1100
28055W        W43186   7.407  12.292   3.137 -0.0875 -0.0081 -0.1788
28056W        W43187  13.745  15.389  11.699  0.1736  0.1158  0.0180
28057W        W43188   7.063   2.028  11.802  0.2953  0.1219  0.1767
28058W        W43189  11.003  15.174   1.445 -0.0027 -0.0024  0.1716
28059W        W43190   7.747  17.920   0.780 -0.2043  0.0738  0.1547
28060W        W43191   1.035   1.152  13.178  0.2477 -0.0614 -0.1013
28061W        W43192  12.441   1.798  13.524  0.2156  0.1972  0.2841
28062W        W43193  13.686   1.569  11.636  0.2264 -0.0168 -0.2087
28063W        W43194   1.392  13.205  13.194 -0.0062  0.1426  0.1848
28064W        W43195  17.236   6.438  11.130 -0.0586 -0.1456  0.1108
28065W        W43196  14.729   4.051   3.967  0.2448  0.0428 -0.0812
28066W        W43197  11.398   8.077  10.591 -0.1845 -0.1556  0.4094
28067W        W43198   2.874  10.884   1.600 -0.0464  0.0124 -0.0973
28068W        W43199  16.200   4.693   0.872  0.2211 -0.1237 -0.1904
28069W        W43200   3.663  16.060  10.805  0.0649  0.0371  0.0115
28070W        W43201  14.477   0.751  10.065  0.1507  0.0626  0.0932
28071W        W43202  15.398   9.261  14.084  0.1973  0.2390  0.2554
28072W        W43203  12.201   4.203  11.856  0.1106 -0.1095  0.3976
28073W        W43204   5.059  12.567   1.186 -0.0864 -0.0995 -0.3800
28074W        W43205   5.187   1.292   2.465  0.1223 -0.0083 -0.0742
28075W        W43206   5.492   3.545   1.321  0.0105 -0.3531  0.1426
28076W        W43207  14.251  10.903   2.444  0.0437 -0.2448 -0.2491
28077W        W43208   9.634  11.924  13.870 -0.0705  0.1268  0.1938
28078W        W43209  16.374   3.497  14.717  0.0230  0.0552 -0.3337
28079W        W43210   5.137  13.327   0.631 -0.1455  0.0781 -0.2384
28080W        W43211   1.484  12.969  10.994 -0.0077 -0.0783 -0.1081
28081W        W43212   8.709   5.096   4.507  0.2191  0.0819 -0.1225
28082W        W43213  15.705   7.068   5.208  0.1259 -0.0439  0.0054
28083W        W43214   9.093  14.638  15.953 -0.1327  0.0816 -0.0662
28084W        W43215  13.743  11.935  12.647 -0.0662 -0.0656  0.1528
28085W        W43216   7.387  15.161   5.894 -0.0685 -0.0580 -0.2009
28086W        W43217   6.779   7.170   4.307 -0.1208  0.1496  0.1876
28087W        W43218   2.989  17.045   0.671 -0.1625 -0.1629  0.1494
28088W        W43219   0.779  11.508   6.167  0.0351 -0.1020  0.0827
28089W        W43220   4.706   0.541   2.572 -0.0206  0.0155  0.0661
28090W        W43221   9.804   8.238   3.341  0.1564  0.0064  0.0171
28091W        W43222   6.445  12.821  15.259 -0.3110  0.0507 -0.1328
28092W        W43223  11.395  11.065   2.269 -0.0285 -0.0212  0.1959
28093W        W43224   1.079  13.318   3.220 -0.0365 -0.0923  0.2020
28094W        W43225  17.371   0.270  14.197 -0.0936  0.2469  0.2326
28095W        W43226   6.212   1.981   1.703 -0.0550 -0.3240 -0.0940
28096W        W43227   7.546   0.925  14.849  0.1543 -0.0603  0.0365
28097W        W43228   7.192   4.024   5.385  0.0764 -0.3536  0.0597
28098W        W43229   6.987  11.125  13.326 -0.3679 -0.1502  0.1109
28099W        W43230   3.886   8.643   2.427  0.0326 -0.0822  0.0756
28100W        W43231   2.598   5.900  11.496 -0.1528  0.1246  0.2754
28101W        W43232  17.278  16.089  12.806  0.1718  0.0104  0.2822
28102W        W43233  11.961  15.022  14.805 -0.1984 -0.1281 -0.0279
28103W        W43234   7.444   0.625   0.981 -0.0545 -0.0111 -0.1620
28104W        W43235   8.851   4.381  11.149  0.0313 -0.1462 -0.0977
28105W        W43236   2.034   7.170  13.119 -0.1359  0.1244  0.0763
28106W        W43237   9.317   5.706  15.957  0.2986  0.0446 -0.2531
28107W        W43238   5.694   1.126   2.380  0.1011  0.2048  0.0014
28108W        W43239   3.165   2.728  14.092  0.2256 -0.1928  0.0370
28109W        W43240  15.274  15.922  13.229  0.1287  0.0650 -0.0916
28110W        W43241  17.917  12.227   4.412 -0.0320 -0.0080 -0.0113
28111W        W43242   8.409   0.650  13.845  0.0602  0.1047 -0.2053
28112W        W43243   1.260  16.110  14.770 -0.2346 -0.0488 -0.1057
28113W        W43244   8.078  10.993  13.162  0.0122 -0.2811 -0.0178
28114W        W43245   6.834  16.429  12.524 -0.0976  0.1289  0.0948
28115W        W43246  17.781   8.668  13.123 -0.1400 -0.0959 -0.0863
28116W        W43247  12.896  12.870   1.355 -0.1483  0.1538  0.0782
28117W        W43248   1.459  13.769  14.944  0.0544 -0.0684 -0.0493
28118W        W43249   2.408   6.584  15.552 -0.2498  0.3527  0.1688
28119W        W43250   9.007  10.954  13.822 -0.0489  0.1930 -0.0492
28120W        W43251   3.642   4.177   1.726  0.3146 -0.1322 -0.0311
28121W        W43252   0.999  15.724  10.080 -0.0081 -0.2442 -0.0902
28122W        W43253   7.154   7.251  12.926  0.1141 -0.3067 -0.0112
28123W        W43254   4.170  13.019  10.971  0.1755 -0.1402 -0.0190
28124W        W43255   6.900   9.036   1.938  0.0617 -0.2785  0.3572
28125W        W43256   7.009   4.843  15.309  0.0442  0.2464  0.0763
28126W        W43257  14.027   3.251  13.757  0.1171 -0.0404  0.1891
28127W        W43258   6.168   8.743   1.443 -0.3306  0.2027  0.1205
28128W        W43259   0.047   8.431  12.329  0.2524  0.3329 -0.1170
28129W        W43260  14.179  13.901   1.161 -0.1777 -0.1115  0.2120
28130W        W43261   7.196   6.751   0.842  0.1125 -0.1389 -0.3441
28131W        W43262  11.648  12.236   2.873 -0.1239  0.0301 -0.0924
28132W        W43263  14.397   2.014  15.207 -0.0154 -0.0854  0.0211
28133W        W43264  17.314  16.542  11.787  0.1109  0.3026  0.4238
28134W        W43265  15.398   6.179  13.037  0.1456  0.1940  0.1572
28135W        W43266   9.555   0.992  11.031 -0.0278  0.0299 -0.2154
28136W        W43267  11.099  13.497  14.749 -0.0825  0.1844  0.3288
28137W        W43268  17.791   1.735  16.009 -0.1009 -0.2446 -0.0532
28138W        W43269   0.896  12.620  14.714  0.2150  0.2748 -0.3322
28139W        W43270  10.868   7.092   3.995  0.1953 -0.1962 -0.0395
28140W        W43271   1.298   9.879   0.490  0.0202  0.0318  0.0081
28141W        W43272  12.046   7.018  14.957  0.0082 -0.1270 -0.1182
28142W        W43273  16.859  15.425  13.654 -0.2182  0.1560 -0.0193
28143W        W43274  15.248   0.202  12.761  0.2096  0.0497  0.0373
28144W        W43275   3.601  17.249  11.920  0.1960 -0.0612  0.1062
28145W        W43276   1.817  12.211  12.146 -0.0755  0.0509 -0.1432
28146W        W43277   5.831  12.028   0.428  0.0046  0.0242 -0.1643
28147W        W43278   1.085  15.832   2.555  0.3391 -0.2535 -0.1022
28148W        W43279  15.800  15.102   4.177  0.1156  0.1534  0.0348
28149W        W43280  17.188   8.144  13.900  0.0777  0.0870 -0.1282
28150W        W43281   6.907   0.673  14.042  0.0316 -0.0055  0.1102
28151W        W43282   5.209   4.947   5.334  0.3630 -0.2767 -0.0040
28152W        W43283  10.323  11.307  14.120 -0.0519  0.1997  0.0815
28153W        W43284   4.597  17.516  12.731 -0.0736 -0.1235  0.0965
28154W        W43285   3.890  17.880  14.195  0.0244 -0.0814 -0.0987
28155W        W43286  16.582   8.542   1.704 -0.1888  0.0769 -0.2550
28156W        W43287  13.751   7.792   5.144 -0.1201 -0.0968 -0.0521
28157W        W43288   1.586  11.182  12.407 -0.2300 -0.0812  0.1856
28158W        W43289   2.617   5.184  14.872 -0.2849 -0.0741 -0.1807
28159W        W43290   4.103  11.790   5.299  0.0236  0.1213  0.2039
28160W        W43291   2.689  13.156  15.894 -0.0918  0.1956 -0.2402
28161W        W43292  14.636   4.900   2.313 -0.3400  0.0976  0.1184
28162W        W43293   6.188  14.281  12.460 -0.0170  0.1275 -0.4326
28163W        W43294   7.690  10.591   4.673  0.0299  0.0821 -0.2842
28164W        W43295   8.322   6.002   0.437 -0.0887 -0.0615  0.0101
28165W        W43296  11.201  11.855   2.738  0.1787 -0.0247  0.1970
28166W        W43297   1.100   4.102   0.062 -0.0155 -0.1153 -0.2597
28167W        W43298   9.243   5.080  12.251  0.1434 -0.2698  0.1296
28168W        W43299  10.608   1.034   0.665  0.1106 -0.0024  0.0991
28169W        W43300   5.885   2.657   1.530  0.0002 -0.1254 -0.1713
28170W        W43301   5.959   5.933  13.421 -0.2248 -0.0736  0.0226
28171W        W43302   9.573  15.279   4.471 -0.2800 -0.2802  0.1784
28172W        W43303   1.300  17.169  14.082 -0.0993 -0.2841 -0.2955
28173W        W43304   5.998  17.429  11.342  0.0728  0.0995  0.2118
28174W        W43305   5.574  17.372  16.082  0.0607 -0.0821 -0.4979
28175W        W43306   2.706   2.597  15.288  0.1681  0.0637  0.0456
28176W        W43307   8.174  13.707   5.698  0.2412  0.0720 -0.0768
28177W        W43308   5.112   4.293  15.026 -0.0486 -0.1280  0.1715
28178W        W43309   6.167  12.917   5.775  0.1849  0.0059  0.0534
28179W        W43310   8.141  11.259   1.335  0.1632 -0.0892 -0.1544
28180W        W43311  10.794  13.900   1.940 -0.3517 -0.1149 -0.1176
28181W        W43312   9.175  12.865   3.380  0.0679  0.0715  0.0357
28182W        W43313  17.171  12.132  15.884  0.0813  0.2356 -0.0276
28183W        W43314   4.569  12.467   0.884  0.2475 -0.3016  0.0551
28184W        W43315   1.955  12.310   5.170 -0.0912 -0.1473  0.0029
28185W        W43316   9.932   8.977  16.118 -0.1346 -0.4814 -0.1375
28186W        W43317   1.660   6.245   1.914 -0.1224  0.2060 -0.1301
28187W        W43318   1.016   9.375   6.522 -0.2185 -0.1211  0.2994
28188W        W43319   2.041   2.915  13.886 -0.0339  0.0382  0.2217
28189W        W43320   5.476  13.966   0.191  0.1294  0.2300  0.1286
28190W        W43321  17.870   1.962   3.796 -0.0530  0.0518 -0.0562
28191W        W43322   0.645   5.489   1.523 -0.0569 -0.0078  0.3176
28192W        W43323  11.837   8.141   2.448 -0.0401 -0.1220 -0.0948
28193W        W43324   8.560  12.633  14.268 -0.3132  0.1177 -0.2195
28194W        W43325  16.340   4.141   2.348 -0.0108 -0.0592 -0.2044
28195W        W43326  15.196   3.165   0.083 -0.0336  0.0221  0.1013
28196W        W43327   6.660   8.917  13.511  0.0263 -0.0843 -0.1730
28197W        W43328   0.652  12.182  13.306  0.1266  0.1323  0.1699
28198W        W43329   3.165   9.241  10.870  0.1375 -0.1761 -0.1580
28199W        W43330  17.788  14.257  13.114 -0.0101  0.0176  0.1342
28200W        W43331   6.113   0.580  15.002 -0.0288 -0.0273  0.0046
28201W        W43332  13.482   0.168  11.906  0.1978  0.0384 -0.3386
28202W        W43333   5.998  17.910  12.266  0.0698 -0.0261  0.0577
28203W        W43334  14.549  17.785   1.507 -0.1604 -0.2475 -0.1753
28204W        W43335   9.169  10.242  11.995 -0.1271  0.3783 -0.2185
28205W        W43336   6.739  12.699   0.393  0.1138 -0.1568 -0.2033
28206W        W43337  16.489   4.150   3.491 -0.0174  0.1113  0.0528
28207W        W43338   2.997   2.381   3.067 -0.1680 -0.0005 -0.1188
28208W        W43339   5.751   5.565   5.148  0.0070 -0.1395  0.1023
28209W        W43340   7.421  14.140   2.499  0.3695  0.0961 -0.3290
28210W        W43341  11.309   5.295  11.147  0.0351 -0.0979 -0.1422
28211W        W43342   0.967   1.821  15.201  0.0276  0.2593  0.0482
28212W        W43343   1.251   1.685  11.867 -0.1717  0.2072 -0.0967
28213W        W43344  16.593  13.852   2.340 -0.0972 -0.1061  0.1041
28214W        W43345  14.076   7.874   0.349  0.1971  0.0646 -0.0303
28215W        W43346   8.058   1.587   3.687 -0.1503 -0.1684  0.2577
28216W        W43347   6.565   6.428  14.810  0.0980 -0.2268 -0.0607
28217W        W43348   8.688   1.176   3.720 -0.1004  0.1103 -0.0609
28218W        W43349   6.061   7.306   2.029 -0.0602 -0.1407  0.1541
28219W        W43350  18.020  11.924   3.441  0.3185 -0.0942 -0.0412
28220W        W43351  11.418  11.106  15.780  0.2411  0.1062 -0.1191
28221W        W43352  15.749  16.726   3.257 -0.0303  0.0302 -0.2261
28222W        W43353   6.433  16.425   3.628  0.0986 -0.0875  0.1307
28223W        W43354  11.004   5.350   1.348 -0.0621  0.1085 -0.3204
28224W        W43355   5.564   6.048   2.258  0.1997  0.0323  0.2905
28225W        W43356   7.772  17.053   1.910  0.0178 -0.1556  0.1057
28226W        W43357   5.035   3.498   1.124 -0.1935 -0.0323  0.0531
28227W        W43358   8.396   5.938   2.469  0.3996  0.1177 -0.1536
28228W        W43359   1.830   4.590   5.460  0.1325  0.3362 -0.3592
28229W        W43360  11.820   8.368  15.109 -0.0032  0.1021  0.2863
28230W        W43361   1.413   4.144   1.153  0.1825 -0.0337  0.0631
28231W        W43362   9.383   9.989   2.601 -0.0888 -0.0234 -0.1072
28232W        W43363   2.281   7.744  11.599 -0.0877 -0.1895  0.0598
28233W        W43364  10.521   4.727   5.112 -0.2603  0.2427 -0.0710
28234W        W43365   1.345  13.530  11.706 -0.0381 -0.0053 -0.4612
28235W        W43366  17.834   8.949  14.680 -0.2797 -0.0436  0.0326
28236W        W43367   4.823   9.334  11.426  0.0942 -0.2220 -0.1037
28237W        W43368   1.713  16.875   4.399 -0.1053  0.1591  0.2786
28238W        W43369   7.842  14.580  16.093 -0.1100 -0.1478  0.1760
28239W        W43370  13.958  15.998  14.405 -0.3108 -0.2866 -0.3428
28240W        W43371   5.319   0.215   5.409  0.0208 -0.0532 -0.0987
28241W        W43372   8.350   4.483  13.594 -0.0034 -0.1180  0.0622
28242W        W43373   7.181   0.225   0.805  0.0909 -0.0699 -0.0840
28243W        W43374   8.427   1.373  13.886  0.0619 -0.0087  0.0461
28244W        W43375   8.951   5.747   3.906 -0.1689  0.1706 -0.1290
28245W        W43376   4.619  10.137   1.683  0.0043  0.1800 -0.0077
28246W        W43377  17.046   7.135  11.563  0.2053 -0.3481  0.0352
28247W        W43378   0.131   3.282   1.236 -0.0512 -0.2390 -0.2179
28248W        W43379  14.659   0.629   1.504  0.0078 -0.1022 -0.0117
28249W        W43380  12.561   1.026  12.111 -0.1830 -0.3350  0.1384
28250W        W43381  18.036   7.551   4.832  0.1321  0.0156  0.1912
28251W        W43382  17.958  15.078   4.510  0.0233  0.2612  0.1843
28252W        W43383  10.410   0.258   2.819  0.1586 -0.2587 -0.0564
28253W        W43384  14.060   1.640  13.493 -0.1558  0.0441 -0.1786
28254W        W43385  11.208  15.270   4.577  0.2770  0.3823  0.1234
28255W        W43386   9.085  12.045   3.534 -0.3567  0.0832 -0.2744
28256W        W43387   7.909  14.418  15.599 -0.2612 -0.1203 -0.1686
28257W        W43388   1.388   6.489  12.797  0.0503 -0.1951  0.0493
28258W        W43389  13.121  17.571  14.742 -0.1015 -0.0296  0.0681
28259W        W43390  13.548   4.631   4.919 -0.3392  0.2102 -0.1545
28260W        W43391  14.114  12.323  11.398 -0.0088 -0.0513  0.0371
28261W        W43392   2.226   7.465  14.442 -0.0611 -0.1453  0.0821
28262W        W43393   9.339  13.997  14.251 -0.0929 -0.0030 -0.0638
28263W        W43394   3.847  12.830   5.099  0.0176  0.0899  0.1662
28264W        W43395  14.636  14.451   1.419  0.1724 -0.1793 -0.0450
28265W        W43396   5.501  14.657   3.308  0.3085  0.0026 -0.0710
28266W        W43397  17.036  12.676  12.746 -0.0181  0.0681 -0.0615
28267W        W43398  17.240   1.834   3.551  0.1855  0.1255  0.0322
28268W        W43399   9.831   8.001   0.677  0.0696  0.1988 -0.0814
28269W        W43400  15.544  10.382  14.166  0.0637 -0.0856  0.2272
28270W        W43401  10.738   6.597   1.941  0.0435 -0.3977 -0.2266
28271W        W43402  16.799  13.388  14.507  0.1708  0.0337  0.1799
28272W        W43403  12.565   4.373   2.670  0.0487 -0.3061 -0.1875
28273W        W43404   8.379  14.330   5.129 -0.1852  0.1363  0.3271
28274W        W43405  16.607   5.337   2.858  0.0535  0.1163  0.2317
28275W        W43406  15.038   8.023  13.026 -0.1954  0.0842 -0.1596
28276W        W43407   0.741   4.686   1.198  0.0592 -0.1566  0.1055
28277W        W43408   3.945   0.547   0.356 -0.1264  0.2140  0.0992
28278W        W43409   8.105  17.829  12.742 -0.1632 -0.1829 -0.1026
28279W        W43410   1.289  11.486  14.716  0.0054  0.4375  0.1429
28280W        W43411   9.643  13.617   1.182  0.0769 -0.0106  0.0306
28281W        W43412   8.597  10.431   4.023  0.1876 -0.1378 -0.0552
28282W        W43413  13.523   7.343   4.944 -0.1968  0.0363 -0.1284
28283W        W43414  16.446  12.980   2.605 -0.3640 -0.0843 -0.2781
28284W        W43415  11.303  14.429  14.369 -0.0872  0.1420  0.1738
28285W        W43416   0.102   3.447   0.744 -0.0946 -0.1131  0.0659
28286W        W43417  15.725  14.906   4.615  0.1106  0.0474 -0.1316
28287W        W43418   6.455  11.490  13.932  0.0257  0.2611 -0.2232
28288W        W43419   9.802  11.930   0.100  0.5162  0.0303 -0.3088
28289W        W43420   6.771   7.305  12.008  0.0517  0.3335  0.0620
28290W        W43421  14.470  15.820  11.331 -0.1116 -0.0716  0.1377
28291W        W43422  12.871  11.020  13.985 -0.0069 -0.1709 -0.1171
28292W        W43423  11.178  17.900   0.587 -0.0967  0.2132  0.3979
28293W        W43424   3.946  13.593   3.109  0.2598 -0.0120  0.2110
28294W        W43425   3.105  15.244  14.639  0.0929 -0.1916 -0.0654
28295W        W43426   1.620   8.208  12.208 -0.2431  0.0794 -0.1731
28296W        W43427   5.237  10.279   1.175  0.3535 -0.0352  0.1278
28297W        W43428   3.455  10.368   2.279 -0.0408  0.1591 -0.0142
28298W        W43429   4.069   9.973  11.097  0.0634 -0.0416 -0.2045
28299W        W43430   0.133   4.191   0.048 -0.0473 -0.2056  0.1073
28300W        W43431  12.027  13.503  14.115 -0.2801 -0.3079  0.1060
28301W        W43432  12.912  15.936   5.537 -0.0834 -0.0875 -0.0042
28302W        W43433  16.008   9.207   5.229  0.0327  0.2480 -0.2215
28303W        W43434   8.789   5.188   5.289 -0.2548  0.0619  0.1731
28304W        W43435  17.684   8.044   1.289  0.3144  0.1810 -0.1322
28305W        W43436  10.433   7.853   2.570 -0.2118 -0.0802  0.0392
28306W        W43437   6.183   0.979   1.117  0.0694  0.0090 -0.3963
28307W        W43438  17.765  10.927  12.901  0.0191 -0.0574  0.2654
28308W        W43439   2.094   8.200   2.718 -0.2269  0.2031  0.1080
28309W        W43440   5.958  15.588  11.531  0.4840 -0.0004 -0.0382
28310W        W43441   9.176  17.237   1.225 -0.2057 -0.1045  0.1852
28311W        W43442   5.728   6.738   0.156 -0.2458 -0.1792  0.2640
28312W        W43443  15.382  16.703  11.378  0.0047  0.0947  0.2080
28313W        W43444   6.826  17.456  12.082 -0.2281 -0.1629  0.0224
28314W        W43445   3.982   0.946   3.627 -0.2978 -0.0489  0.0668
28315W        W43446   3.088   1.085   0.170 -0.0111 -0.0602  0.1328
28316W        W43447  17.544  17.973  14.749  0.0165 -0.3079 -0.4754
28317W        W43448   6.091   3.934   3.342  0.1807 -0.2827  0.0105
28318W        W43449  12.520   1.837   5.507  0.2146 -0.3171 -0.2231
28319W        W43450  10.006  11.061   5.527 -0.0840 -0.1710 -0.2944
28320W        W43451   6.691   7.598   3.422 -0.1715 -0.1893 -0.1151
28321W        W43452   4.435  13.996  13.591  0.0774  0.2346  0.1616
28322W        W43453   6.995  15.822   5.418 -0.1057 -0.2080  0.2873
28323W        W43454   8.305   1.716   2.773 -0.0113  0.0675  0.0153
28324W        W43455   7.807   4.006   2.163  0.1927 -0.0860 -0.1524
28325W        W43456   9.194   0.192   2.297  0.1692 -0.1784  0.2761
28326W        W43457  13.251   3.299   4.615  0.3081  0.2578  0.1564
28327W        W43458   4.581   9.228  14.741  0.1211 -0.0274  0.0963
28328W        W43459  14.993  10.892  10.992  0.2004 -0.1572 -0.2318
28329W        W43460   0.357  13.919   0.898  0.1717 -0.2769 -0.0683
28330W        W43461   6.406   4.561  11.936  0.0238 -0.5621 -0.3290
28331W        W43462   3.054   1.377   0.582  0.1292 -0.1987 -0.2441
28332W        W43463   3.537   4.246   5.598  0.0158  0.0168 -0.2079
28333W        W43464  11.519   9.638  11.102  0.0511  0.0645  0.0671
28334W        W43465  12.500  16.429   3.276  0.0607  0.0202 -0.0504
28335W        W43466   8.523  17.404  16.154  0.0289 -0.1287 -0.2718
28336W        W43467   1.291  14.482  11.425  0.0671 -0.2668  0.4213
28337W        W43468   1.710  16.371   3.766 -0.0393  0.1595 -0.2100
28338W        W43469   2.819   2.605  14.418 -0.0779  0.0468  0.2941
28339W        W43470  11.126   5.274  11.704 -0.1602 -0.2703 -0.1336
28340W        W43471  15.949   7.239  15.856  0.3092 -0.2441  0.0486
28341W        W43472  12.705   4.517   5.417  0.3789  0.0155 -0.0725
28342W        W43473  15.276   5.321   3.235 -0.1091 -0.2139  0.1189
28343W        W43474   1.134  14.234   3.163  0.1127 -0.0195  0.2814
28344W        W43475  12.554   4.020   0.824  0.1711  0.2464 -0.1862
28345W        W43476  10.184  13.422   2.561 -0.3214  0.1226 -0.0380
28346W        W43477   7.892   8.963   0.487  0.0458 -0.1357 -0.0505
28347W        W43478  12.147  10.662  11.541  0.0319 -0.0627 -0.2852
28348W        W43479  14.127   7.071  15.676 -0.0176  0.0069  0.2472
28349W        W43480   5.932   1.279   3.091 -0.0443 -0.1880 -0.2024
28350W        W43481  10.138   4.122  12.291 -0.1425 -0.2588  0.1354
28351W        W43482  10.676   8.249   6.200  0.0237  0.0833 -0.1185
28352W        W43483  13.555  17.355   3.836 -0.0136 -0.1172 -0.1449
28353W        W43484   6.272   1.988   1.211  0.0562 -0.1896 -0.0580
28354W        W43485   7.681  15.798   0.659 -0.0576  0.3513  0.1316
28355W        W43486   3.669  17.824   4.503  0.1910  0.3826  0.1577
28356W        W43487   2.799   5.854  10.590 -0.2420 -0.0959 -0.2371
28357W        W43488   1.972  14.269  11.427  0.1481 -0.0111  0.1072
28358W        W43489   6.362   3.691   2.481  0.2460 -0.1045  0.2118
28359W        W43490  15.106   7.305   0.426 -0.0782  0.2538 -0.1910
28360W        W43491   4.958  12.721   0.227 -0.0402  0.1196  0.3508
28361W        W43492  13.906   1.345   5.288  0.4774  0.0646 -0.2823
28362W        W43493   0.553  11.222   4.029 -0.3224 -0.1852  0.2287
28363W        W43494   2.537   4.622   0.426 -0.1013  0.1429 -0.0074
28364W        W43495  14.493  14.721   5.797 -0.2228 -0.3507  0.1426
28365W        W43496  13.010   4.278  13.384 -0.2493 -0.0696  0.0302
28366W        W43497  15.418  13.370   4.236  0.2998 -0.1739 -0.0681
28367W        W43498  11.338  15.048  13.598 -0.1466 -0.0513  0.1959
28368W        W43499   7.461   0.246  14.615 -0.4335  0.1202  0.1287
28369W        W43500  10.029   1.453   2.483 -0.1107  0.0796  0.0019
28370W        W43501   9.278   4.284  13.710 -0.0070 -0.0433 -0.3680
28371W        W43502   1.393   0.192  12.895 -0.3173  0.3067  0.0354
28372W        W43503   1.641  16.307  10.675  0.0047  0.0545 -0.1845
28373W        W43504  17.331   8.437  14.314  0.2374 -0.0408 -0.1076
28374W        W43505  16.763   4.946  16.078 -0.0242 -0.0454  0.1990
28375W        W43506  14.346   2.351  14.549  0.0251  0.1413  0.0523
28376W        W43507  11.153   3.832  13.960 -0.2267  0.1717  0.1134
28377W        W43508   7.188   6.565  14.540  0.1519 -0.0303 -0.0340
28378W        W43509   4.132  14.886   2.582 -0.0673 -0.0274 -0.3109
28379W        W43510   6.571   5.064  12.024 -0.3191  0.2581 -0.0609
28380W        W43511   4.435   5.773   4.773 -0.1819  0.1838  0.0058
28381W        W43512   9.309   1.950   3.823  0.1097  0.1975 -0.0625
28382W        W43513   8.924  13.397   0.740  0.1065  0.1343  0.0763
28383W        W43514  17.690   9.486   5.838  0.0489 -0.0483  0.2353
28384W        W43515  13.532  10.272   5.435 -0.1159 -0.1874 -0.0045
28385W        W43516  10.330   7.060  12.572 -0.0607  0.0740  0.1388
28386W        W43517   5.659   9.607   0.814  0.1102 -0.0722  0.0427
28387W        W43518   4.685   7.071  15.111  0.0263 -0.0541  0.1010
28388W        W43519  13.335  15.532   1.954 -0.2764 -0.0003  0.1074
28389W        W43520  15.762  13.093  10.262 -0.1751 -0.0231  0.1954
28390W        W43521   7.249  11.246   1.442  0.2551 -0.2106  0.4191
28391W        W43522  14.371   8.378  14.441  0.1183  0.2573 -0.1096
28392W        W43523   8.648   8.664   6.152  0.4174 -0.1202  0.0124
28393W        W43524   1.112  10.073  14.941  0.0372 -0.3015 -0.1486
28394W        W43525   6.878   9.822   5.976  0.0511 -0.0222 -0.0648
28395W        W43526   7.167  13.342  15.435 -0.0131 -0.0583 -0.1133
28396W        W43527  14.225   0.037   4.340  0.2155 -0.1597 -0.0660
28397W        W43528   1.639  13.304  16.009  0.4102 -0.2893 -0.0671
28398W        W43529  10.275  10.716  13.593 -0.2555  0.0158  0.0681
28399W        W43530   5.902  13.424  14.081  0.1954  0.0384  0.1233
28400W        W43531  10.147   7.603  14.534  0.0182  0.1490  0.0386
28401W        W43532  11.258  14.123  12.948  0.1939 -0.0353  0.1432
28402W        W43533   2.753   5.391  11.499 -0.2052 -0.1731 -0.1415
28403W        W43534  16.172   5.185  13.169  0.0162 -0.0714 -0.0533
28404W        W43535  17.589   4.110  13.592  0.1927 -0.2265 -0.0970
28405W        W43536  10.758  11.155  15.051 -0.0286 -0.0341 -0.0290
28406W        W43537   5.584  10.675   2.632  0.0419  0.3584 -0.0049
28407W        W43538  17.611   7.903   3.828  0.3949  0.0388  0.1596
28408W        W43539  16.231  13.798   2.803  0.0106 -0.1801  0.0319
28409W        W43540   7.284  12.896  10.712  0.2668  0.1546 -0.0543
28410W        W43541   9.694  10.473   3.227  0.0036  0.0661  0.0029
28411W        W43542  14.663   1.773  11.652 -0.0586 -0.2280 -0.0884
28412W        W43543   5.304   7.636  15.717  0.2870 -0.0551 -0.0992
28413W        W43544  16.302   1.223   2.617  0.0289  0.1392 -0.0081
28414W        W43545  16.607  12.047  15.728 -0.1852 -0.1544  0.3996
28415W        W43546  15.515  11.199   1.810  0.3061 -0.6570  0.0397
28416W        W43547  10.964  13.287   1.368  0.0598  0.0389 -0.0140
28417W        W43548   7.788  16.761  12.727  0.3326  0.1257  0.0566
28418W        W43549   0.030  12.257   5.889  0.0005 -0.3831  0.0158
28419W        W43550   8.385   8.960   0.628 -0.0905 -0.0143 -0.3866
28420W        W43551   0.143   6.956   2.679  0.1047  0.0091 -0.1101
28421W        W43552  14.488   4.437  12.159  0.1580 -0.3660 -0.0451
28422W        W43553   8.564   7.662  11.746 -0.0330 -0.2379  0.2419
28423W        W43554   4.557   0.389  13.095  0.2274  0.2217 -0.1919
28424W        W43555   6.446   3.747  13.542  0.0733 -0.2173 -0.5622
28425W        W43556  13.617  10.604   0.694  0.2780  0.0929 -0.2032
28426W        W43557  12.677  14.500   0.400 -0.2395 -0.0607  0.0881
28427W        W43558   7.974  11.557   2.403 -0.1523  0.4079  0.0791
28428W        W43559  10.756   0.823  11.867  0.4033  0.1130  0.2331
28429W        W43560   0.929   5.996   4.487 -0.1686  0.1075 -0.0659
28430W        W43561   5.813   6.695   1.431  0.2930 -0.2098 -0.1311
28431W        W43562  13.359   2.261   1.548  0.0210 -0.2207 -0.0209
28432W        W43563   9.776   0.019  12.740 -0.0456 -0.2210 -0.0507
28433W        W43564  10.803   6.530  14.212 -0.0819 -0.1312 -0.0877
28434W        W43565  16.843  13.704   0.555  0.0633 -0.0676  0.2869
28435W        W43566   2.488   0.458   4.962 -0.0872 -0.2046 -0.1390
28436W        W43567  11.437  13.149   1.532  0.0464 -0.0780 -0.0668
28437W        W43568   3.920  11.423  13.545  0.1417 -0.0087 -0.3267
28438W        W43569   8.426  17.587   4.400 -0.0950 -0.1559  0.2622
28439W        W43570  14.086   0.985   2.636 -0.1790 -0.2336  0.1354
28440W        W43571  11.066  14.314  13.946  0.1873  0.0142  0.8988
28441W        W43572   3.059  12.720  10.655  0.2472 -0.0717  0.0596
28442W        W43573   3.514   9.896   4.760 -0.2935 -0.1961 -0.2220
28443W        W43574  14.579  17.967  14.844  0.0550  0.1933 -0.0081
28444W        W43575   7.405  12.602   5.770  0.2374 -0.1303  0.1853
28445W        W43576   4.394  12.665  13.699 -0.3277 -0.1182  0.1505
28446W        W43577  12.482  17.862   4.382  0.1330 -0.1793  0.0916
28447W        W43578  13.518  10.294   3.933 -0.0046  0.3110 -0.0739
28448W        W43579   1.376  13.668  16.178 -0.5299 -0.0795  0.0148
28449W        W43580   1.039   5.514  12.621 -0.2452  0.1869  0.2985
28450W        W43581  17.886  11.539  15.178  0.1046 -0.2978  0.1341
28451W        W43582  12.410   8.811   5.482 -0.1161 -0.2199  0.2271
28452W        W43583   3.260  16.004  11.471  0.0617 -0.1680  0.1876
28453W        W43584  11.907   8.729   0.382 -0.1335  0.1611 -0.0163
28454W        W43585   5.503   0.759  13.744 -0.1712 -0.2064  0.0987
28455W        W43586   4.933  13.054  10.823 -0.0204 -0.1554 -0.0270
28456W        W43587   2.813   0.832   4.167  0.0025  0.0866  0.0629
28457W        W43588   1.068  16.200   4.198  0.2211  0.1405  0.2414
28458W        W43589   5.239   7.234   2.536 -0.0038 -0.2264 -0.0294
28459W        W43590  14.290  15.736  12.403  0.1557 -0.3998  0.1018
28460W        W43591  16.443   9.524   2.382  0.0656  0.2413 -0.0377
28461W        W43592  16.398   7.242  13.149 -0.0931 -0.0169 -0.0163
28462W        W43593  15.226   8.562   1.223 -0.0478  0.0998 -0.3397
28463W        W43594  12.904   2.803  11.634  0.0878  0.0850  0.1782
28464W        W43595   3.550   5.355   2.149  0.2000  0.1406  0.0944
28465W        W43596  17.681  11.451   1.133  0.0707  0.0735 -0.1857
28466W        W43597  11.081  10.699  15.059  0.1923  0.0485 -0.1402
28467W        W43598  14.548   1.749  12.613 -0.3213  0.2360 -0.1450
28468W        W43599  15.989   3.010  11.042  0.1464 -0.2150 -0.1224
28469W        W43600   9.408  16.783   0.956 -0.1970  0.2397  0.3135
28470W        W43601  12.784   7.106  13.406 -0.3843  0.0032  0.3457
28471W        W43602   4.833  16.017   4.076 -0.1625 -0.0442 -0.1653
28472W        W43603   8.362   4.972  12.473 -0.0022  0.0548  0.3963
28473W        W43604  14.286   7.272   1.259 -0.0274 -0.2384 -0.5574
28474W        W43605  11.229   2.630   0.611 -0.0191  0.1993  0.0161
28475W        W43606  13.318  13.727   3.636  0.2012  0.1811 -0.0261
28476W        W43607   0.762   6.776  11.080  0.2728  0.0966  0.0945
28477W        W43608   1.014  13.976  14.947  0.4744 -0.0868 -0.0737
28478W        W43609  13.864   7.437   2.623 -0.1372  0.1503 -0.2352
28479W        W43610   1.057   7.530   0.559 -0.1960 -0.2829 -0.0210
28480W        W43611   7.225  14.552   1.701 -0.0109 -0.0252  0.0874
28481W        W43612  17.978   1.919   0.331 -0.1778  0.0419  0.0221
28482W        W43613   3.492   8.716  14.648  0.3597 -0.0570  0.1141
28483W        W43614   2.211   9.499   5.297  0.1282  0.1391  0.0566
28484W        W43615   8.437  15.395   1.825  0.1857 -0.1655 -0.0440
28485W        W43616  16.332   3.026   1.309 -0.0554 -0.2440  0.0932
28486W        W43617  11.243   4.062   1.491 -0.0049  0.0926 -0.2067
28487W        W43618  11.157   5.550  16.101 -0.1075 -0.0922  0.1520
28488W        W43619  15.172  15.640   4.230  0.0479  0.4123  0.0612
28489W        W43620  10.034   1.703   3.707  0.0934 -0.3135 -0.1934
28490W        W43621   2.119   2.976  11.494 -0.1132  0.1210  0.3730
28491W        W43622  12.224   0.267   3.732 -0.0279  0.1450  0.0025
28492W        W43623   7.961   8.182   1.291 -0.0387  0.0739 -0.1800
28493W        W43624  16.012   8.640   5.060  0.1301  0.1282 -0.0043
28494W        W43625   0.053   0.544  14.291 -0.2522 -0.1276  0.0781
28495W        W43626  17.482  11.659   3.006 -0.1010  0.2732 -0.2783
28496W        W43627  13.015   6.622   0.751  0.1994 -0.2169  0.2625
28497W        W43628  14.392   7.109  14.036 -0.1897  0.1260  0.2179
28498W        W43629  15.213   6.108   1.079 -0.2082  0.0177 -0.0402
28499W        W43630   2.813  10.408  12.363  0.0638 -0.1883  0.1268
28500W        W43631   5.759  10.730  13.799  0.1196 -0.1685 -0.2405
28501W        W43632  15.253  17.085   2.680 -0.0286 -0.0011 -0.3233
28502W        W43633   9.991  17.892  13.727  0.2906  0.0792 -0.1564
28503W        W43634   6.912  11.870   5.412 -0.1047 -0.0852 -0.0945
28504W        W43635  15.173   2.408  15.404  0.0735  0.4290 -0.1018
28505W        W43636   6.747   7.403  14.253  0.3368 -0.1636  0.0396
28506W        W43637   8.692  11.419  12.183  0.0119  0.3747  0.2700
28507W        W43638   3.921  11.699   3.970  0.1459  0.3077 -0.1609
28508W        W43639   6.046  13.749  15.489  0.1529 -0.2653  0.0255
28509W        W43640   3.447   6.225   0.701 -0.2554 -0.1425 -0.0925
28510W        W43641   9.379  11.767   3.879 -0.0824  0.2263  0.1952
28511W        W43642   0.085  14.034  10.883 -0.2162  0.1080 -0.0428
28512W        W43643  12.819  16.579  13.147 -0.0613  0.2246 -0.1929
28513W        W43644   1.015  17.624   2.036  0.3341 -0.2515  0.0494
28514W        W43645   1.033   1.025  14.765  0.1588  0.0694 -0.0897
28515W        W43646   8.714  14.706  12.360 -0.1093  0.1463  0.2407
28516W        W43647   0.835  11.127   1.020 -0.1878 -0.4458  0.4252
28517W        W43648  10.848  17.437   2.662  0.2407  0.1308  0.0026
28518W        W43649   9.057   9.264   4.560  0.0226 -0.1681 -0.0498
28519W        W43650   5.209  18.017   1.029 -0.3655  0.2518 -0.0932
28520W        W43651  11.493  11.020  13.744  0.0394 -0.1690  0.2269
28521W        W43652   0.218  11.131  12.234  0.1131 -0.1386  0.3871
28522W        W43653   5.255  16.765   1.871  0.0996  0.0978 -0.0435
28523W        W43654  15.674   9.474   0.006 -0.0326  0.0004  0.0971
28524W        W43655  14.727   0.276   5.231 -0.0429 -0.1772  0.3029
28525W        W43656   7.121   2.157  13.220 -0.0711  0.2358  0.2981
28526W        W43657  17.939   4.173   4.096 -0.0803 -0.0289  0.1497
28527W        W43658   7.781  16.382  15.932  0.0597 -0.1264  0.0367
28528W        W43659   3.618   0.156   4.739  0.2149 -0.0345 -0.0286
28529W        W43660  11.458   1.400  15.798  0.0902 -0.2965 -0.0720
28530W        W43661   1.564   9.380  15.070 -0.0228 -0.1740  0.0690
28531W        W43662  11.154   9.672  15.872  0.0062  0.0979 -0.2332
28532W        W43663   9.183  11.650  11.716 -0.2049 -0.1178 -0.0799
28533W        W43664  16.575   3.813  12.813 -0.1273 -0.3200  0.2924
28534W        W43665  14.627  12.298  12.531 -0.2490 -0.1067 -0.1384
28535W        W43666   4.744  12.111   4.299  0.1248  0.1067 -0.1323
28536W        W43667  14.903   8.361  14.303  0.0703  0.0705  0.0548
28537W        W43668  15.013  17.472   2.532  0.1599 -0.0916 -0.1147
28538W        W43669  12.451  16.012   1.972  0.0537 -0.0367 -0.1274
28539W        W43670   2.648   6.992   4.291  0.1000  0.2036 -0.1074
28540W        W43671  10.871   3.128   1.438  0.2628  0.1405  0.2920
28541W        W43672   2.296   1.619  11.575  0.2471 -0.3494 -0.1023
28542W        W43673  16.711  18.081   2.376  0.1623  0.2168 -0.1060
28543W        W43674  17.125   8.232   2.298  0.1959 -0.0073  0.0384
28544W        W43675   3.513   1.128  11.414  0.2451 -0.1407 -0.1714
28545W        W43676  11.690  10.103   5.627  0.2068  0.1134 -0.1516
28546W        W43677  17.978  12.454   4.863  0.0876  0.1946 -0.1554
28547W        W43678   6.546  10.800  15.188 -0.1197  0.1653 -0.2377
28548W        W43679   3.384   7.997   3.556  0.1989 -0.2899  0.1067
28549W        W43680   8.022  17.217  14.140 -0.2358  0.1562 -0.2251
28550W        W43681  17.816  16.449   3.435  0.0455  0.4218 -0.3192
28551W        W43682   4.278  10.373  16.032  0.1135 -0.1518  0.0007
28552W        W43683   6.434  17.405  16.069 -0.2668  0.2183  0.1694
28553W        W43684   0.448   5.160  10.836  0.0193 -0.0966 -0.4608
28554W        W43685  15.302  16.471   3.513  0.2701 -0.0135  0.2176
28555W        W43686  16.571  14.879  14.957  0.0376 -0.1735  0.2352
28556W        W43687   4.458   1.518   3.114 -0.1358 -0.0480 -0.2228
28557W        W43688  16.609   0.517  13.890  0.1584  0.0597  0.2319
28558W        W43689   6.335   0.587  10.450 -0.0868  0.1438  0.0006
28559W        W43690  15.889   5.071  13.574  0.5268  0.0384  0.0518
28560W        W43691  12.067  16.411  12.374  0.2245  0.3786 -0.1450
28561W        W43692  14.059  11.370  13.329  0.0341 -0.0335 -0.0919
28562W        W43693  10.391   1.637   5.361 -0.2096 -0.0878  0.1057
28563W        W43694  15.154  15.461  11.787 -0.1220  0.3456 -0.1016
28564W        W43695   5.183  11.228   4.414  0.0736  0.0657  0.1297
28565W        W43696   7.517  12.117   1.905  0.1703  0.1192 -0.2356
28566W        W43697   3.971  11.281   1.096 -0.1983  0.2449 -0.0776
28567W        W43698   2.793   3.334   3.278 -0.1685  0.0582  0.2563
28568W        W43699  11.523   5.318   3.876  0.0624 -0.3041 -0.1845
28569W        W43700  14.064   4.434   5.607 -0.0453 -0.0423  0.1930
28570W        W43701   1.819   7.054   0.891  0.0645 -0.2027 -0.0197
28571W        W43702  17.643   5.095  14.816  0.3467 -0.1574 -0.0273
28572W        W43703  17.485   8.633  16.191  0.1692 -0.2113  0.0048
28573W        W43704  12.645   8.365  13.667 -0.1513  0.1635  0.1052
28574W        W43705  13.864  13.639  12.054  0.1294 -0.0192  0.2961
28575W        W43706   5.269   9.764   5.566  0.0100 -0.2384  0.1823
28576W        W43707   0.658  10.282  12.282 -0.1184 -0.1430  0.2912
28577W        W43708  13.822  17.692   0.706  0.3043  0.0703  0.0789
28578W        W43709  10.324   8.528   1.443 -0.0973 -0.0098 -0.0548
28579W        W43710   4.050   8.308  11.831  0.3021 -0.0120 -0.2371
28580W        W43711  10.727   2.537  14.864 -0.1656 -0.1041  0.0090
28581W        W43712   8.792   7.687  12.756  0.0366 -0.1070  0.0454
28582W        W43713  17.928   8.586   4.921  0.0190 -0.1178 -0.6566
28583W        W43714  12.302  16.662  11.527 -0.1017 -0.0612  0.0380
28584W        W43715   4.428  17.962   3.792  0.2926  0.2388 -0.1858
28585W        W43716   3.981   8.213   5.776 -0.1706 -0.1126  0.0727
28586W        W43717  10.872   1.220   3.302  0.1149  0.1083 -0.2955
28587W        W43718  15.555  17.596  15.877  0.0732  0.2221 -0.0407
28588W        W43719  17.410   2.981   3.641  0.2614 -0.1576  0.1468
28589W        W43720  11.978  15.540   5.663  0.0294 -0.0790  0.0640
28590W        W43721   8.079   5.482  11.302  0.1228 -0.3247  0.3771
28591W        W43722   3.846  13.001  15.804 -0.1552 -0.1478  0.1606
28592W        W43723   9.598   0.960  14.459 -0.0001  0.4258  0.0907
28593W        W43724   1.253   6.893  13.642 -0.0037  0.4744 -0.0872
28594W        W43725  17.691   9.556   4.981  0.1433 -0.0159  0.1365
28595W        W43726   6.681  10.652   4.948 -0.0606 -0.1167  0.0186
28596W        W43727   6.691  10.759   2.191 -0.3059  0.2098 -0.0819
28597W        W43728   2.942   6.173  14.838 -0.1093  0.0343 -0.1735
28598W        W43729   4.139  10.554   1.665 -0.0088  0.1135 -0.0325
28599W        W43730  13.339   1.442   3.807 -0.2320 -0.1097 -0.2077
28600W        W43731   0.246  16.208   2.058  0.0395 -0.0321 -0.1240
28601W        W43732   8.968   1.944  13.406  0.0293  0.0078  0.0064
28602W        W43733  14.724   3.866   0.913  0.0219  0.0056 -0.3444
28603W        W43734   7.488   7.480  14.866  0.2315  0.0599  0.1389
28604W        W43735   1.518   9.554   3.679  0.1527  0.1449 -0.1007
28605W        W43736  12.570  13.219   3.060 -0.0041  0.1184 -0.0133
28606W        W43737   0.190   0.527  12.150 -0.0331  0.2106 -0.0458
28607W        W43738  10.450  15.487  13.338 -0.0456 -0.2018  0.0553
28608W        W43739   9.218   8.015   2.802  0.2599  0.1147 -0.2218
28609W        W43740  17.706  13.305   1.974 -0.2294 -0.2329  0.1229
28610W        W43741   6.114  14.246   0.973 -0.0279  0.0563  0.2112
28611W        W43742  10.783   7.044  12.378  0.2154 -0.2847 -0.0284
28612W        W43743   4.139  11.082   1.586 -0.1001 -0.3040  0.1789
28613W        W43744   1.596   7.819  15.935 -0.0486  0.0098  0.1133
28614W        W43745   1.848   4.188   2.107 -0.0739  0.1570 -0.4972
28615W        W43746   8.657   5.538   0.336 -0.1118 -0.0899  0.1868
28616W        W43747   7.995   6.603  15.894  0.0582  0.1635 -0.1193
28617W        W43748   7.323  16.211  11.160  0.2446  0.1526  0.0474
28618W        W43749  16.382   4.298   4.022  0.2062 -0.1878  0.5555
28619W        W43750   3.802   7.920  13.895 -0.0080  0.1355 -0.1101
28620W        W43751   0.932  13.894  14.395  0.1746 -0.1341  0.3873
28621W        W43752  14.469  14.232  11.692 -0.3566  0.0316  0.3333
28622W        W43753   3.074   9.309  13.112 -0.2328  0.2066 -0.1454
28623W        W43754   8.496   7.922  15.984 -0.1858 -0.2155 -0.1068
28624W        W43755   5.702   6.333  15.275 -0.0134  0.4410 -0.0476
28625W        W43756   2.314  12.337  14.848  0.1184  0.2151 -0.3211
28626W        W43757   0.639   6.030   4.040  0.0656  0.1318 -0.1743
28627W        W43758  12.797  15.279   2.296  0.2260 -0.1122 -0.2846
28628W        W43759  15.982   7.235   1.664 -0.0137 -0.1463 -0.0110
28629W        W43760   4.580  15.942   4.574 -0.1483  0.0985 -0.0958
28630W        W43761  13.599  11.800  15.550 -0.1881 -0.0726 -0.1572
28631W        W43762   5.041  13.535   4.288 -0.0599 -0.1751  0.0978
28632W        W43763  13.705   5.657   3.870 -0.0915  0.0129  0.0547
28633W        W43764  14.168   3.947   0.718  0.0920  0.0169 -0.1393
28634W        W43765  16.511   2.369  14.399  0.2055  0.1691  0.0234
28635W        W43766  11.262  17.024   0.941  0.2076 -0.0719 -0.1400
28636W        W43767  15.469  11.454   4.446 -0.1979 -0.1619  0.0706
28637W        W43768  14.283  15.938  12.812 -0.0595  0.1293 -0.2079
28638W        W43769  11.067   4.589   5.169 -0.3364 -0.2784  0.3475
28639W        W43770   1.366   5.746   0.222 -0.1144  0.1042 -0.1607
28640W        W43771  16.014  16.627   2.006 -0.2856  0.1119  0.0944
28641W        W43772   5.496  15.911  11.662 -0.3300 -0.1861 -0.0570
28642W        W43773  13.131  13.858  12.985 -0.0772 -0.0746  0.1500
28643W        W43774   6.662   8.521  14.752  0.0542  0.1647  0.1050
28644W        W43775  12.427  13.071   2.268  0.0176  0.0137  0.3219
28645W        W43776   5.072   1.687   4.777 -0.0351 -0.0697  0.1716
28646W        W43777  12.929  12.803   0.423 -0.0061 -0.2152  0.0053
28647W        W43778   9.358  13.649  11.787 -0.1318 -0.2831  0.2114
28648W        W43779   2.641   8.667   0.855  0.0169  0.0719  0.1412
28649W        W43780   9.300   2.565  14.100  0.0951 -0.2057 -0.0079
28650W        W43781   6.683   2.603  15.371  0.0543  0.1834  0.0532
28651W        W43782   9.559   1.811  14.368 -0.0492 -0.1264  0.2446
28652W        W43783  17.276   9.002   4.548 -0.0287 -0.1002 -0.0785
28653W        W43784  10.092   9.141  13.976  0.1727  0.1177 -0.0931
28654W        W43785  11.354   6.275   0.887 -0.0670 -0.2007  0.1079
28655W        W43786   2.346   6.840  13.873 -0.0991  0.1198  0.1757
28656W        W43787   0.489   4.823   0.716  0.0532 -0.1075  0.0417
28657W        W43788   3.396   3.380  12.650  0.3244  0.0380  0.0333
28658W        W43789  18.030   3.275  13.364 -0.0640  0.2357  0.0599
28659W        W43790   0.492  17.892   1.997 -0.1547 -0.1322 -0.1866
28660W        W43791  14.445  17.967   2.012 -0.0955  0.0208  0.2618
28661W        W43792   6.117  13.799  12.139  0.0245 -0.0008 -0.0061
28662W        W43793  11.092  13.070   0.547 -0.1539  0.0234 -0.0041
28663W        W43794   6.268  15.369  13.601 -0.0399 -0.1850 -0.1385
28664W        W43795  13.048  14.354  13.203  0.2671  0.0308  0.3756
28665W        W43796  16.331   1.699  13.448 -0.0897  0.0905  0.3908
28666W        W43797  14.987  16.625  12.168  0.2380  0.1782  0.0231
28667W        W43798  10.789   8.342   0.671 -0.0111  0.0996  0.2235
28668W        W43799   1.161   5.517   1.346  0.2748  0.0653 -0.0327
28669W        W43800  10.714  12.100   2.710  0.2323  0.2199 -0.0207
28670W        W43801  11.010  12.703   6.104  0.2849  0.0453  0.2917
28671W        W43802   4.318   6.435   0.165  0.4341  0.3246 -0.1207
28672W        W43803   7.384  10.087  15.148 -0.1743  0.1259 -0.0635
28673W        W43804   2.426   7.173  11.577 -0.0317  0.2168  0.0036
28674W        W43805  11.968  16.519   0.734 -0.1776 -0.0849 -0.0621
28675W        W43806  18.006   8.140  11.873 -0.0806 -0.0401  0.2935
28676W        W43807  16.305   8.439   4.048 -0.0546 -0.0545  0.1499
28677W        W43808  13.569   3.616  16.088 -0.1072 -0.0402 -0.4378
28678W        W43809   2.037  13.382   2.163  0.0756  0.2994  0.1789
28679W        W43810  16.944  17.935  11.753  0.0595  0.0457  0.0618
28680W        W43811   7.882  12.581  12.676 -0.0621 -0.0437 -0.1442
28681W        W43812   7.126   3.896   0.962  0.4055  0.1667 -0.2835
28682W        W43813   6.577   5.495  11.630 -0.1924  0.2821 -0.1650
28683W        W43814  14.732  10.232  15.248 -0.0180 -0.1774 -0.0723
28684W        W43815   1.836   7.008  15.895  0.1624  0.0561 -0.1064
28685W        W43816   6.928  13.574  15.881 -0.1030  0.0836  0.1422
28686W        W43817  12.247   2.772  12.135 -0.0021  0.1877  0.0210
28687W        W43818   4.613   6.961   3.461 -0.3231  0.2036  0.3188
28688W        W43819  12.591  10.803  10.614  0.0325  0.0728 -0.1942
28689W        W43820   4.612   8.994  15.938  0.0376  0.0428 -0.0914
28690W        W43821   2.628  14.692   2.343 -0.2062  0.1529 -0.1944
28691W        W43822   9.566  13.195   3.330  0.1654  0.0730  0.0780
28692W        W43823   3.292  12.192  12.368 -0.1484 -0.0205 -0.2398
28693W        W43824  10.659   8.337  16.096  0.0114 -0.2003  0.3108
28694W        W43825   3.017   7.361  12.868 -0.1636 -0.1208  0.3147
28695W        W43826  11.666  16.805   4.611  0.3270  0.2271 -0.0528
28696W        W43827   1.907  16.047  11.059  0.0946  0.0948  0.1646
28697W        W43828   4.402   7.479  11.913  0.1459 -0.0173  0.1796
28698W        W43829   4.392   7.877   0.171  0.0519 -0.1620 -0.2408
28699W        W43830   4.296   1.887  14.129  0.0607 -0.1702  0.0449
28700W        W43831  15.648  14.206  11.644  0.1452  0.2660 -0.2150
28701W        W43832  14.760  17.004   4.661 -0.1504  0.0174  0.0684
28702W        W43833   7.139  13.007   2.672 -0.0981  0.0887 -0.3044
28703W        W43834  15.707   8.713  15.010 -0.2440  0.2007 -0.0445
28704W        W43835   8.331   5.544   2.797  0.1749 -0.1485  0.0248
28705W        W43836  11.048  13.760  11.428  0.2973 -0.0197  0.1309
28706W        W43837   0.034   8.191  14.178  0.1030 -0.1259 -0.1993
28707W        W43838   3.093   5.954  13.132 -0.0827  0.1212  0.1948
28708W        W43839   2.558   8.986  12.604  0.2695 -0.3695  0.0120
28709W        W43840  13.209  14.752  13.447  0.1870 -0.0448 -0.2437
28710W        W43841  16.749  12.220  12.724  0.2816 -0.0616 -0.1660
28711W        W43842   8.643   3.168  13.458 -0.6135  0.2710 -0.1049
28712W        W43843  12.203   4.138   3.577 -0.0133  0.0031  0.0854
28713W        W43844   6.676  12.053   1.182 -0.1425 -0.3358  0.1333
28714W        W43845   8.915   9.765   4.832 -0.0540 -0.0311 -0.3093
28715W        W43846  12.329  13.015  12.959  0.1014  0.0387  0.1645
28716W        W43847  10.167   7.677  16.066 -0.1650 -0.3042  0.3515
28717W        W43848   2.319  16.494  14.789 -0.0403  0.2558  0.0421
28718W        W43849   9.612   0.457   3.562  0.0904  0.3414 -0.2289
28719W        W43850  13.125   1.609   1.067 -0.1239 -0.0594 -0.0142
28720W        W43851   8.996   5.501  12.021  0.0341  0.1060 -0.0937
28721W        W43852   3.862   3.650   2.837  0.0289 -0.1442 -0.6711
28722W        W43853   6.551   6.237   1.480  0.0636 -0.2244  0.1914
28723W        W43854   8.220   3.607   1.333 -0.3270 -0.1083 -0.2630
28724W        W43855   2.407  12.045  10.954  0.0289 -0.2383 -0.1533
28725W        W43856  18.088   7.001   4.140 -0.1264 -0.0095  0.1239
28726W        W43857  14.187  15.762  15.378  0.1219  0.1473  0.0075
28727W        W43858   6.991   0.390  14.723 -0.1227  0.1251 -0.2933
28728W        W43859  16.382  11.933  14.240 -0.0673  0.2130 -0.0175
28729W        W43860   6.045   5.635   0.294  0.3090 -0.2935  0.0974
28730W        W43861   1.378  11.609   0.896  0.1589 -0.1332 -0.1843
28731W        W43862  10.080  10.016   1.905  0.0473  0.0592  0.0881
28732W        W43863   3.437  13.347  11.695  0.1474 -0.2184 -0.2178
28733W        W43864   9.442  15.621  14.250 -0.2376 -0.0343 -0.1607
28734W        W43865   1.847   3.475   0.485  0.1388  0.0122 -0.1520
28735W        W43866  10.032  12.371  10.039  0.0656 -0.2016 -0.0214
28736W        W43867  15.295   8.039   6.004 -0.1449 -0.1474  0.2845
28737W        W43868  12.411   7.252  12.104  0.0611  0.0123 -0.0837
28738W        W43869   2.122   3.251  12.353 -0.0198  0.1351 -0.0028
28739W        W43870  10.440  10.391   4.315 -0.1198  0.2125  0.3127
28740W        W43871  16.831  14.921   0.977  0.1386 -0.1352  0.0539
28741W        W43872  10.212   9.967   2.843 -0.0902  0.0193 -0.1924
28742W        W43873   3.208  17.327   3.986  0.1516  0.3448 -0.1215
28743W        W43874   8.711  14.744  11.476 -0.0867  0.0143 -0.2714
28744W        W43875  10.027   5.599  14.426  0.0403 -0.1199 -0.0193
28745W        W43876   1.421   7.471  15.226  0.1588  0.0514  0.0831
28746W        W43877  17.041   0.096   4.302 -0.1936  0.1577  0.0450
28747W        W43878   6.655   4.167  13.263 -0.0382 -0.0005  0.3092
28748W        W43879   8.018  14.674   1.517 -0.0003  0.1662 -0.1185
28749W        W43880  16.859  13.127  15.834 -0.1820 -0.0912 -0.1298
28750W        W43881   0.634  16.736   0.835  0.2410 -0.0411  0.4364
28751W        W43882  17.214   3.365  11.996 -0.3266  0.0165 -0.0628
28752W        W43883   9.329  11.376   4.873 -0.0435  0.0022 -0.0099
28753W        W43884   5.323   3.959   1.081  0.3589  0.0236 -0.2786
28754W        W43885  10.000   6.916   2.847 -0.2164  0.4455 -0.0876
28755W        W43886  16.936   8.852   4.962 -0.0796 -0.0111 -0.2787
28756W        W43887   4.671   6.361  11.705  0.0975  0.0958 -0.1559
28757W        W43888   3.290  10.636   1.737 -0.0986  0.2608  0.2739
28758W        W43889   2.684   5.329  12.006  0.1783 -0.0012  0.0855
28759W        W43890   5.238   2.624   0.748  0.0714  0.0169  0.0755
28760W        W43891  15.423  11.640  14.251  0.3125  0.1077 -0.1513
28761W        W43892  15.223  14.294  15.658  0.0108  0.1395 -0.1146
28762W        W43893   3.049   2.895   5.835 -0.0084 -0.4375 -0.1723
28763W        W43894  14.260  15.956   1.643 -0.2378 -0.0725  0.0511
28764W        W43895   0.051   1.456  13.859  0.1708 -0.1349 -0.0479
28765W        W43896   8.215   6.752  11.313  0.0525 -0.0856 -0.0969
28766W        W43897   2.236  16.104  15.537  0.3583  0.1429  0.1424
28767W        W43898   5.693  16.069  13.444  0.0543 -0.0179  0.0597
28768W        W43899  14.741  11.210   3.311  0.2647  0.0697 -0.5930
28769W        W43900   4.397  13.806   3.233  0.1142  0.0689 -0.0891
28770W        W43901  13.678   3.619  13.578  0.1056 -0.3136  0.2704
28771W        W43902  13.217  11.560   0.756  0.1458 -0.0457  0.1238
28772W        W43903   4.638   7.429   0.113  0.0796 -0.2067  0.2710
28773W        W43904  11.787   4.806  12.305 -0.1124  0.1714  0.0860
28774W        W43905  16.064  15.557  11.432 -0.1117 -0.2051  0.0910
28775W        W43906  11.767   0.590  12.375  0.1424  0.2832 -0.1584
28776W        W43907   9.251   5.820   3.263  0.3274  0.0008  0.0751
28777W        W43908  15.308  12.859   0.904 -0.3056 -0.1104 -0.3004
28778W        W43909   4.212   6.009  13.416  0.2980 -0.1834  0.2979
28779W        W43910   9.227   6.218   6.214 -0.0694  0.2246  0.0532
28780W        W43911   3.023   0.862   1.346 -0.1101  0.0737 -0.0196
28781W        W43912  14.622  11.739   0.303 -0.0584  0.0057 -0.0543
28782W        W43913  17.789   7.582  14.604 -0.0787  0.0380 -0.2237
28783W        W43914  13.535  15.075  14.811  0.2302  0.1018 -0.0743
28784W        W43915   3.289  12.936   3.646 -0.0442  0.3080 -0.2658
28785W        W43916   9.612   1.007   3.682  0.0072 -0.1074 -0.0871
28786W        W43917   4.403   0.845  10.244 -0.0496  0.2670 -0.0670
28787W        W43918   4.960  15.198  15.903 -0.1757  0.1251 -0.0202
28788W        W43919   0.860   7.753   3.635  0.3303  0.1142 -0.1212
28789W        W43920   9.403   3.143   5.625 -0.0174  0.3231 -0.0640
28790W        W43921  16.851   2.570  14.674  0.0270 -0.0827 -0.0596
28791W        W43922   7.972   7.146   2.866 -0.1349 -0.0182 -0.0751
28792W        W43923  17.025   9.071  13.521 -0.0916 -0.1759  0.0111
28793W        W43924   5.578   2.031   2.618 -0.1739  0.0749 -0.0447
28794W        W43925  13.469  17.853   0.416 -0.1855  0.0601  0.2559
28795W        W43926  16.785  15.487  11.138  0.0487 -0.1953 -0.1873
28796W        W43927   3.995  17.801  15.537 -0.1429  0.0708  0.1518
28797W        W43928   5.860  12.851  11.572 -0.0622  0.3191  0.0594
28798W        W43929   3.958   1.314   1.523 -0.0811 -0.1676  0.3213
28799W        W43930   8.001   9.741   0.998 -0.0009  0.0357 -0.1564
28800W        W43931  17.502   2.012  10.018 -0.0040  0.1290 -0.0132
28801W        W43932  13.895   0.321  15.363 -0.0200 -0.0355 -0.0251
28802W        W43933   8.462  14.541   1.294  0.1032 -0.0448 -0.2045
28803W        W43934  10.609   1.661  13.286  0.1827 -0.1032  0.3381
28804W        W43935   9.926   0.714  11.697 -0.1318 -0.0201 -0.2260
28805W        W43936   7.041   6.280  13.126 -0.1067 -0.0639 -0.2359
28806W        W43937  12.097  18.067   2.118  0.0277  0.0644  0.1758
28807W        W43938  16.024   1.712   2.617  0.2387  0.0197 -0.0418
28808W        W43939   1.783   9.595   2.345 -0.3268 -0.2008  0.0369
28809W        W43940   0.727  12.659   0.982 -0.0559 -0.3382 -0.2162
28810W        W43941   2.596  15.221   4.068 -0.3076 -0.2321  0.0262
28811W        W43942  14.586  13.090   3.271 -0.2610  0.0655  0.3601
28812W        W43943  13.164  13.245   0.565  0.1969 -0.1660 -0.0966
28813W        W43944  13.374   0.457   1.126 -0.0989 -0.1549 -0.2824
28814W        W43945  14.050  16.244   1.266  0.2260 -0.3292 -0.2552
28815W        W43946  17.151  17.777   2.406  0.0379  0.0231 -0.1891
28816W        W43947  11.510   3.043   0.813 -0.0745  0.0441  0.0100
28817W        W43948   2.596   9.286  15.810  0.1208  0.0471 -0.0057
28818W        W43949   9.728   3.253  12.024  0.0490 -0.1204 -0.1008
28819W        W43950  13.324   9.862   2.561 -0.2350  0.0219  0.1826
28820W        W43951   1.715   3.389  14.994  0.0178 -0.1384  0.2662
28821W        W43952  13.478   0.587  15.489 -0.0132  0.0574 -0.2985
28822W        W43953  13.768  14.606  14.896 -0.1958  0.1821 -0.2340
28823W        W43954   6.659   5.556   4.560 -0.2701 -0.0076 -0.1302
28824W        W43955   7.511  10.650  12.252 -0.1272  0.1710 -0.0600
28825W        W43956  15.719   9.093  13.739 -0.1388  0.0328  0.0793
28826W        W43957   3.548  18.092  12.588  0.2468  0.0532 -0.0325
28827W        W43958   4.244   9.060   1.152 -0.1960 -0.1683 -0.0791
28828W        W43959   6.294  11.187   3.746  0.0971 -0.1261  0.3548
28829W        W43960  14.110  12.395   0.750  0.3017  0.0695 -0.0066
28830W        W43961  13.958  12.706   0.379 -0.1385  0.1151 -0.0889
28831W        W43962   1.993  12.408  12.572 -0.0705 -0.0879  0.0988
28832W        W43963  16.470  17.942   0.695 -0.2814  0.3010  0.1523
28833W        W43964  14.928   6.168   1.644 -0.0077 -0.0648 -0.2021
28834W        W43965  16.588   2.171   1.576 -0.0695  0.0876  0.0909
28835W        W43966  14.077   7.996  11.942 -0.1586  0.0425 -0.0390
28836W        W43967  17.227   4.936  13.520  0.0080  0.2344 -0.1071
28837W        W43968  11.124  13.100  15.240 -0.0210  0.1990  0.5596
28838W        W43969  12.261   5.358  12.796 -0.2843 -0.2708  0.0234
28839W        W43970  10.662   3.683  15.264 -0.0058 -0.1399 -0.1214
28840W        W43971   6.613   8.085  11.622 -0.0571 -0.1153 -0.0000
28841W        W43972  17.842   3.507   0.039  0.0600  0.2841  0.0434
28842W        W43973   0.068  11.382   6.390 -0.0035  0.2375 -0.0268
28843W        W43974   4.666   7.621  13.826 -0.1662 -0.1566  0.1599
28844W        W43975   7.007   8.815  12.564  0.0201 -0.0896 -0.2042
28845W        W43976   3.745  10.775  11.125 -0.1258 -0.1882  0.0900
28846W        W43977   4.553  12.136  10.970  0.2600  0.2230  0.1069
28847W        W43978  16.018   5.618  13.044 -0.1869  0.0886 -0.0115
28848W        W43979  17.768  11.844  12.902  0.1316  0.2661 -0.0560
28849W        W43980   5.381  11.407   2.621  0.0503 -0.1294  0.1605
28850W        W43981   2.011  13.944   0.562 -0.0940 -0.1710  0.2646
28851W        W43982   7.460  12.297   0.352 -0.0041  0.2767 -0.1615
28852W        W43983  10.612   7.805   5.958 -0.1964  0.1159  0.0642
28853W        W43984  10.562  16.302  11.275 -0.2199  0.1525  0.3718
28854W        W43985   8.196   6.647   0.753 -0.0073 -0.0330 -0.3852
28855W        W43986   4.459   9.914   2.589 -0.4441  0.2056 -0.1596
28856W        W43987  11.164   6.628   6.006  0.0477  0.0645  0.1778
28857W        W43988  11.528  15.945   3.516  0.1947  0.0950  0.0833
28858W        W43989  13.576  14.525  13.854  0.0372 -0.1156 -0.3324
28859W        W43990  11.447   8.402  11.038 -0.1163  0.4152  0.2131
28860W        W43991   5.682   4.581  14.585 -0.0857  0.1413  0.0226
28861W        W43992  16.272  13.300   2.965  0.0882  0.4090 -0.2950
28862W        W43993   5.776  14.253  16.182 -0.4168 -0.0982  0.2043
28863W        W43994  11.102  15.765  10.940  0.1507 -0.0259 -0.1608
28864W        W43995   9.312  17.889   0.598 -0.0741 -0.1910  0.2842
28865W        W43996  17.254  10.142   2.366 -0.5219  0.1158  0.3151
28866W        W43997  18.010  17.709  14.343 -0.2320 -0.0796  0.0803
28867W        W43998   8.872   1.034   1.954 -0.0544 -0.3290  0.0061
28868W        W43999  16.109  15.524   0.340 -0.1276 -0.2080 -0.2782
28869W        W44000   5.704  10.316  12.022  0.2727  0.1503 -0.2229
28870W        W44001   6.003   5.591  11.495  0.2052  0.1003 -0.2120
28871W        W44002   8.336  15.419  15.180 -0.1144  0.1968 -0.1975
28872W        W44003   9.921  10.454  11.772  0.0504 -0.0597 -0.3589
28873W        W44004   5.451   0.535  12.103  0.0769 -0.3163 -0.0376
28874W        W44005   0.887   9.543   3.139  0.1096 -0.1650 -0.0506
28875W        W44006   3.175  17.114   3.416 -0.0372 -0.1252  0.0814
28876W        W44007   9.739   1.412   4.432 -0.3616 -0.0832  0.0779
28877W        W44008   6.682   4.346  14.833 -0.0062 -0.1249  0.0151
28878W        W44009   5.226   1.786  14.653  0.1352  0.2762 -0.1671
28879W        W44010   9.750   6.199  14.755  0.1017 -0.1090 -0.0417
28880W        W44011   1.483   7.575   3.797 -0.2250  0.1856  0.0673
28881W        W44012   3.208  14.400   5.174  0.0836 -0.2135 -0.0007
28882W        W44013   5.441  18.078   2.525  0.0125  0.1311 -0.1581
28883W        W44014   8.002   3.187  11.735  0.1708  0.0685  0.0658
28884W        W44015  17.491   6.031  15.804 -0.2253 -0.1699  0.1579
28885W        W44016  14.583  13.920   0.278 -0.2390 -0.1304  0.1416
28886W        W44017   3.962   3.490  14.247 -0.1502  0.1669  0.2419
28887W        W44018   8.068  11.247  13.627 -0.0712  0.1363 -0.0703
28888W        W44019   7.781   2.835  14.446 -0.0882 -0.1158  0.0023
28889W        W44020  10.240  17.845  12.360 -0.0265  0.0627 -0.0868
28890W        W44021  17.450   3.020  15.527  0.1068 -0.2107 -0.0608
28891W        W44022   0.170   5.237   1.519  0.0333  0.1063  0.0004
28892W        W44023   2.806  11.130   2.081 -0.0658 -0.0905  0.2071
28893W        W44024  13.153   9.948  16.183 -0.2973 -0.2780  0.0622
28894W        W44025   8.447   8.399   4.006 -0.1290  0.1752 -0.5247
28895W        W44026   3.022  14.550   2.845  0.3614 -0.0402 -0.2402
28896W        W44027  16.310  14.331  13.118 -0.3841  0.0806 -0.0254
28897W        W44028   9.838  10.587  12.795  0.0003 -0.0494  0.1256
28898W        W44029   6.565  13.285   2.062 -0.1784  0.1706 -0.0857
28899W        W44030   1.307   8.603  11.442  0.2432  0.1603  0.0994
28900W        W44031  13.669  16.870   1.155 -0.2934  0.0679 -0.0767
28901W        W44032   2.077  10.627  15.837  0.2213 -0.4009 -0.0815
28902W        W44033  17.747   5.092  12.303 -0.2359  0.0119  0.4075
28903W        W44034   7.534  12.476   4.411 -0.1009 -0.0399 -0.1514
28904W        W44035   7.338  12.664  15.789  0.0640  0.2064  0.0213
28905W        W44036   3.723  17.374   4.186 -0.1312  0.0805  0.4241
28906W        W44037   8.094   9.315   3.128 -0.2228  0.0911 -0.0195
28907W        W44038   2.228  18.059   4.148  0.0591  0.4705  0.3673
28908W        W44039   4.017   6.016   5.032  0.2735  0.0894  0.0853
28909W        W44040  12.260   2.991  14.870  0.2123  0.2680 -0.2547
28910W        W44041  15.639   5.248  12.912  0.0451  0.1740 -0.0243
28911W        W44042   8.264   3.592   0.555  0.1801  0.1794 -0.2524
28912W        W44043   8.051   5.909   5.314 -0.1854 -0.0483  0.0644
28913W        W44044  17.681   4.028   0.088  0.2526 -0.0695  0.0621
28914W        W44045   1.867  17.996  12.131 -0.2550 -0.0298 -0.1285
28915W        W44046   8.577  13.461   3.080  0.3005 -0.1369  0.0089
28916W        W44047   6.558   7.121   0.067 -0.3447 -0.4018  0.1341
28917W        W44048  10.726   4.704   6.028  0.1427 -0.1928 -0.0329
28918W        W44049  17.005  11.189  13.492 -0.0690  0.0704 -0.1120
28919W        W44050  13.847  13.669   0.065  0.0755 -0.0006  0.0133
28920W        W44051   8.988  14.347   3.062  0.2277  0.0203  0.0374
28921W        W44052   7.497  11.333   0.311  0.0043 -0.0053 -0.2093
28922W        W44053  10.453  16.557   2.340  0.2015  0.0589 -0.0256
28923W        W44054  17.909  10.291  11.727  0.0576 -0.4546 -0.1326
28924W        W44055  12.737   3.953  16.050  0.0667  0.1171 -0.0556
28925W        W44056   3.560  13.670   0.751 -0.2235 -0.0355  0.3083
28926W        W44057   0.744   1.762  14.397 -0.2030  0.3680  0.2131
28927W        W44058  15.317  16.124   1.817  0.3095 -0.0609 -0.0129
28928W        W44059   7.338  12.412   4.894  0.1479  0.1490 -0.3498
28929W        W44060  11.051   1.027  11.452  0.2209  0.1159  0.0464
28930W        W44061  14.326  12.526   1.543 -0.0893  0.3222 -0.2250
28931W        W44062   6.534  15.385  13.152 -0.1399 -0.3690  0.1364
28932W        W44063   4.219  10.476  11.094  0.0771  0.0150 -0.2942
28933W        W44064   6.311   1.395   1.419  0.3435  0.1597  0.0243
28934W        W44065   5.699  11.965  11.047 -0.1484 -0.2049  0.2874
28935W        W44066  10.074  10.775   3.996  0.2108 -0.0265 -0.1332
28936W        W44067   8.102  15.460   0.146 -0.0106  0.0190  0.1507
28937W        W44068   4.022   4.714  13.613 -0.0573 -0.1804  0.2147
28938W        W44069  11.912  15.276  16.185 -0.2708 -0.1642  0.1815
28939W        W44070   5.840   0.055  11.402 -0.1710  0.0146  0.1606
28940W        W44071  16.039   7.435  14.476 -0.2322 -0.1171  0.5027
28941W        W44072  13.145  16.833   9.616 -0.0262 -0.0320 -0.0031
28942W        W44073  16.754  17.175  14.573 -0.2358  0.1735  0.0271
28943W        W44074  10.513  14.123   3.453  0.2092 -0.1660 -0.1428
28944W        W44075   7.702   6.803   0.605 -0.1209  0.3431  0.0750
28945W        W44076   4.096   4.634   1.773  0.0822 -0.0575  0.0329
28946W        W44077  15.747   6.244  14.865  0.3494 -0.0683  0.1127
28947W        W44078   4.503  14.328   5.478  0.2743  0.1278  0.3461
28948W        W44079  10.808  12.145  11.980  0.0031 -0.0560 -0.1854
28949W        W44080  10.723  12.592  13.368  0.2596 -0.1087 -0.0685
28950W        W44081   1.488  13.261   2.861 -0.0578 -0.0366  0.2891
28951W        W44082  11.489   0.731   4.973  0.1266 -0.0961  0.2562
28952W        W44083   7.679   3.758   3.056  0.0823  0.0236 -0.0457
28953W        W44084  16.886  16.864   4.556  0.0537  0.0079 -0.0875
28954W        W44085   4.911   7.682   1.504  0.2100 -0.2076 -0.0139
28955W        W44086  14.429  12.384  12.025 -0.0527  0.1004 -0.0795
28956W        W44087  15.395  17.680   0.640 -0.0681  0.2896  0.2553
28957W        W44088   9.712   5.853   2.129  0.0574  0.2514 -0.1013
28958W        W44089  14.637   0.759  11.370  0.0722 -0.2130  0.1118
28959W        W44090  13.592   6.423   3.997 -0.1914  0.0327  0.0955
28960W        W44091   1.621  14.929  14.414  0.1953  0.0068 -0.1375
28961W        W44092   5.628  13.337   1.041 -0.0645  0.4332 -0.0655
28962W        W44093   1.395   5.501   4.008  0.0001  0.4237  0.0405
28963W        W44094  13.902   4.829  15.332 -0.0409  0.4175  0.1030
28964W        W44095   2.001   4.099  11.586  0.0409 -0.1595 -0.0278
28965W        W44096   7.859  15.182   4.024  0.0376  0.1929 -0.2427
28966W        W44097   5.663   6.239   1.374  0.2024 -0.1047 -0.2768
28967W        W44098   5.708  12.796  15.518  0.0248 -0.0692  0.1353
28968W        W44099  14.936   4.708  13.210 -0.2073  0.1073 -0.0302
28969W        W44100   4.450  10.859   4.856 -0.1148  0.2946 -0.3363
28970W        W44101  13.765  12.038   3.156  0.0427  0.2652 -0.0932
28971W        W44102   7.953   1.562   5.393 -0.1903 -0.1940  0.3391
28972W        W44103   6.407  15.294   5.009  0.2379 -0.1309 -0.1345
28973W        W44104   7.796  12.897  10.129  0.1573  0.0464  0.1362
28974W        W44105   3.750  15.745   4.117 -0.2698 -0.1030 -0.0068
28975W        W44106   5.266  14.125  14.506 -0.0195 -0.0159  0.0905
28976W        W44107   7.178  14.697  12.445  0.1117  0.0315 -0.0421
28977W        W44108  16.345   1.768  14.504  0.2215 -0.0539  0.0178
28978W        W44109  18.090   9.128  14.249  0.3249  0.0974 -0.1633
28979W        W44110   7.657   5.496  11.009  0.1380  0.2106 -0.1159
28980W        W44111   0.771   6.465   5.244  0.0787 -0.3765 -0.1965
28981W        W44112  12.923   2.377  11.388 -0.0671 -0.0040 -0.0882
28982W        W44113   7.437  17.598  12.866  0.0691 -0.0344 -0.0296
28983W        W44114  15.787  10.828   1.970 -0.0653 -0.1345  0.1568
28984W        W44115   0.954  12.585   4.208 -0.0209  0.1548  0.0813
28985W        W44116  12.991   6.179   1.032 -0.0267 -0.1771  0.1228
28986W        W44117  11.644   3.768   5.389  0.1872 -0.0970  0.0957
28987W        W44118   3.470   4.937   2.891 -0.0714 -0.1114 -0.2552
28988W        W44119  14.373  12.255  13.445 -0.0448 -0.0080  0.2532
28989W        W44120  13.072  17.069   2.850  0.3899  0.0414  0.0696
28990W        W44121   1.601  14.504  16.044  0.0955 -0.0985  0.1806
28991W        W44122  13.740   7.325  13.443  0.1450  0.0323  0.1037
28992W        W44123  17.410  15.704   5.155 -0.0172 -0.0838 -0.0628
28993W        W44124   1.268   9.858   4.508  0.0205 -0.0380  0.2170
28994W        W44125   3.301  10.278  13.597  0.1542 -0.2855 -0.2250
28995W        W44126  11.081   3.232   1.891 -0.2920 -0.2159 -0.1307
28996W        W44127  12.427   3.525   0.648  0.1842  0.2301 -0.0840
28997W        W44128   6.251  16.899   1.659  0.1202 -0.0836  0.0253
28998W        W44129  16.419  14.115   3.297  0.0755  0.0205  0.1195
28999W        W44130   3.913  17.678   2.182  0.0752 -0.1157 -0.0641
29000W        W44131   1.426   3.569   4.386 -0.2872  0.0520 -0.4202
29001W        W44132   6.476  16.816   2.121  0.0339 -0.1340 -0.0392
29002W        W44133  11.654  15.806   1.029  0.1826 -0.0788 -0.0262
29003W        W44134   9.513  13.298  12.613  0.0902  0.0268  0.0360
29004W        W44135  17.435   5.704  13.998 -0.0397  0.2116 -0.0149
29005W        W44136  13.515  15.826   0.670 -0.0728 -0.0265 -0.0535
29006W        W44137   8.238   1.129   4.004 -0.4470  0.0860 -0.1696
29007W        W44138  10.649  15.541  10.882 -0.0682  0.0612 -0.0623
29008W        W44139   8.308  15.902   1.959  0.0725  0.2637  0.0651
29009W        W44140  12.152  10.602  13.610  0.2344 -0.0808  0.1124
29010W        W44141   5.746   8.694  11.781 -0.0815 -0.1257 -0.1255
29011W        W44142  14.695   8.813  13.087 -0.1091  0.0545  0.1236
29012W        W44143  11.382   2.824  13.243  0.1008 -0.0457  0.0539
29013W        W44144   4.965   5.820   4.608  0.0917 -0.2774  0.2584
29014W        W44145  11.935  14.771   4.123 -0.1301 -0.0705 -0.0933
29015W        W44146   1.075   7.447  14.749  0.0196  0.1507 -0.0601
29016W        W44147  16.882   8.370   4.823 -0.2637  0.0648 -0.0561
29017W        W44148  14.075  11.680   2.882  0.1699 -0.2290  0.1149
29018W        W44149   1.496   2.491   1.217  0.0256 -0.0498 -0.1873
29019W        W44150   7.286  13.754   4.632 -0.0379  0.3224  0.1556
29020W        W44151   9.260  11.291  14.917  0.2328  0.1495 -0.2367
29021W        W44152  12.377  17.277  14.413 -0.0809  0.0403  0.3129
29022W        W44153   1.739  12.049  15.624 -0.1168  0.1446  0.0849
29023W        W44154   8.703  10.153  11.647 -0.0905  0.0346  0.0659
29024W        W44155   2.123   1.887  10.705 -0.0540 -0.3727  0.1592
29025W        W44156  11.683   4.557  15.529 -0.0360  0.2567  0.3733
29026W        W44157  11.989  15.235  11.115  0.1208 -0.0431  0.0946
29027W        W44158   5.893   2.195  14.922 -0.0690  0.2639  0.2225
29028W        W44159   9.112   6.087  16.142  0.2772 -0.2536  0.0169
29029W        W44160   2.712   2.281  14.945 -0.1884 -0.1492  0.1161
29030W        W44161  11.191  14.188   4.649  0.1267  0.0241 -0.1747
29031W        W44162  12.334   0.775   4.934  0.2987  0.1306  0.0230
29032W        W44163  15.972   6.297  10.277 -0.3105 -0.1304  0.2040
29033W        W44164   6.099   3.986  12.027 -0.0951 -0.0288 -0.2276
29034W        W44165  13.558   2.624  15.102 -0.0754 -0.1079 -0.0991
29035W        W44166   3.349  14.695   0.958 -0.0411  0.0419 -0.1275
29036W        W44167  17.365  11.258   2.773 -0.0006  0.1565 -0.0849
29037W        W44168  16.841   9.379   5.261 -0.0020 -0.0883  0.0365
29038W        W44169   3.465   1.624  13.849 -0.0357 -0.0514  0.1023
29039W        W44170   1.822   2.924   0.425 -0.1423 -0.3428 -0.1052
29040W        W44171   2.928  10.294   1.493  0.1133 -0.0476 -0.0890
29041W        W44172   5.556  15.559  11.238  0.0491 -0.1986 -0.2550
29042W        W44173  13.833   5.872   0.915 -0.0452  0.2189 -0.2804
29043W        W44174  16.086   9.946   0.325 -0.0706 -0.2338 -0.0001
29044W        W44175  12.893  14.389  11.748  0.1186 -0.2010  0.3827
29045W        W44176   9.715   1.049  11.987  0.0342  0.1433  0.1008
29046W        W44177  16.006  11.995   5.781  0.0025  0.2789  0.0291
29047W        W44178   4.086  12.953  14.402 -0.2290  0.0085 -0.0483
29048W        W44179  16.729  14.328  14.699 -0.0809  0.2700  0.0031
29049W        W44180  13.482   4.577  12.220 -0.0401  0.1702  0.0305
29050W        W44181   9.036   3.941  14.641 -0.2101  0.0625 -0.1227
29051W        W44182   9.877   0.144   4.470  0.0590 -0.1455 -0.1372
29052W        W44183  13.779   1.190  12.721  0.0291 -0.0165 -0.3068
29053W        W44184  11.368   3.099   1.387  0.0216 -0.0255 -0.1680
29054W        W44185  13.309   8.552  14.276 -0.1948 -0.1921 -0.1907
29055W        W44186   6.665   6.247   2.907  0.1372  0.0350 -0.0423
29056W        W44187   2.688   3.855  14.283 -0.1353  0.1589  0.1512
29057W        W44188  15.187  11.504  11.569  0.0240 -0.1497 -0.0591
29058W        W44189  10.828  12.756   4.088  0.1795 -0.0510  0.0765
29059W        W44190   2.210   3.757   3.371 -0.1314 -0.2651 -0.2004
29060W        W44191   5.551  11.180  11.266  0.1005 -0.1201  0.0011
29061W        W44192   0.977   2.844  16.243  0.1485  0.0611  0.0330
29062W        W44193   5.350  11.502   4.815  0.1328  0.0706  0.1884
29063W        W44194   1.786   1.576  15.744 -0.0258  0.1895 -0.2922
29064W        W44195  15.736  15.748  12.276 -0.0881 -0.2715 -0.1767
29065W        W44196   3.805   1.720   4.378 -0.1794  0.1662 -0.0451
29066W        W44197  17.819   3.186  11.918 -0.3039 -0.0183  0.1500
29067W        W44198   1.733  15.182  12.751 -0.0372 -0.0680  0.1498
29068W        W44199   9.497   4.832  13.618  0.1679  0.1414 -0.2083
29069W        W44200  10.639  11.753  11.761  0.2376  0.0494  0.1914
29070W        W44201   6.119   6.634   5.110 -0.1470  0.0178 -0.1826
29071W        W44202  13.184  12.702  14.182 -0.1011 -0.1884  0.1202
29072W        W44203   9.471   0.277   1.308  0.2362  0.1223  0.3436
29073W        W44204  15.149   8.679  11.344 -0.2704  0.2357 -0.3166
29074W        W44205   7.773  16.867  16.114 -0.1315 -0.1468 -0.2400
29075W        W44206   5.349   8.106  12.183  0.1337 -0.0675 -0.0091
29076W        W44207  12.578   4.342  13.676  0.1271 -0.1479  0.0813
29077W        W44208  10.059   0.897   0.018 -0.1701 -0.2290  0.1858
29078W        W44209   4.183   0.500   4.762 -0.0044  0.1738  0.0919
29079W        W44210   0.231  13.254  11.375 -0.2104 -0.1288  0.0930
29080W        W44211  15.629   4.297  12.558 -0.0337  0.0071  0.2067
29081W        W44212  16.734   3.906  11.791  0.1461 -0.1997 -0.1724
29082W        W44213  15.623   1.519   4.453 -0.0771 -0.1285 -0.0572
29083W        W44214  13.690  14.603  12.055  0.0129 -0.0527 -0.1171
29084W        W44215  10.066  14.666   2.958 -0.1048 -0.0087 -0.0418
29085W        W44216  12.048   0.286   0.392  0.0716 -0.0278 -0.1753
29086W        W44217   0.499   5.688   3.567 -0.1924  0.1822 -0.1684
29087W        W44218   2.021  17.277  10.212 -0.3723 -0.1213  0.1043
29088W        W44219  15.373   3.020  12.825  0.0200  0.0366  0.1981
29089W        W44220   5.361  16.288   1.923 -0.3523 -0.2393 -0.0284
29090W        W44221   2.159  17.223  13.742 -0.1020  0.0417  0.0968
29091W        W44222  17.062  11.916  12.345 -0.1870  0.0602  0.4045
29092W        W44223   6.342   6.872   0.436 -0.1472  0.2136  0.3284
29093W        W44224   9.214   1.941   0.090  0.1071 -0.0263 -0.4061
29094W        W44225  11.032   2.283  15.199 -0.0411  0.0078  0.0067
29095W        W44226  13.286   1.276  12.533  0.0221 -0.2607 -0.2813
29096W        W44227   3.710  15.111  14.407  0.0899 -0.0105 -0.0183
29097W        W44228  13.991   0.705  12.984 -0.2086  0.1558  0.1519
29098W        W44229   8.485  15.318  13.387 -0.0736  0.1039  0.0375
29099W        W44230   1.638  12.867  13.971 -0.0793  0.0971 -0.3001
29100W        W44231  11.398  16.318   3.873  0.0795 -0.0399  0.3288
29101W        W44232   8.116   2.773  11.398 -0.1215 -0.0004  0.2267
29102W        W44233   6.485  12.435   4.224 -0.0521 -0.0382 -0.2619
29103W        W44234  11.465  13.161  14.867  0.1146  0.2710 -0.0064
29104W        W44235   8.771   5.983   3.512  0.0487 -0.0413  0.0506
29105W        W44236   3.841  15.868   4.607  0.0788  0.0394 -0.1935
29106W        W44237   8.508  17.980  14.952 -0.4657  0.0462 -0.2675
29107W        W44238   6.674   3.425   4.003  0.2496 -0.2509 -0.2378
29108W        W44239  14.784   1.860   1.252 -0.2208  0.1974  0.1973
29109W        W44240   8.939  14.367   2.532  0.1074 -0.1428 -0.0452
29110W        W44241   8.555  15.684  11.288 -0.0279  0.1921 -0.2875
29111W        W44242   8.116   9.161   2.571  0.1592  0.1107  0.1022
29112W        W44243  15.791   9.464  12.297 -0.0979  0.0080 -0.0354
29113W        W44244   6.524   8.617   0.964  0.0486  0.0545 -0.0280
29114W        W44245  14.715   1.786   5.359 -0.3204 -0.1848  0.0367
29115W        W44246   5.791   3.655  11.037 -0.0702 -0.0718 -0.1611
29116W        W44247   5.029   5.628   1.102 -0.0949  0.1872 -0.1582
29117W        W44248  16.370  12.574   4.696  0.2908 -0.2103 -0.4627
29118W        W44249  11.419  11.540  12.769 -0.3027 -0.1865 -0.1804
29119W        W44250   5.751  11.509  12.882  0.0769 -0.2066  0.0392
29120W        W44251  13.227   3.218  15.833 -0.1583  0.0110 -0.0076
29121W        W44252   4.479   5.914  11.797  0.0572  0.1381 -0.1749
29122W        W44253  15.166   3.220   0.636 -0.0772 -0.1140  0.0354
29123W        W44254   0.537  17.089  11.867 -0.3667 -0.2377 -0.1882
29124W        W44255   6.523   7.584  13.748  0.0760 -0.1945 -0.0289
29125W        W44256   0.669   7.556   0.146  0.0258  0.1117  0.2068
29126W        W44257   1.422   4.194  15.151 -0.1007 -0.2662 -0.0057
29127W        W44258  11.562   6.029  13.527 -0.1368 -0.1064  0.0910
29128W        W44259  10.358   0.470   3.299 -0.0594 -0.0736  0.1119
29129W        W44260   6.024  10.040  10.706  0.1559 -0.0971  0.1136
29130W        W44261  11.539  16.867   1.990  0.3334 -0.2677  0.1813
29131W        W44262  10.408   3.836   2.956  0.0888 -0.3112  0.2826
29132W        W44263   8.198  14.678   2.774 -0.0240 -0.0325 -0.2937
29133W        W44264   5.500   9.622  13.070 -0.2240 -0.0853 -0.1476
29134W        W44265  17.424   0.464  15.241 -0.0150 -0.1458 -0.2192
29135W        W44266  15.121   0.466   1.716 -0.1339  0.2168  0.0192
29136W        W44267   0.008  13.811  15.029  0.1590 -0.0369  0.0747
29137W        W44268   8.075   8.710   5.554 -0.2390 -0.1420 -0.0543
29138W        W44269   5.167  14.804  15.624  0.1518 -0.3517  0.2501
29139W        W44270   2.128  10.369   1.954  0.2296  0.1301  0.3833
29140W        W44271   8.491  17.580   5.484 -0.1626  0.0564  0.0311
29141W        W44272  17.282   8.321   3.340  0.0764  0.4118  0.0009
29142W        W44273   7.106  12.619  11.473 -0.0025  0.3590  0.0793
29143W        W44274  14.352   3.793  11.865  0.0353 -0.2647  0.1484
29144W        W44275   5.252   3.438  12.488 -0.1397  0.2438 -0.0192
29145W        W44276   4.610   9.158   0.827  0.0608 -0.1946 -0.0275
29146W        W44277   4.702  17.253  13.578  0.1801 -0.1986 -0.2703
29147W        W44278   2.872  12.315   0.348  0.2815 -0.0147  0.3577
29148W        W44279   7.753  13.841  13.361 -0.1065  0.2775 -0.0936
29149W        W44280   0.998   3.820   3.646 -0.1933  0.0385  0.0873
29150W        W44281  15.234   6.267  11.584 -0.1741 -0.1273 -0.0854
29151W        W44282   9.641  10.161  12.185  0.0470 -0.1094  0.0322
29152W        W44283   7.977   1.485   4.247  0.2318  0.1995  0.0368
29153W        W44284   2.503  17.819   0.603  0.1088 -0.2633 -0.1884
29154W        W44285  15.798   5.778  15.509 -0.0095 -0.0965  0.1168
29155W        W44286   5.707  17.983   3.850  0.0840  0.0705  0.1282
29156W        W44287  17.268   6.658  11.565  0.1721  0.0544 -0.0180
29157W        W44288   3.816  16.843  11.763 -0.2360 -0.1288  0.0213
29158W        W44289   8.253  15.479   3.243 -0.1450  0.2582  0.1069
29159W        W44290  13.993   6.079  15.384  0.2411 -0.1645 -0.0941
29160W        W44291  17.210  15.686  15.860  0.2083 -0.1745 -0.1670
29161W        W44292  15.293  11.753   2.555  0.1488  0.2633 -0.0558
29162W        W44293  16.676   4.794   4.769  0.1394 -0.0823 -0.0342
29163W        W44294   1.989   8.099  11.888 -0.0102 -0.0829  0.1137
29164W        W44295   4.096   3.927  14.456 -0.1966  0.0348 -0.4675
29165W        W44296  15.166   6.552  11.147 -0.0918  0.1837  0.1375
29166W        W44297   5.693   3.520  14.766 -0.0417  0.0373 -0.1288
29167W        W44298   9.907   6.183   4.907 -0.1496 -0.1452 -0.1583
29168W        W44299  17.916  13.117  13.761  0.0467 -0.1520 -0.0163
29169W        W44300  17.025   5.296   4.345  0.0488 -0.1529  0.2958
29170W        W44301   2.038   2.550  13.344  0.1381  0.1480 -0.1377
29171W        W44302   4.429   7.978  11.886  0.1893  0.0878  0.0895
29172W        W44303   0.087   6.330   4.409  0.3068  0.1695  0.2226
29173W        W44304  11.634  15.295  11.502 -0.0028  0.1041 -0.0945
29174W        W44305   5.728   4.053   3.677  0.1816 -0.1464  0.1433
29175W        W44306   5.020   9.499  13.006  0.0645  0.2136  0.0148
29176W        W44307  16.577   5.398  11.196 -0.1857 -0.0970 -0.0704
29177W        W44308   2.053   2.734   3.168  0.0132  0.3097  0.1999
29178W        W44309   8.806   1.502  14.785  0.1326 -0.1228  0.1988
29179W        W44310  10.079  12.300  16.196  0.0584 -0.0449  0.0218
29180W        W44311   4.855   0.941   1.840 -0.1516  0.0483  0.2316
29181W        W44312   5.707   5.946  12.497  0.0041 -0.0756  0.1242
29182W        W44313   1.164  15.407  13.840  0.2967  0.1629 -0.1727
29183W        W44314  16.516   1.997  10.368 -0.3515  0.0759 -0.1625
29184W        W44315  10.697  10.106  15.468 -0.1519  0.2660 -0.3151
29185W        W44316  11.450  12.167   1.019  0.0094  0.0967 -0.1067
29186W        W44317   8.252  15.506   4.062 -0.3490  0.0557 -0.2782
29187W        W44318   7.534  16.223   4.295  0.3286  0.0610 -0.1358
29188W        W44319   0.793   8.659  12.329 -0.0324 -0.1229 -0.0858
29189W        W44320  18.029  10.059  12.161  0.2982  0.0815 -0.1071
29190W        W44321   6.090   6.851   1.854  0.2193 -0.1052 -0.2424
29191W        W44322   4.566  16.470  13.890 -0.2325  0.4663 -0.1923
29192W        W44323   3.367   1.026  13.814  0.1548  0.2406  0.2252
29193W        W44324   5.992   4.836  14.285  0.3368  0.0625  0.2821
29194W        W44325   8.455  15.096   2.355 -0.0667 -0.1011 -0.0855
29195W        W44326  16.950   0.446   3.388 -0.1965  0.0368  0.1758
29196W        W44327  14.715   2.395  13.044  0.1264 -0.0195 -0.4766
29197W        W44328   6.470  11.744  11.286 -0.2709  0.2105  0.1809
29198W        W44329   8.542   7.478   1.686  0.0327 -0.0680  0.2366
29199W        W44330   2.865  15.718  16.045  0.2151  0.0351  0.0747
29200W        W44331  14.480  12.758  12.591  0.1277 -0.2397  0.4603
29201W        W44332  13.413  11.423   5.023 -0.0444 -0.1065 -0.0486
29202W        W44333   3.426   8.582  11.528 -0.0796  0.2143 -0.3388
29203W        W44334   2.823   9.503   0.370 -0.1742  0.0980 -0.2609
29204W        W44335  13.803   0.892   1.690 -0.1378 -0.2299 -0.2664
29205W        W44336   8.566   3.385  15.481 -0.1303  0.0006  0.1139
29206W        W44337   2.680   2.695  12.733 -0.1561  0.2483 -0.0905
29207W        W44338   0.412   8.292   0.681  0.0789 -0.1315 -0.0803
29208W        W44339  15.011   5.088   1.083  0.0381  0.1022 -0.0552
29209W        W44340   2.999  10.688   1.109 -0.2134  0.1701 -0.0355
29210W        W44341   5.194   8.013   1.281  0.1780 -0.1194  0.2677
29211W        W44342  10.504  13.974   2.855 -0.3439  0.2062  0.1283
29212W        W44343   7.780  11.709  13.349 -0.1748  0.2510  0.2258
29213W        W44344  15.340  16.420   4.492 -0.2117  0.1378  0.0975
29214W        W44345   0.845   3.512  14.611  0.0928  0.0352  0.0268
29215W        W44346   6.799   3.860   0.582  0.1065  0.2106  0.0723
29216W        W44347   4.724   2.149   1.606 -0.1029 -0.0804  0.0720
29217W        W44348   3.412   6.341  15.850  0.0546 -0.3060 -0.3022
29218W        W44349   6.304   3.787   0.281  0.0365 -0.1205 -0.2035
29219W        W44350  10.045   7.134   2.254 -0.3216 -0.1820 -0.4338
29220W        W44351   5.957  10.361   2.588 -0.2248  0.2676  0.2615
29221W        W44352   3.628   4.703   3.440  0.0080 -0.0309  0.2004
29222W        W44353   5.944  12.055  14.508 -0.0101 -0.0723 -0.2222
29223W        W44354  10.208  11.996  14.025 -0.4284 -0.1506 -0.0757
29224W        W44355   4.070   7.925   3.859  0.0710  0.3853  0.1090
29225W        W44356  13.173  16.905   4.974 -0.0874 -0.2553  0.0826
29226W        W44357   6.141   9.615   4.642  0.0538  0.1186 -0.0920
29227W        W44358   7.606  11.858  15.289  0.1483  0.2034 -0.1515
29228W        W44359  15.621   5.108   4.637  0.1207  0.0557  0.1846
29229W        W44360   4.464   6.066   5.838  0.0510  0.1007  0.2175
29230W        W44361  15.489  11.077  11.845  0.1813 -0.0527  0.1318
29231W        W44362  10.856   2.416  14.237  0.1498 -0.1259  0.0212
29232W        W44363   4.318  15.016  11.383  0.0584 -0.0872  0.0939
29233W        W44364  12.253  17.105   0.834 -0.1899 -0.0095 -0.1252
29234W        W44365   9.848  12.506  13.125 -0.0046 -0.1675 -0.1406
29235W        W44366   1.226   0.901   0.691 -0.0506 -0.0131 -0.0568
29236W        W44367   0.965  10.024   3.548 -0.0608 -0.2195  0.0441
29237W        W44368  15.879   4.389   2.941 -0.0209 -0.2887  0.1993
29238W        W44369   3.829  12.974  12.600 -0.0726  0.2771  0.0766
29239W        W44370  17.492   5.363   4.346  0.5006  0.2473 -0.0539
29240W        W44371  15.619   7.371   1.936 -0.1835 -0.0121 -0.2839
29241W        W44372   5.393  11.810  13.038 -0.2559  0.0945 -0.2082
29242W        W44373  16.754  13.438   0.976 -0.0670 -0.3133  0.0284
29243W        W44374   6.639   9.863   0.507  0.0704  0.0793 -0.2477
29244W        W44375   4.571   5.090   5.962 -0.1561 -0.1239  0.2363
29245W        W44376   2.216   6.143   1.163 -0.2043  0.0692  0.1384
29246W        W44377   6.095   0.719   2.408  0.0034 -0.1008  0.0300
29247W        W44378  15.147  16.658   2.150  0.0197 -0.0505 -0.0711
29248W        W44379   1.450   9.077  12.744  0.0617 -0.0438 -0.1642
29249W        W44380  13.110   8.471  13.247 -0.2008 -0.0552  0.1077
29250W        W44381   8.917  13.487  11.514 -0.1275 -0.1937 -0.1455
29251W        W44382  10.488   1.354   3.720  0.3421 -0.0110 -0.0285
29252W        W44383  15.405  10.360   1.136  0.1637 -0.1425 -0.0266
29253W        W44384   8.854  17.056   0.090 -0.1408  0.1815 -0.0147
29254W        W44385  14.172  16.458  12.679 -0.2602 -0.1602 -0.2388
29255W        W44386   3.390   8.551  12.484  0.0638 -0.1445  0.5352
29256W        W44387   6.906   4.678  11.209  0.1602 -0.3516 -0.2468
29257W        W44388   6.529   3.855  11.867 -0.0501 -0.1267 -0.0384
29258W        W44389  11.416  17.560  13.664  0.0485  0.1330 -0.0453
29259W        W44390  13.724   7.777  13.024 -0.0266  0.1237  0.0409
29260W        W44391  11.794  12.236  11.902 -0.4919  0.1861 -0.1900
29261W        W44392   7.416   7.696   5.035 -0.3188 -0.4931  0.1588
29262W        W44393   0.013   2.286  11.885 -0.1601 -0.0768 -0.0716
29263W        W44394   7.082   2.143  15.578  0.3961  0.0770  0.3001
29264W        W44395   7.124   3.006   1.967 -0.0358  0.2199  0.2100
29265W        W44396  16.825   6.467  15.111  0.0442 -0.0762  0.0838
29266W        W44397   2.176  11.002  12.944 -0.0296  0.0892  0.0758
29267W        W44398   0.769  15.478  15.870 -0.0663  0.3351  0.1527
29268W        W44399   4.259   8.111   1.381  0.0411 -0.2098  0.1709
29269W        W44400   4.104  11.767   0.777 -0.0037  0.2230 -0.1059
29270W        W44401  12.773  16.121   0.958 -0.0601 -0.1100 -0.0323
29271W        W44402  15.022  11.935   1.225  0.2360  0.2224 -0.0031
29272W        W44403   5.945  15.567   0.579  0.3110 -0.0457 -0.1318
29273W        W44404  16.588   8.683   2.597  0.1928  0.3768 -0.0608
29274W        W44405  16.816   5.165   3.799 -0.1257  0.0872  0.2271
29275W        W44406  17.519  10.895   4.899  0.1353  0.2866  0.0724
29276W        W44407   9.782   3.446  12.781 -0.0461 -0.0280 -0.3942
29277W        W44408  11.748  16.768   1.049  0.0372  0.0147  0.1606
29278W        W44409  17.706   7.134  11.980 -0.2889  0.1806  0.1345
29279W        W44410  13.043   9.203  11.823 -0.0892  0.0704 -0.0224
29280W        W44411   8.608  17.545  11.408 -0.0894 -0.0934 -0.2834
29281W        W44412   1.229   4.130   0.571  0.0287 -0.1297  0.1022
29282W        W44413  14.376   3.620  13.920 -0.0733  0.0267 -0.0944
29283W        W44414  15.498  10.994  16.246 -0.0152 -0.0613  0.1716
29284W        W44415   9.205   4.744  11.265 -0.0690  0.1452 -0.4873
29285W        W44416   1.801  12.299   4.426 -0.2960  0.1112  0.3553
29286W        W44417   3.714  16.849   0.071 -0.1695 -0.2991 -0.2883
29287W        W44418   9.297  16.701   4.348  0.0328  0.0458 -0.2104
29288W        W44419  11.796   9.995  10.857 -0.1813 -0.1197  0.2569
29289W        W44420   3.566   2.033  12.532  0.3297 -0.1554 -0.0563
29290W        W44421   7.328  12.276   5.369 -0.1468 -0.2502  0.1892
29291W        W44422   5.316   7.720   2.549  0.1459 -0.2263  0.0273
29292W        W44423  14.569   9.931  15.630 -0.2548  0.1150 -0.0426
29293W        W44424  13.239  17.030  14.730  0.0594  0.2196 -0.0523
29294W        W44425   6.900   2.472  12.801  0.0834  0.0577 -0.2118
29295W        W44426  10.599   3.170   1.864  0.0123  0.1493 -0.1724
29296W        W44427   0.414  14.953   4.654  0.3328  0.2464 -0.1996
29297W        W44428   2.018   2.341   0.712 -0.1085 -0.1238  0.0179
29298W        W44429  10.292  13.614  12.107 -0.1902 -0.2790  0.0918
29299W        W44430   5.931  12.911   5.336 -0.2303 -0.0914  0.1223
29300W        W44431   7.413   7.559   0.252 -0.0477 -0.1469 -0.0463
29301W        W44432   3.482   6.170   4.066  0.0016  0.2330  0.0981
29302W        W44433  15.521  17.987  13.510  0.0836 -0.0807 -0.2649
29303W        W44434  13.256   1.650  12.890 -0.1476 -0.0073  0.1775
29304W        W44435   9.099   3.022  12.616 -0.3476 -0.1696 -0.3295
29305W        W44436   2.693  13.909   0.284 -0.0743  0.0551  0.1766
29306W        W44437   0.687  14.515   4.449 -0.1571  0.1466 -0.0821
29307W        W44438   3.019   5.061   2.418 -0.0068 -0.2373 -0.2338
29308W        W44439   8.510   7.940   3.907 -0.2913  0.3403 -0.2594
29309W        W44440   4.300   2.316  13.670  0.3362 -0.0691 -0.3953
29310W        W44441  16.140   0.496   4.583  0.3924 -0.3882  0.2015
29311W        W44442  16.217  11.597  15.290  0.1220  0.0924  0.2158
29312W        W44443  12.801   3.058   9.977  0.0900  0.2588  0.0536
29313W        W44444   8.376  14.492   5.612 -0.2411 -0.2756 -0.3369
29314W        W44445   5.753   6.631   2.901  0.0284 -0.2913  0.3340
29315W        W44446   9.467  17.619  13.160  0.1088 -0.1250 -0.2976
29316W        W44447   4.284  11.567   1.871  0.3113 -0.1210  0.1205
29317W        W44448  14.748  17.491   4.734  0.0116 -0.1853 -0.0889
29318W        W44449  12.388   1.079   3.585 -0.3214 -0.2440 -0.0455
29319W        W44450  12.087  17.583   2.131 -0.1905 -0.1879  0.0561
29320W        W44451  14.446   8.381  12.777  0.0693  0.1900 -0.1750
29321W        W44452   5.611  15.846   0.120 -0.0620  0.0721  0.0263
29322W        W44453   3.024   5.772  13.595 -0.0510 -0.0085 -0.2810
29323W        W44454   9.910  15.584   0.368 -0.0411  0.0284  0.1777
29324W        W44455   0.909  13.303  12.492  0.0756 -0.0048 -0.0297
29325W        W44456  17.894  12.147   5.445  0.0782  0.1442 -0.1837
29326W        W44457   1.158   9.092  15.261  0.0525  0.1319  0.0837
29327W        W44458  17.921  14.214   4.865  0.1548 -0.4032 -0.1282
29328W        W44459   9.581   8.466   5.017  0.0142 -0.1218  0.0906
29329W        W44460  10.556   7.837  13.769  0.0341  0.5095 -0.0590
29330W        W44461   7.101   9.965   0.345  0.2159  0.0232  0.0187
29331W        W44462  11.848  15.745   2.271  0.2510 -0.1606 -0.3193
29332W        W44463   9.383   6.685   0.868 -0.1339 -0.1476  0.2586
29333W        W44464   1.372  14.946  15.273 -0.0752  0.0360  0.0932
29334W        W44465   5.649  14.977  15.555  0.0002  0.0056 -0.0411
29335W        W44466   9.489   2.281   3.122  0.3565 -0.0965 -0.0927
29336W        W44467   6.026  13.626   1.158 -0.4382  0.1189  0.1141
29337W        W44468   4.905  11.134  14.958  0.2060  0.3133  0.2951
29338W        W44469  13.627   6.421  15.464 -0.0023  0.1595  0.0012
29339W        W44470   7.200  17.934  12.479 -0.0875  0.0198 -0.0046
29340W        W44471  12.370  10.785   1.987  0.0606 -0.1717  0.3479
29341W        W44472  17.024  12.611  15.830 -0.0533  0.0876  0.0232
29342W        W44473   8.258   1.466  14.992  0.0074 -0.0746 -0.0040
29343W        W44474   3.563  11.941   1.431 -0.1221  0.0090 -0.0861
29344W        W44475   1.746   1.976   5.151 -0.1237 -0.0752  0.3525
29345W        W44476  14.383  10.199   0.886  0.2322  0.0370  0.1975
29346W        W44477  15.318  14.371  15.049 -0.0657  0.2632 -0.1811
29347W        W44478  17.281   8.681  12.198 -0.0570 -0.1471  0.1900
29348W        W44479  16.157  10.486   0.120 -0.2523  0.0630  0.2319
29349W        W44480   0.529  13.754  15.138 -0.0093 -0.1758 -0.1362
29350W        W44481   4.405   7.685   4.730 -0.0273  0.1800  0.1745
29351W        W44482  12.169   6.104   0.608 -0.0727  0.1466  0.0290
29352W        W44483   6.174   1.710  16.191  0.0299 -0.1200  0.0371
29353W        W44484   5.882   4.592   3.900 -0.2425 -0.0787 -0.0431
29354W        W44485   5.940  17.379   0.848 -0.0589  0.0727  0.1766
29355W        W44486  11.573   1.787   4.768  0.0256 -0.0055 -0.2406
29356W        W44487  13.846  13.604   2.402 -0.0286 -0.2181  0.0034
29357W        W44488   2.151   5.148   0.534  0.0658  0.2694  0.4494
29358W        W44489  14.610  12.398   2.568 -0.1448 -0.0747  0.1410
29359W        W44490   8.122  12.182   4.811 -0.2282  0.2540 -0.0573
29360W        W44491   3.876   3.773   0.500  0.2955 -0.1504 -0.1374
29361W        W44492   9.290  14.505  14.348  0.1012 -0.1925 -0.0105
29362W        W44493   2.482   0.075   1.052 -0.1645  0.0448 -0.0438
29363W        W44494  16.715   2.814  16.194 -0.2515 -0.0429 -0.2477
29364W        W44495   5.491  15.837  14.920  0.2226 -0.2378 -0.0540
29365W        W44496  17.665  13.236   2.611  0.0609 -0.0373  0.1480
29366W        W44497   2.763   6.522   2.348  0.1497  0.2509 -0.0363
29367W        W44498   6.496  14.081   6.145  0.0290  0.0044 -0.1700
29368W        W44499  14.460  15.234  15.692  0.0337 -0.2636  0.2721
29369W        W44500   9.520  15.104  13.801 -0.2076 -0.0778 -0.0866
29370W        W44501  11.949  13.313  15.179  0.0818 -0.0000  0.0640
29371W        W44502   9.378   7.433   3.467 -0.2250  0.0460  0.1238
29372W        W44503   9.024   3.811   1.150  0.0152  0.1748  0.0213
29373W        W44504   9.125  11.246   3.971  0.0037  0.0776 -0.0615
29374W        W44505  15.614  11.225   0.681 -0.1697  0.0902 -0.0969
29375W        W44506   5.946  16.463  12.123  0.0984  0.0932 -0.0780
29376W        W44507   4.871  11.423   2.297  0.1517  0.0064 -0.1237
29377W        W44508  14.225  13.936  10.811  0.0506 -0.0291  0.1243
29378W        W44509   5.093   6.658   5.772  0.1785  0.1007 -0.0861
29379W        W44510  14.857   1.956  15.509  0.1579  0.0124  0.0152
29380W        W44511  13.083   7.757  15.477  0.3177 -0.3485  0.2222
29381W        W44512   9.854   6.376   2.731  0.4599 -0.2395 -0.0203
29382W        W44513  13.680  10.741   1.610  0.0129 -0.1214 -0.1955
29383W        W44514   4.407  15.727   3.372 -0.3941  0.1108 -0.0121
29384W        W44515   1.500  15.555   3.492 -0.1445 -0.3328 -0.2764
29385W        W44516   6.964  13.147  14.149  0.0543  0.4127  0.0050
29386W        W44517   3.364  14.188  14.126  0.0999  0.0063  0.2159
29387W        W44518   0.597  17.462   0.187  0.2449 -0.0385 -0.0193
29388W        W44519   1.203   6.212  15.625 -0.0715 -0.2086 -0.3707
29389W        W44520   4.566   1.174  13.589  0.0348  0.2348 -0.1798
29390W        W44521   0.821  10.085   3.037  0.0646 -0.1519 -0.1201
29391W        W44522   8.095   2.665   3.356  0.0654  0.4718 -0.0301
29392W        W44523  12.643  11.593  11.774  0.2070  0.0008  0.3831
29393W        W44524   3.381   0.078  13.981  0.2904 -0.0400  0.3203
29394W        W44525   3.053  11.821  14.461 -0.0959 -0.1054 -0.0550
29395W        W44526  10.185  13.895  11.596  0.1493  0.0589 -0.0241
29396W        W44527  11.252   6.299  12.016 -0.5777 -0.1370  0.0434
29397W        W44528  10.891  15.030   5.631  0.1940  0.0559  0.3159
29398W        W44529  13.142  15.575  13.133 -0.1723  0.1948  0.2003
29399W        W44530   4.295  17.321   0.477  0.1263  0.1786  0.0126
29400W        W44531   1.997   5.401  14.919  0.0175 -0.1532  0.1114
29401W        W44532   1.242   2.695  10.064  0.1331  0.0357  0.1235
29402W        W44533  15.818  13.394  13.046  0.0427 -0.0806  0.0985
29403W        W44534  16.691  14.642  14.025 -0.0983  0.2657  0.2814
29404W        W44535  14.935   8.240   4.902 -0.0343 -0.0199 -0.2330
29405W        W44536   9.164  10.771  16.199 -0.1775 -0.0642 -0.2021
29406W        W44537  12.454   4.136   2.180  0.0001 -0.0500 -0.2783
29407W        W44538  15.509   6.530  14.560  0.0176  0.0969  0.1032
29408W        W44539   2.761   0.874   4.899  0.0908 -0.2691  0.0803
29409W        W44540   9.815   5.844  16.134  0.2847 -0.2216 -0.0422
29410W        W44541  15.573   1.752   4.937  0.0529  0.0918 -0.0303
29411W        W44542  10.658  17.334  13.825  0.2173  0.1530 -0.2486
29412W        W44543   6.961   3.185  12.129  0.0500 -0.0323  0.1456
29413W        W44544  10.323  15.665   9.875 -0.0028 -0.1176 -0.1959
29414W        W44545  16.129  11.412  12.345  0.2169 -0.0762  0.0132
29415W        W44546   2.545   3.082   1.148  0.2787  0.0423 -0.0344
29416W        W44547   9.449  13.519   5.713  0.2831  0.0983 -0.2937
29417W        W44548   2.282   6.417   4.527  0.0445  0.0058  0.0955
29418W        W44549   8.698  15.493   0.961  0.2581 -0.0798 -0.0724
29419W        W44550  12.975   3.534  15.197  0.0941  0.0538 -0.3008
29420W        W44551  13.893  13.039  12.011  0.0021 -0.1758  0.2298
29421W        W44552   1.587   9.195  10.920  0.2078  0.2241  0.1153
29422W        W44553  16.852   2.360   2.348 -0.0493 -0.0742  0.2454
29423W        W44554   2.646   7.270   2.391 -0.0123 -0.2013 -0.0688
29424W        W44555   7.223   2.934   4.084  0.3272  0.0335  0.1744
29425W        W44556  13.482  16.612   0.514 -0.1097 -0.2419  0.2034
29426W        W44557  15.237  15.322  11.296  0.1405  0.0321  0.0816
29427W        W44558  16.109   3.661  12.794 -0.3286  0.0757 -0.2050
29428W        W44559   9.098  17.740  12.785 -0.0905  0.1458  0.0307
29429W        W44560   1.803   8.950  15.319 -0.0447 -0.2694  0.1220
29430W        W44561   4.403   1.302  10.335 -0.1148  0.0978  0.0622
29431W        W44562  11.185  11.243  10.984 -0.2358  0.3594  0.4668
29432W        W44563  11.038   2.336   2.287  0.0818  0.1157 -0.0599
29433W        W44564  15.364   1.850  15.535 -0.0594  0.3102  0.0483
29434W        W44565   9.767  11.867  14.428 -0.6370  0.1389 -0.0210
29435W        W44566  17.881  11.182   2.160 -0.3931 -0.0771 -0.2260
29436W        W44567  15.465  15.401  14.268 -0.0344  0.0215  0.2395
29437W        W44568   9.568  14.378  13.197 -0.0005  0.0757 -0.0971
29438W        W44569  11.785   3.228  15.688  0.2464 -0.1115 -0.0059
29439W        W44570   6.637   0.559   2.544 -0.1810  0.1009  0.1251
29440W        W44571  16.135  11.319   2.767 -0.0038 -0.0096  0.0692
29441W        W44572  11.230   9.075  14.608  0.1995 -0.2110  0.0238
29442W        W44573   2.978  16.038   1.855  0.0580  0.1501 -0.0750
29443W        W44574  10.816   2.661  13.227 -0.4644 -0.1315 -0.1124
29444W        W44575   2.874   2.247  16.138  0.1357 -0.1696 -0.0004
29445W        W44576  16.736   4.028   5.277 -0.1764  0.4564  0.0613
29446W        W44577   5.578  11.584  13.448 -0.1373  0.1598  0.0834
29447W        W44578   0.401   0.252  13.133 -0.1757  0.0057  0.0609
29448W        W44579  17.934   0.243  15.741  0.1529 -0.0874  0.0624
29449W        W44580  14.557  16.620   2.174  0.0323 -0.0761 -0.3795
29450W        W44581   1.470  14.923   0.463  0.1876  0.0510 -0.2686
29451W        W44582   6.293  14.388   1.847  0.2983  0.1652  0.2720
29452W        W44583  10.541  13.476  14.857  0.0758 -0.1143  0.0428
29453W        W44584  14.663  15.414  11.212  0.1395  0.2600  0.1704
29454W        W44585   6.396  12.391  15.647 -0.1261 -0.1281  0.1798
29455W        W44586  10.537  14.125  14.108  0.0341  0.1272  0.0823
29456W        W44587   0.628  16.001   5.245  0.1927  0.3719 -0.0293
29457W        W44588   1.612  15.845  14.519 -0.0889 -0.0047 -0.1099
29458W        W44589   0.827   6.856  16.176  0.0682  0.1605  0.0553
29459W        W44590   9.224   5.062   0.880  0.0331  0.1065  0.1217
29460W        W44591  13.957  10.866  13.812  0.1619 -0.0180 -0.0094
29461W        W44592   7.746   7.036   4.207 -0.2956 -0.2597  0.0562
29462W        W44593   8.725   2.695  15.089 -0.0879 -0.4292  0.0765
29463W        W44594  16.426   8.726  11.228 -0.4909  0.0126  0.0300
29464W        W44595  10.200   5.891  13.997  0.1902 -0.0636 -0.1711
29465W        W44596   1.262  14.072  11.678  0.1392 -0.0069 -0.0082
29466W        W44597   5.965   8.920  15.990  0.0817  0.1422 -0.0512
29467W        W44598  10.350   4.551  15.078  0.0443  0.0984  0.0742
29468W        W44599   8.230  10.045  12.518 -0.0004 -0.0346 -0.1319
29469W        W44600   7.334  12.298  16.116 -0.2238  0.0780  0.1186
29470W        W44601   4.127   7.559  13.930 -0.3006  0.0959  0.1185
29471W        W44602   5.307  12.296   3.240 -0.0868  0.0032 -0.0861
29472W        W44603   5.386   9.078  15.302  0.0850  0.0678 -0.1326
29473W        W44604   9.854   7.395   3.087  0.0295 -0.1760 -0.0792
29474W        W44605  13.747   9.179   1.481  0.0190 -0.1481 -0.0696
29475W        W44606  11.120   0.616   2.732  0.0235 -0.3906 -0.1450
29476W        W44607  15.936   0.678   3.681 -0.0326  0.0274 -0.3259
29477W        W44608   8.117   2.058   2.088  0.1608  0.2933 -0.0868
29478W        W44609   5.894   8.268  15.391 -0.0807 -0.0691  0.0584
29479W        W44610  12.227  12.371   5.159  0.1502  0.1708 -0.2086
29480W        W44611   5.294   5.609  14.593  0.1520 -0.0521 -0.1575
29481W        W44612   1.642  11.356   4.327  0.1197 -0.2245  0.1446
29482W        W44613   6.427   8.070  13.707  0.3929  0.2839  0.0808
29483W        W44614  15.202  13.271  11.552 -0.0846 -0.2340 -0.0878
29484W        W44615   0.242   1.088  14.972  0.0570  0.1639  0.2375
29485W        W44616   2.635  10.737   3.345  0.1446 -0.1060 -0.0139
29486W        W44617  15.991  18.048  10.950  0.0970  0.2105  0.3689
29487W        W44618  17.006  13.086   4.004  0.0398  0.1662  0.1869
29488W        W44619   1.965  12.224  10.739  0.1537 -0.0225 -0.0213
29489W        W44620  15.904  16.017  11.334  0.1493  0.0320 -0.1580
29490W        W44621  12.584   9.809   2.254  0.1765 -0.0198 -0.0331
29491W        W44622  10.042   5.467   1.321 -0.1575 -0.1545 -0.0964
29492W        W44623  10.484  16.916   5.538 -0.2394 -0.0149  0.3379
29493W        W44624  13.940   8.654   4.246 -0.1094 -0.2272  0.4236
29494W        W44625   1.820  15.414  16.073 -0.1473  0.2298 -0.0943
29495W        W44626   6.862   4.322  15.861 -0.0079  0.0779  0.3449
29496W        W44627   2.787   2.456  13.484 -0.1675  0.2146  0.3310
29497W        W44628   2.064   0.961   4.154 -0.2281 -0.2159 -0.0711
29498W        W44629   8.395  12.544   0.492  0.0663  0.1305  0.2166
29499W        W44630  16.298  11.677   0.251  0.0628  0.2537  0.0483
29500W        W44631   7.046   0.824  11.061 -0.0418 -0.3349  0.0768
29501W        W44632   6.666   3.158  15.121 -0.3263  0.1339 -0.0902
29502W        W44633   8.991   4.959   3.191  0.2451 -0.1886  0.0388
29503W        W44634  12.691   1.275  13.793  0.1185 -0.1137 -0.0132
29504W        W44635  16.963   5.790   4.229  0.0324 -0.0961  0.0986
29505W        W44636  11.468   2.519  15.922  0.0504 -0.0695 -0.0090
29506W        W44637   8.472   7.355   2.177 -0.4046  0.0520 -0.2554
29507W        W44638  10.929   8.727  14.096  0.0519 -0.0649 -0.0175
29508W        W44639  16.206   0.467   4.044  0.0420  0.1224  0.0656
29509W        W44640   4.467   9.242   1.940  0.1755 -0.1381  0.1131
29510W        W44641   0.387   1.940  10.922 -0.0925  0.1615 -0.1410
29511W        W44642   9.636   4.298   3.059  0.1324  0.1537 -0.0061
29512W        W44643  14.960   8.400  13.361  0.2072 -0.2383 -0.2033
29513W        W44644   6.566   1.729  10.448 -0.0602 -0.1032  0.0633
29514W        W44645   1.662  17.895  14.149  0.1191 -0.3876  0.0930
29515W        W44646   6.620  13.139   2.661  0.0506 -0.3318  0.2249
29516W        W44647  11.299  10.888  13.183 -0.0565  0.0456 -0.0397
29517W        W44648   6.089  16.398   0.994 -0.1869  0.0562  0.0591
29518W        W44649  13.777   0.221  14.272 -0.2298 -0.0050  0.0168
29519W        W44650  14.140   4.456  16.165 -0.0039 -0.3696  0.0736
29520W        W44651   3.397   1.156  13.335  0.0743 -0.0477  0.1310
29521W        W44652  15.634   2.358   0.692 -0.0622 -0.2138  0.0395
29522W        W44653   3.130  12.246  10.837 -0.0053  0.0057  0.0696
29523W        W44654   7.441   2.995   0.702 -0.0718 -0.3141 -0.2478
29524W        W44655   4.510  15.295   2.507 -0.2856 -0.0693  0.0456
29525W        W44656  10.615  14.348   0.654 -0.0421 -0.2746  0.0234
29526W        W44657   2.628   5.311   5.209 -0.2097 -0.0029 -0.2014
29527W        W44658   8.644  12.275  12.437 -0.1061 -0.3902  0.0259
29528W        W44659  11.767   1.318   5.659  0.0361 -0.1288 -0.0038
29529W        W44660  17.408   0.762   2.635 -0.1663 -0.0688 -0.0070
29530W        W44661  14.538   5.868  15.860  0.1446  0.0511  0.0003
29531W        W44662  11.525   3.373  11.157 -0.1131  0.2882  0.2913
29532W        W44663  12.484   6.000   2.393 -0.1536  0.1985  0.2384
29533W        W44664  15.866  17.773  12.297  0.2337 -0.1619 -0.1942
29534W        W44665   9.736  16.683  13.179 -0.1635 -0.0268  0.0186
29535W        W44666   5.039  16.474   2.284 -0.0801 -0.0035 -0.0138
29536W        W44667   3.752   6.642  12.859  0.0321 -0.1874 -0.1247
29537W        W44668   8.765  17.968   0.177 -0.4044 -0.1929 -0.2256
29538W        W44669   6.674   2.564   2.015  0.0669 -0.1365 -0.2975
29539W        W44670   0.835  15.317  11.431 -0.1796 -0.0882  0.1744
29540W        W44671   6.949  18.020   3.870  0.0262  0.1476 -0.0599
29541W        W44672   2.984   5.727   0.859 -0.0441 -0.3945  0.0912
29542W        W44673   6.845  15.362   5.180 -0.1431 -0.1553 -0.1618
29543W        W44674  12.783   2.216   4.217 -0.1108  0.0395 -0.4014
29544W        W44675   2.984  14.080   2.540 -0.0060  0.0607  0.1039
29545W        W44676  16.192   7.986   3.121  0.3271  0.1370 -0.2103
29546W        W44677   6.883  17.443  11.090 -0.0289 -0.3203 -0.4360
29547W        W44678   4.356   6.304   5.259  0.0197 -0.1208  0.2360
29548W        W44679  16.025  10.126  13.146 -0.0886 -0.0069 -0.2579
29549W        W44680  16.489   1.675   1.722 -0.2029 -0.3900 -0.0997
29550W        W44681   7.322  10.691  13.424  0.0306 -0.2605 -0.0877
29551W        W44682  10.717   8.485   5.287  0.0809  0.0318 -0.0359
29552W        W44683  17.474   5.342   0.294  0.3078  0.0701  0.2361
29553W        W44684  16.269   7.862  13.139  0.2318  0.0576 -0.0608
29554W        W44685  16.483   0.505  10.671  0.2118  0.0547 -0.1434
29555W        W44686  10.268   1.011   2.293 -0.1575  0.1071  0.1404
29556W        W44687  12.462   7.085   4.117 -0.4012 -0.0129  0.1085
29557W        W44688  11.302   7.512  11.644  0.1482 -0.0904 -0.0458
29558W        W44689  18.007  10.649   0.447  0.1596 -0.0668 -0.1576
29559W        W44690  15.144   8.645  16.100 -0.0639  0.0442 -0.1276
29560W        W44691   0.260  12.517  12.586  0.1815 -0.1257  0.1202
29561W        W44692   0.724   7.247  10.335 -0.1418 -0.0459  0.1698
29562W        W44693   9.012   4.003   0.068  0.0058 -0.0879 -0.3218
29563W        W44694   0.724   9.244  13.765 -0.0183  0.1320  0.2001
29564W        W44695  10.722  11.447   4.921 -0.0891 -0.3396  0.0101
29565W        W44696  11.103   7.578  12.555  0.4426 -0.3422  0.1616
29566W        W44697  11.923  15.359   1.261  0.1889  0.2152  0.0521
29567W        W44698  11.830  16.563   5.643  0.0897 -0.1458  0.0741
29568W        W44699   4.104   1.498  11.551  0.0139  0.6128 -0.0270
29569W        W44700   9.071   8.336   4.063  0.1310 -0.1580 -0.2905
29570W        W44701  16.844  14.347   0.013  0.0588 -0.0137 -0.2715
29571W        W44702  17.669   5.505  12.541 -0.2022  0.0987 -0.2783
29572W        W44703   3.089   7.881   3.983  0.2821 -0.0340 -0.0743
29573W        W44704  12.542  16.166  12.933  0.0089 -0.1399 -0.0191
29574W        W44705  10.867  17.503   5.348  0.1765 -0.1024  0.1133
29575W        W44706   2.956  15.498   2.592  0.1088  0.1079 -0.0612
29576W        W44707   0.202   6.041  12.450 -0.2054  0.2782 -0.2411
29577W        W44708   8.794   0.175  13.073  0.0607 -0.4361 -0.1138
29578W        W44709   4.362  16.685  12.985 -0.2249  0.2730  0.2188
29579W        W44710  18.041  13.095  15.177  0.2383 -0.1960  0.1749
29580W        W44711   9.177  10.069  11.455  0.2341  0.2212  0.0967
29581W        W44712   2.175  15.525  12.777 -0.2465 -0.0317  0.0210
29582W        W44713   3.581  14.841   4.148  0.1789 -0.2125 -0.0370
29583W        W44714   0.360  11.843  13.174  0.3365 -0.1835 -0.0251
29584W        W44715   8.816   6.004  11.041  0.0682  0.1648 -0.0008
29585W        W44716   1.031   7.298   1.678 -0.6591 -0.1994  0.0777
29586W        W44717   7.696   8.479   0.463 -0.0081  0.1106  0.2230
29587W        W44718   5.047   0.564  14.872  0.1356 -0.0293 -0.0329
29588W        W44719   1.605   5.864  13.407  0.2538 -0.5028 -0.1838
29589W        W44720  17.533   4.132   0.755 -0.1135  0.2700 -0.0184
29590W        W44721  16.254  16.547  11.973 -0.1148  0.1843  0.1914
29591W        W44722  16.782  16.005  16.060 -0.0935 -0.1202  0.1457
29592W        W44723  13.985  15.360   0.857 -0.0133 -0.0393  0.0922
29593W        W44724   3.344  12.209   3.087  0.0496 -0.3225  0.3658
29594W        W44725   6.294  17.905  11.486  0.1803  0.2256 -0.1077
29595W        W44726  10.204   5.209   2.838 -0.0348  0.1075  0.1925
29596W        W44727  16.349  15.608  13.710 -0.0963 -0.0055 -0.0805
29597W        W44728   3.384   7.358  13.219 -0.0602  0.0699  0.2070
29598W        W44729  17.505  16.313  13.911  0.0332  0.0649 -0.0622
29599W        W44730   5.773   1.956   3.105  0.1795  0.1089 -0.1394
29600W        W44731   2.448   2.045   4.778  0.1600  0.2046 -0.0929
29601W        W44732  15.116   4.338  13.550  0.1531  0.1520  0.1164
29602W        W44733   1.139   2.012   1.421 -0.0598  0.0143  0.0184
29603W        W44734  17.778  12.921   3.740 -0.0652  0.2735 -0.1281
29604W        W44735   9.993   1.876  10.056  0.3161 -0.2668  0.0768
29605W        W44736  15.598   7.119  14.849  0.1023  0.1922  0.0851
29606W        W44737  14.780   5.142  13.088  0.2842 -0.0050 -0.2713
29607W        W44738   7.455   9.632   4.831 -0.5457  0.2411 -0.0867
29608W        W44739   0.849  17.325  14.034 -0.1239 -0.1153 -0.1409
29609W        W44740   5.513   1.441   0.170 -0.0857 -0.0350  0.0242
29610W        W44741  16.465  14.374   4.447 -0.0646  0.1148  0.0280
29611W        W44742   0.573   7.868  13.335 -0.0286 -0.1373  0.1266
29612W        W44743  13.925  16.756   0.679 -0.1738 -0.3134  0.1130
29613W        W44744   8.463   2.365  14.705 -0.0644  0.1956  0.0779
29614W        W44745   0.080  11.704   4.626  0.0474  0.0549  0.0956
29615W        W44746  16.209   7.725   1.330  0.1065  0.1893  0.0822
29616W        W44747   9.641  13.555   5.254  0.1487 -0.0941 -0.3339
29617W        W44748   6.598  11.217   0.597 -0.0372 -0.2564  0.1793
29618W        W44749  16.175   8.905  13.438 -0.0679  0.2361  0.1576
29619W        W44750  14.943   8.561   3.267 -0.1878  0.0191  0.0667
29620W        W44751   0.792  15.519  14.135 -0.3133 -0.0221  0.1222
29621W        W44752   9.665  14.541   3.236  0.0371 -0.0890  0.2035
29622W        W44753  11.860  11.798  14.580 -0.0884 -0.1335 -0.0349
29623W        W44754  12.941   0.107  12.079 -0.0093  0.1149  0.0610
29624W        W44755  16.431  16.208  15.201 -0.0355 -0.4179 -0.0020
29625W        W44756  16.065   0.546  13.682 -0.2035 -0.2395  0.0872
29626W        W44757  13.118   7.150  14.745  0.3839 -0.1753  0.0637
29627W        W44758   7.945  12.725  11.813  0.2038  0.1337  0.0935
29628W        W44759   9.617  13.623  14.377  0.0359  0.1441  0.0473
29629W        W44760   9.387  12.005  12.192 -0.0964  0.0514  0.2392
29630W        W44761  12.857  10.685   4.000 -0.1835  0.1582 -0.4064
29631W        W44762   9.194  11.563  12.192 -0.2654  0.1092 -0.0952
29632W        W44763   3.736   3.360   5.233  0.0411  0.1346 -0.1129
29633W        W44764  13.026   1.091   4.508  0.0441 -0.2680  0.3646
29634W        W44765   1.015  10.061  15.935  0.1045 -0.2124  0.2843
29635W        W44766   5.657  11.185  12.519 -0.0096 -0.0098  0.0548
29636W        W44767  10.779   6.506   3.980  0.0464 -0.2375  0.1320
29637W        W44768  16.306   2.535  11.785  0.2473 -0.0343  0.3533
29638W        W44769  17.509   7.546   6.733  0.0429 -0.2676  0.0861
29639W        W44770  13.980   3.981   2.964 -0.0730 -0.0661 -0.3169
29640W        W44771   6.194  11.931   5.106 -0.1009  0.0035  0.0035
29641W        W44772  15.477  15.133  16.019 -0.1498  0.1006 -0.0912
29642W        W44773  16.412   0.014  13.071 -0.0289  0.1760 -0.0773
29643W        W44774   0.762  10.819  11.306  0.0504  0.2584 -0.0472
29644W        W44775  18.061  10.552  14.203  0.1104  0.2436 -0.0698
29645W        W44776   5.437  14.422   4.190  0.2626  0.0922  0.0720
29646W        W44777  15.841  15.884  13.525 -0.0740 -0.1671 -0.3137
29647W        W44778  13.566   0.335  13.742  0.3978  0.1523  0.0638
29648W        W44779   9.561  12.292  12.665 -0.2798 -0.0654 -0.1212
29649W        W44780  14.570  17.277   4.255  0.2259  0.0584  0.1398
29650W        W44781  17.468  12.617  13.538 -0.1897 -0.1246 -0.3177
29651W        W44782  12.358  16.944   3.417 -0.0158  0.0668 -0.0276
29652W        W44783  10.235   9.391  10.843 -0.1195  0.0427 -0.1037
29653W        W44784   2.126  14.651   1.099  0.3021  0.0085  0.2226
29654W        W44785  15.204  12.959  11.953  0.2332  0.0951  0.0940
29655W        W44786  11.046   2.265  11.889 -0.0298 -0.1960  0.1976
29656W        W44787  12.935   7.969   5.450 -0.0655  0.0627 -0.1752
29657W        W44788  16.476  17.709  14.716  0.2734 -0.1746 -0.3472
29658W        W44789   2.633   9.922   4.502 -0.1824 -0.0061  0.0066
29659W        W44790   3.945   5.977  14.580  0.0958 -0.0975  0.3534
29660W        W44791  12.848   9.598   2.632  0.2340  0.0564 -0.1533
29661W        W44792   1.351  16.495   1.974 -0.0014  0.2473  0.0053
29662W        W44793  15.929   3.000  13.641 -0.3832  0.1705  0.3578
29663W        W44794   0.099  14.039   1.780 -0.2435  0.2097  0.1722
29664W        W44795   0.394  17.455  10.457  0.0212 -0.1909  0.0796
29665W        W44796   9.452  17.173  11.658 -0.1023  0.0361 -0.1821
29666W        W44797   1.869   0.288  11.446 -0.0260  0.1971  0.1108
29667W        W44798   4.840   7.637  12.182 -0.0751 -0.1507 -0.1005
29668W        W44799   6.211   2.432  15.382  0.3292 -0.1136  0.2712
29669W        W44800   9.195  11.977   0.244 -0.0960  0.2294 -0.1128
29670W        W44801   2.852   9.725  14.596  0.1740 -0.0706  0.0552
29671W        W44802  13.401   4.268   0.387  0.6847  0.0209  0.0454
29672W        W44803  17.869   4.860  14.386  0.2200 -0.2713  0.1289
29673W        W44804  13.133  16.645  12.385 -0.0045  0.1263 -0.1975
29674W        W44805   4.868  12.711  11.389 -0.0224  0.0426  0.2232
29675W        W44806  13.261   4.670  14.342 -0.0370 -0.0779  0.0671
29676W        W44807  13.177   9.080   4.170 -0.1893  0.0843  0.1915
29677W        W44808  10.882  12.174   3.553  0.1249 -0.1566  0.3229
29678W        W44809  14.176   9.154  15.129  0.1321 -0.0132 -0.0009
29679W        W44810  14.055  12.341  12.891  0.2311  0.2146  0.0582
29680W        W44811   5.843  10.409   4.106  0.1380  0.0874  0.1397
29681W        W44812   8.608  15.327  15.722 -0.1217 -0.0685 -0.0177
29682W        W44813   5.990  10.674   1.701 -0.1906 -0.1834 -0.1227
29683W        W44814  17.771   7.460   0.458 -0.1183 -0.0178  0.0326
29684W        W44815  12.096   2.316   5.990 -0.0153  0.2477  0.2275
29685W        W44816   5.976  11.190  11.579  0.1137  0.0119  0.2121
29686W        W44817  10.402  11.004   4.859 -0.1375 -0.1296  0.0262
29687W        W44818   3.573  11.035   1.047 -0.4048  0.0776 -0.3062
29688W        W44819   7.245   5.624   4.160  0.0709 -0.0293 -0.0191
29689W        W44820   9.507  11.402  14.483  0.1397  0.3241  0.1293
29690W        W44821   6.778  10.594  14.733  0.0381 -0.1276 -0.1453
29691W        W44822  10.515   7.341  15.885 -0.2468 -0.1300  0.2098
29692W        W44823  10.981  16.168  15.367  0.1814  0.2570  0.0605
29693W        W44824  18.050   3.128   5.031  0.3200 -0.1737  0.2065
29694W        W44825  10.540  12.564   0.149  0.1555 -0.0990 -0.3077
29695W        W44826  13.039   4.215   4.858  0.0451  0.0316  0.0642
29696W        W44827   0.775   1.985   0.248 -0.0162 -0.1560  0.1392
29697W        W44828  15.543  15.063  14.657  0.0858 -0.1171  0.0445
29698W        W44829  12.377  13.368   3.491 -0.1814 -0.0691 -0.1243
29699W        W44830   0.425  13.229  12.171  0.1624  0.0232  0.2324
29700W        W44831   4.358  11.330   4.043  0.0445 -0.1541 -0.0318
29701W        W44832   9.056  15.094  13.542  0.0564 -0.1813  0.2208
29702W        W44833   3.490  16.029  12.859  0.0326  0.1767  0.1831
29703W        W44834  13.404  17.387   4.298 -0.0290 -0.0643 -0.0212
29704W        W44835  15.078   8.363   5.430 -0.0834 -0.0385 -0.2236
29705W        W44836   4.897  11.625  16.023 -0.1308  0.1763  0.3676
29706W        W44837   2.386   9.500   4.790 -0.0857 -0.0299  0.1038
29707W        W44838   2.987   7.207  15.397 -0.0105  0.0406  0.0355
29708W        W44839   3.646  10.252   1.771 -0.2944 -0.0037  0.0040
29709W        W44840   9.390  17.370  12.593  0.3258 -0.1129  0.0535
29710W        W44841  13.123  15.282  12.456  0.0613 -0.2291  0.0946
29711W        W44842   6.730   7.920  12.526 -0.2539 -0.1034 -0.1141
29712W        W44843  16.915  12.525   5.301 -0.0899  0.2026 -0.1335
29713W        W44844  18.054  14.456  16.035 -0.2715  0.0574  0.0758
29714W        W44845   3.934   2.945   4.499 -0.1846  0.0318  0.2588
29715W        W44846   1.850  15.094  15.231  0.1205  0.0111  0.0457
29716W        W44847  12.730   6.843   1.513  0.2458 -0.1139  0.0236
29717W        W44848   5.345  14.366  15.492 -0.1376 -0.0676  0.0029
29718W        W44849  14.589   9.238  12.771 -0.1798  0.0919 -0.1793
29719W        W44850  11.706  12.728  11.331 -0.0480  0.2609 -0.2279
29720W        W44851   5.149   1.328   1.966  0.0876  0.2101  0.2035
29721W        W44852  15.531   1.166   4.874 -0.1871 -0.1530 -0.1461
29722W        W44853  12.792  16.864  12.732  0.0464 -0.5286  0.1582
29723W        W44854   1.401   9.497   2.723  0.3964  0.3155  0.3116
29724W        W44855  17.419   5.389   4.886 -0.1505 -0.0071  0.1431
29725W        W44856  13.818   4.263  12.880  0.1072 -0.0386  0.0124
29726W        W44857   9.608   8.013  15.305  0.1720  0.2267 -0.0152
29727W        W44858   0.259  16.883   5.634  0.0793 -0.1521 -0.2498
29728W        W44859  15.274  14.240   4.939 -0.3040  0.0870 -0.2267
29729W        W44860   4.353  11.177  14.797 -0.2865 -0.1764  0.1503
29730W        W44861  12.194  10.792   3.390 -0.0061 -0.1510  0.0410
29731W        W44862   1.737   5.815  12.613 -0.1953  0.2461  0.1198
29732W        W44863   5.739  17.090   0.381 -0.1577  0.2368  0.1932
29733W        W44864   9.702  12.846  13.435 -0.3162  0.0218 -0.1771
29734W        W44865   2.286   0.206  12.263  0.0540 -0.0223 -0.1206
29735W        W44866  14.273   9.964  13.498  0.0774 -0.2446  0.0693
29736W        W44867   4.642   3.766  11.987  0.1560  0.1671 -0.0716
29737W        W44868  10.993  13.642   0.948  0.0308 -0.1421  0.0811
29738W        W44869  13.818   3.764  14.591 -0.0816 -0.2892  0.0864
29739W        W44870   5.798  16.449   2.743 -0.2821 -0.0011  0.1331
29740W        W44871  10.688   2.391   5.853  0.0318 -0.0225 -0.1128
29741W        W44872  12.383   6.440   3.688  0.1098 -0.2812 -0.2756
29742W        W44873   7.148   5.794   4.579 -0.0405 -0.2870  0.0088
29743W        W44874   1.790  17.082  10.635  0.0506  0.2203 -0.0864
29744W        W44875   1.557  10.426   1.842  0.1133  0.1185 -0.2345
29745W        W44876  13.036   4.034  10.952 -0.1897 -0.1682 -0.0771
29746W        W44877  14.271   4.640  13.790  0.0151 -0.0874  0.0444
29747W        W44878   0.993   7.317  16.083  0.0255 -0.0400 -0.2067
29748W        W44879  15.870   9.144  15.435 -0.1025  0.1536  0.2570
29749W        W44880   1.387  11.737  15.302 -0.2772  0.0169  0.1963
29750W        W44881   3.226   4.444  13.099  0.2493 -0.4230 -0.2099
29751W        W44882   1.478   0.550  12.553  0.1700 -0.1058  0.0729
29752W        W44883   9.489  10.588   0.286  0.1308  0.1162  0.0785
29753W        W44884  11.337  13.768   5.486  0.1744 -0.1476  0.1166
29754W        W44885   9.387   2.598   2.717  0.1630  0.2915 -0.0520
29755W        W44886   7.929  12.788  13.539  0.0011 -0.1094 -0.3892
29756W        W44887   3.299  15.069  16.008  0.0291 -0.0606 -0.5359
29757W        W44888   9.010   2.479  13.210  0.0402  0.0597 -0.1439
29758W        W44889   1.926   6.059   2.472 -0.0323  0.1162 -0.3290
29759W        W44890  10.199   2.796   0.593  0.1235  0.0232 -0.1334
29760W        W44891   2.555  12.823   1.890 -0.0198 -0.1979 -0.0792
29761W        W44892   1.296  17.854  12.140  0.0525 -0.0313 -0.1619
29762W        W44893   1.715   8.692  11.927 -0.1037  0.2516  0.0099
29763W        W44894   0.731  15.888  15.603  0.3008  0.0701 -0.5287
29764W        W44895  13.235   2.699  16.004 -0.1590 -0.1433 -0.0562
29765W        W44896  12.764   3.454   2.841 -0.3278 -0.0629  0.0381
29766W        W44897  13.193   1.048  15.545  0.1489 -0.3800  0.1815
29767W        W44898   6.903   0.150  15.379  0.0141  0.2903 -0.0202
29768W        W44899   6.765   0.543   4.444 -0.0324 -0.3555 -0.1460
29769W        W44900  11.704   6.396   4.636  0.5427 -0.3038  0.0168
29770W        W44901   8.802   5.773   3.012  0.0603 -0.1612  0.2549
29771W        W44902   5.676   0.841  12.801  0.3354 -0.0689  0.3395
29772W        W44903  10.235   0.006  11.912  0.2788 -0.3608 -0.1965
29773W        W44904   4.369  11.033   0.122 -0.0105 -0.1645 -0.2662
29774W        W44905   3.647  11.186  14.928  0.0129  0.2440  0.2878
29775W        W44906   9.821   9.658   4.342 -0.1563 -0.1789 -0.0204
29776W        W44907  16.859  10.706   4.319 -0.0456  0.2000 -0.0005
29777W        W44908   0.635  16.160   3.242  0.0239 -0.0402  0.4114
29778W        W44909   9.497   9.195   3.823  0.0279 -0.0249 -0.0129
29779W        W44910   7.171  11.018  13.791  0.2449  0.0115  0.4240
29780W        W44911  15.083   2.026   5.119  0.0328 -0.1662  0.0698
29781W        W44912  13.234  12.523   1.521  0.0601  0.0509  0.1211
29782W        W44913  13.741   8.063   3.435  0.1693 -0.4185  0.3197
29783W        W44914   5.376   6.087  15.718  0.0406  0.1999  0.1782
29784W        W44915  16.910  17.307   5.842  0.0482  0.3278  0.0584
29785W        W44916  15.207  14.832  13.652 -0.0960 -0.1263 -0.1786
29786W        W44917  17.977   8.993   5.962  0.2101  0.1701 -0.1255
29787W        W44918   4.376   4.510  15.834 -0.0003  0.0600 -0.2888
29788W        W44919   9.773  12.962   4.177  0.3723  0.1082 -0.0888
29789W        W44920   5.788   2.618  10.115 -0.3635 -0.1463  0.2184
29790W        W44921  14.471  16.647  15.567  0.2408  0.1231  0.1563
29791W        W44922  14.265   6.956  10.774  0.1483  0.1973  0.1438
29792W        W44923  17.347   1.445  16.159 -0.3041  0.0242  0.1271
29793W        W44924  15.557   4.454   3.385  0.1001  0.0246 -0.0178
29794W        W44925  14.605  14.620   3.901 -0.0275  0.1253 -0.0856
29795W        W44926   4.928   4.600   5.068  0.0791 -0.2536 -0.1530
29796W        W44927   1.391   7.403   5.617 -0.0056 -0.0271  0.2165
29797W        W44928   1.103  10.447  12.434  0.0969  0.1956  0.1455
29798W        W44929  11.610  10.811   0.373 -0.0383 -0.2672 -0.1296
29799W        W44930  13.438   5.564  12.081 -0.2343  0.1776 -0.4004
29800W        W44931   7.143  12.584   0.635 -0.3348  0.0404  0.0857
29801W        W44932   4.482  17.946   4.377  0.0070  0.1444 -0.2456
29802W        W44933  17.099  15.743   3.829  0.3959  0.2642 -0.1194
29803W        W44934   4.005  14.015  14.682 -0.2606 -0.2033  0.0866
29804W        W44935  13.543  12.839   2.771  0.0679  0.1234  0.1037
29805W        W44936  14.040   5.587   1.317  0.1737 -0.0677  0.0109
29806W        W44937  17.222   9.665  12.336  0.1254 -0.3156  0.0270
29807W        W44938  10.576  13.111   0.049  0.0557  0.2436 -0.0766
29808W        W44939  14.553  11.393   4.316 -0.2223 -0.0844  0.1154
29809W        W44940  10.321  14.049   3.918  0.0996  0.0825  0.1605
29810W        W44941   2.985  17.238  15.957  0.0842  0.1649  0.0958
29811W        W44942  15.298   7.466  15.254 -0.2909  0.0305 -0.3032
29812W        W44943   4.726   2.191  12.352 -0.3619 -0.1159 -0.2940
29813W        W44944   3.787  17.453  14.597 -0.0949 -0.1172  0.1714
29814W        W44945  12.424   8.432  14.243 -0.2377 -0.0746  0.2098
29815W        W44946   1.012  15.559  12.852  0.0012  0.0738  0.1606
29816W        W44947   3.589  11.041   2.420  0.0797  0.0372  0.0039
29817W        W44948   1.330   7.428   2.154  0.0046 -0.2261 -0.2192
29818W        W44949   4.629  16.116   3.164  0.1678  0.0543  0.2354
29819W        W44950   4.939  12.774   2.464 -0.0022  0.1873  0.1005
29820W        W44951  18.095   8.068  11.199 -0.0415 -0.3065 -0.0149
29821W        W44952   2.201  12.331   2.593 -0.0313  0.0177  0.0481
29822W        W44953   6.249  14.667   3.267 -0.0328 -0.2603  0.3219
29823W        W44954  13.549   3.263  13.858 -0.0022  0.1436  0.0329
29824W        W44955  15.696   4.150   0.112  0.0482  0.0798  0.1212
29825W        W44956   0.860  11.727  13.144  0.0276  0.0618  0.4048
29826W        W44957  17.989   3.333   1.702 -0.0923  0.2277  0.0594
29827W        W44958  17.862  13.554  12.570 -0.0569  0.1754  0.2446
29828W        W44959  11.241  16.083  13.583 -0.0401 -0.1917  0.1196
29829W        W44960   9.080  16.628   0.621  0.0966  0.0154  0.0390
29830W        W44961  14.908  14.521  14.482  0.0457  0.0960 -0.0384
29831W        W44962  16.147   4.821   4.681  0.1286 -0.2186 -0.0072
29832W        W44963  12.334  13.681   5.098 -0.0300  0.1659  0.0672
29833W        W44964  16.414  13.867   0.849 -0.3550  0.0825 -0.2529
29834W        W44965  16.571   4.656   3.777  0.0661 -0.1175  0.1207
29835W        W44966  11.744  11.184   2.700 -0.1434  0.1537  0.3019
29836W        W44967  15.895   4.170  15.336 -0.1916 -0.2263  0.1989
29837W        W44968   8.401   5.082  11.269  0.2161  0.0260  0.0544
29838W        W44969  14.095  17.370   3.759 -0.3435  0.0320 -0.0747
29839W        W44970  12.277   1.350  13.482 -0.0281  0.2922  0.2396
29840W        W44971  16.173   2.727   0.900 -0.0860 -0.0600  0.3540
29841W        W44972   2.148  10.653   3.341  0.0461 -0.1505  0.0110
29842W        W44973   2.434  10.277   4.763 -0.0104  0.3217  0.2553
29843W        W44974  17.231  15.199  12.696 -0.0072  0.1854 -0.0846
29844W        W44975   9.151  12.686  14.258 -0.0409  0.3046 -0.1916
29845W        W44976  15.572   1.993   4.158  0.1246 -0.3035 -0.0149
29846W        W44977  15.859  13.370  13.523 -0.1606  0.0330  0.1291
29847W        W44978  10.464   5.793  13.154  0.0318 -0.1280  0.3246
29848W        W44979   8.791   2.953   1.589 -0.1120 -0.3107 -0.0416
29849W        W44980  17.273  10.153   5.117 -0.0820 -0.0269  0.2046
29850W        W44981   1.136   8.652   3.526 -0.1373 -0.0209  0.1590
29851W        W44982  16.246  12.609  13.581  0.1358  0.0817  0.2736
29852W        W44983   2.384  16.577   1.715  0.2144 -0.0701 -0.0441
29853W        W44984   2.532  14.923   1.204  0.2410  0.4398 -0.1910
29854W        W44985  11.265  16.438  15.086  0.0368 -0.1692 -0.0870
29855W        W44986   0.766   3.269  15.086 -0.2105  0.0092 -0.1440
29856W        W44987   5.742  10.667  15.812 -0.0154  0.1201  0.0650
29857W        W44988  10.838   1.403   5.758 -0.0933  0.2262  0.0408
29858W        W44989  12.062  15.223   2.274 -0.2041 -0.1690  0.1312
29859W        W44990   8.779   3.410  14.596 -0.0364  0.0646  0.0327
29860W        W44991   3.781   6.549  14.926 -0.1002  0.0659  0.2108
29861W        W44992  12.892  17.292   2.464 -0.2658  0.0689  0.0501
29862W        W44993   2.863   9.627  13.385  0.0948  0.2234  0.0248
29863W        W44994   5.603   7.763  13.346  0.0703 -0.0813  0.1407
29864W        W44995  16.070  18.040  15.081 -0.0766  0.0891  0.0624
29865W        W44996  11.307   4.979   5.443  0.0184  0.1796 -0.3533
29866W        W44997   4.222  13.109  11.963  0.3201 -0.0968 -0.0562
29867W        W44998  17.999   3.962  12.645  0.1838 -0.0134 -0.3425
29868W        W44999  12.964   5.605   3.258  0.1114  0.2089  0.0146
29869W        W45000  14.102  17.178  10.249  0.0099 -0.0258  0.3245
29870W        W45001   2.699   4.878  14.470  0.3720  0.1400  0.2809
29871W        W45002   6.742   2.988  11.236 -0.2376 -0.0416  0.0525
29872W        W45003   6.207   5.930  12.964  0.1557 -0.1023 -0.1774
29873W        W45004  11.897   2.276  11.653  0.0912  0.1517 -0.1121
29874W        W45005  10.927   4.560  15.886  0.2186 -0.0017 -0.0388
29875W        W45006  12.297  13.898   3.943  0.1093 -0.0042  0.2252
29876W        W45007  11.018  15.129   9.953  0.0266 -0.1721  0.1754
29877W        W45008  15.800   2.253   1.489  0.0136 -0.1549  0.0705
29878W        W45009   9.694   5.472   4.214  0.3655  0.1404 -0.1069
29879W        W45010  18.095  13.499  13.518 -0.0020  0.2693 -0.1338
29880W        W45011  12.502   9.517   3.875 -0.0569  0.1352  0.1371
29881W        W45012   0.487   2.593  11.075  0.1445 -0.2019  0.1994
29882W        W45013  15.355  15.259   1.773 -0.1115 -0.0063 -0.0772
29883W        W45014   1.793   0.663  13.106  0.0497  0.0025  0.1268
29884W        W45015   6.054   1.929   6.252 -0.1523 -0.0975 -0.1690
29885W        W45016   0.409  12.250   6.435  0.2613 -0.1233 -0.1672
29886W        W45017  16.989   8.460  14.998 -0.0267 -0.0683 -0.0700
29887W        W45018  15.805   9.190   4.322 -0.2207  0.3109  0.1929
29888W        W45019   8.629  16.127  13.163 -0.1453  0.0189  0.0702
29889W        W45020  11.868  12.306  10.967 -0.0118  0.0058  0.3925
29890W        W45021  13.103   6.554  12.343 -0.0640 -0.3055 -0.2670
29891W        W45022   9.206  13.772   3.874 -0.2041  0.1398  0.0936
29892W        W45023  16.096   3.950  14.463  0.0550 -0.0534  0.0350
29893W        W45024   0.750  17.710  12.383 -0.3356  0.0662  0.1324
29894W        W45025  12.040  17.764   0.452 -0.0863  0.2507 -0.2016
29895W        W45026   5.219  10.600   2.964 -0.0528 -0.0544  0.0296
29896W        W45027   5.145  13.019  13.003 -0.3843 -0.1141  0.2277
29897W        W45028  13.971  11.547  12.842  0.0393  0.1918  0.0449
29898W        W45029   2.407   2.027  11.875 -0.0460  0.0181 -0.3229
29899W        W45030  12.970   1.447  14.368 -0.0734  0.2642  0.0282
29900W        W45031  10.225   2.600  14.875  0.0329  0.0232 -0.0592
29901W        W45032  17.994   2.454  15.471  0.1315  0.2191  0.1535
29902W        W45033  11.564  14.567  10.933  0.0781  0.0239 -0.2341
29903W        W45034  16.794   2.032  11.714  0.0759 -0.0520  0.1099
29904W        W45035  13.436  12.674   1.997  0.1068  0.2511  0.0000
29905W        W45036  13.505   2.298   2.652  0.0782  0.0270 -0.4047
29906W        W45037  15.046  13.663  14.075  0.0196  0.2655  0.0838
29907W        W45038  17.173  15.539  14.136 -0.0962  0.1632 -0.1481
29908W        W45039  14.148  12.585   5.529  0.2225 -0.0192 -0.1073
29909W        W45040  17.737  10.919  14.493 -0.1089  0.1745  0.2553
29910W        W45041   9.857  14.252  10.287  0.3712 -0.0503 -0.2327
29911W        W45042   4.985  15.125  11.924  0.0475 -0.1759 -0.0732
29912W        W45043  15.323   4.460   5.070  0.0735 -0.1757 -0.0958
29913W        W45044   4.724  16.760   5.174 -0.1097 -0.2058  0.1674
29914W        W45045  17.191  16.856  14.466 -0.1283 -0.0649  0.1742
29915W        W45046  12.247   0.625  12.750 -0.1843  0.1491 -0.0334
29916W        W45047   3.039  16.021   2.415 -0.1674  0.1954 -0.2201
29917W        W45048   8.885  14.677   2.122  0.0102  0.1736 -0.1144
29918W        W45049   1.216   7.927  12.043 -0.0168 -0.3004 -0.0843
29919W        W45050   2.148   6.441   1.613  0.0819 -0.0720 -0.1226
29920W        W45051  10.359   7.530  14.131  0.0790  0.1059  0.2957
29921W        W45052   1.594   4.913   4.022 -0.0487  0.0119 -0.1228
29922W        W45053   2.515  12.483   2.977 -0.0117 -0.0215  0.2448
29923W        W45054   6.246  13.152   3.764  0.0878 -0.1987  0.0358
29924W        W45055   3.434   8.875   5.064  0.2485  0.1518  0.2142
29925W        W45056   0.664  17.833   4.593  0.0333  0.0142 -0.1713
29926W        W45057   5.884   8.810   4.705 -0.2507 -0.1706 -0.1595
29927W        W45058  11.044   5.655  14.237  0.1211  0.1336 -0.0363
29928W        W45059  16.256   1.631   3.820 -0.1243 -0.2004  0.0885
29929W        W45060  16.169   1.927   1.415  0.1799  0.0630 -0.0391
29930W        W45061  13.794  17.728   3.607 -0.0819 -0.0103  0.0835
29931W        W45062  16.969  14.670  12.656 -0.1531  0.0143  0.2365
29932W        W45063  13.064  17.238   1.950  0.0529 -0.0733  0.0485
29933W        W45064   1.371  16.495  12.956  0.0727 -0.1753 -0.3172
29934W        W45065   2.632  11.521   3.115 -0.1726 -0.0235 -0.0986
29935W        W45066  15.687   3.033   1.788 -0.2349  0.1067 -0.1634
29936W        W45067   8.854   9.287   5.650  0.1885  0.1692  0.0383
29937W        W45068  10.493   5.076  15.182  0.3460 -0.0383 -0.2243
29938W        W45069   2.174   5.602   5.197 -0.0576  0.2114 -0.2701
29939W        W45070   3.794  15.979  15.742 -0.2593 -0.0888 -0.3427
29940W        W45071  18.049   1.994  13.272 -0.1769 -0.0067 -0.1555
29941W        W45072   7.599  15.134   3.158 -0.1421 -0.0486 -0.0011
29942W        W45073   6.468  11.192  13.446 -0.0153 -0.0877  0.0069
29943W        W45074  13.193  12.149   1.026  0.0012 -0.1403  0.1497
29944W        W45075   5.626   0.865   0.338  0.1801  0.0053  0.2723
29945W        W45076   8.020  17.385  13.597 -0.1193 -0.0248  0.3217
29946W        W45077  10.944   8.819   0.758  0.2764  0.0539 -0.1128
29947W        W45078  12.023  10.280  14.853 -0.0190 -0.2080 -0.0467
29948W        W45079  15.136   1.114  15.988 -0.1480  0.0242  0.0752
29949W        W45080  15.102  13.074  12.479  0.0401 -0.2527 -0.0136
29950W        W45081  17.811   5.803  14.853 -0.2009 -0.0066 -0.6354
29951W        W45082   3.569   2.041  13.449 -0.0145  0.1779  0.0111
29952W        W45083   1.847  12.806  16.140 -0.3340 -0.0193 -0.0427
29953W        W45084  14.635   9.783  11.951  0.1914 -0.0869 -0.3001
29954W        W45085   6.161  13.992   5.713  0.0005  0.2461 -0.0730
29955W        W45086   8.680  11.150   1.502  0.1106 -0.0157 -0.1306
29956W        W45087   7.366  12.017  12.019  0.0963 -0.1826 -0.0735
29957W        W45088   7.944  12.197  14.247 -0.1307 -0.3726 -0.1316
29958W        W45089   0.550   9.784  14.919  0.2026 -0.0000  0.2598
29959W        W45090  12.112  16.048  13.103  0.0373 -0.0243 -0.0303
29960W        W45091  16.084  12.505  11.536 -0.0427 -0.0856  0.0166
29961W        W45092   5.886   4.962   3.536 -0.0810  0.1580 -0.2523
29962W        W45093   3.710   9.573   4.489  0.2181  0.1165 -0.0978
29963W        W45094   9.211  11.692  14.188  0.3078  0.0485 -0.1653
29964W        W45095  11.912   6.092   0.157 -0.1385 -0.1159 -0.1194
29965W        W45096   9.423   8.867   2.246 -0.0375 -0.0167 -0.1477
29966W        W45097   9.691   8.457  15.518  0.2804 -0.0919  0.2171
29967W        W45098  17.160  17.077  10.253 -0.0268 -0.0578  0.1098
29968W        W45099   7.673  10.716  14.353 -0.0407  0.0688  0.1488
29969W        W45100   3.068   3.238  11.113  0.0088 -0.0749 -0.0734
29970W        W45101   8.818   6.081  15.282  0.1454 -0.4419 -0.2844
29971W        W45102   3.518   7.745   2.664 -0.1630 -0.1273  0.1153
29972W        W45103   3.496   0.496  12.664 -0.1344  0.2252  0.2929
29973W        W45104   6.791  15.601   4.728  0.1540 -0.1196  0.1347
29974W        W45105  13.413   0.577  14.634 -0.3005 -0.0470  0.0251
29975W        W45106  10.846  16.862   2.172  0.1528  0.0314  0.0008
29976W        W45107   6.297   0.820  11.309 -0.2454  0.0730 -0.2252
29977W        W45108  17.443   1.582   1.518  0.2042  0.1999 -0.2609
29978W        W45109   6.173   2.145   0.289  0.1328 -0.0030  0.1622
29979W        W45110  17.854   3.139  15.266  0.0500  0.1467  0.4275
29980W        W45111  10.481   9.011  14.401 -0.1642 -0.1627 -0.1263
29981W        W45112   9.683   0.760   1.389 -0.1155  0.0614  0.1794
29982W        W45113  17.697  17.293  13.370 -0.1402 -0.1450  0.3996
29983W        W45114   0.005   6.003   1.441 -0.0642 -0.0169  0.0964
29984W        W45115  16.657   1.912  15.808 -0.0103 -0.2601 -0.0906
29985W        W45116  11.199   6.666  15.399 -0.3435 -0.0113  0.0272
29986W        W45117  12.204  14.682   0.683 -0.1264  0.0150 -0.0773
29987W        W45118   8.034   5.395   1.554 -0.1140 -0.1326 -0.1813
29988W        W45119  11.460  10.812  12.278 -0.0424  0.0588 -0.0652
29989W        W45120  12.190  11.692   0.305 -0.0334  0.1057 -0.0119
29990W        W45121   3.544   7.797  13.008  0.1732 -0.1435 -0.1801
29991W        W45122  18.101  17.696  13.524 -0.0021  0.1241 -0.1404
29992W        W45123  16.468   1.616  12.355  0.0556  0.3587  0.1460
29993W        W45124  10.806  10.102  11.292  0.0699 -0.2629 -0.1249
29994W        W45125   7.501  12.028  14.188 -0.0842  0.0998  0.2687
29995W        W45126  13.753   0.037  13.192 -0.0597  0.1854  0.4128
29996W        W45127  17.992   8.663   2.491 -0.0323  0.1693  0.0208
29997W        W45128   2.578  10.161  11.832  0.1697  0.1851 -0.0168
29998W        W45129  14.015  16.701   4.392  0.0226 -0.0803 -0.0554
29999W        W45130   1.759  10.355   6.339  0.0319 -0.2177  0.2450
30000W        W45131  14.624  17.708  13.170  0.3249  0.1003 -0.0158
30001W        W45132  17.403  10.050  10.913 -0.3208 -0.0618  0.0932
30002W        W45133   4.149  11.235   0.638  0.0838  0.0506 -0.2553
30003W        W45134   6.297  16.066  14.340  0.0205 -0.1166  0.3765
30004W        W45135  13.501  13.761  14.426  0.2810  0.0060  0.0008
30005W        W45136  14.244  11.640  11.820  0.0183 -0.0196 -0.0926
30006W        W45137   8.144  17.001   6.026  0.1013 -0.3549  0.1596
30007W        W45138  12.003  13.196   5.103  0.1055 -0.3144  0.0413
30008W        W45139  17.129   8.150  13.379  0.0042 -0.2026 -0.0736
30009W        W45140   1.503  14.449  13.183 -0.1699 -0.7181  0.1508
30010W        W45141  16.630   5.792  15.479  0.0786  0.4226  0.2111
30011W        W45142   1.713  15.519   4.208 -0.0540  0.0178 -0.0326
30012W        W45143   2.503   6.072   0.166  0.2037 -0.2267 -0.2110
30013W        W45144   7.594   7.148   5.015 -0.4881 -0.0019  0.1186
30014W        W45145   3.475  11.124   1.865  0.1995 -0.0826 -0.0860
30015W        W45146   2.241  11.338   0.495  0.0111 -0.0558 -0.2284
30016W        W45147   7.139   1.510   1.024 -0.0305 -0.0691 -0.1685
30017W        W45148  14.179  16.517  10.567 -0.1457  0.2134  0.2275
30018W        W45149  16.769   1.544   2.103  0.1013 -0.2795 -0.2100
30019W        W45150  17.145   4.721   4.621 -0.1808 -0.5445 -0.0058
30020W        W45151  12.841   1.383   1.384  0.2794 -0.0442  0.1569
30021W        W45152  17.295   9.230  12.042  0.0079 -0.2347  0.1082
30022W        W45153   4.081  11.683  13.072 -0.2749  0.0344 -0.1485
30023W        W45154   8.713   7.592  12.258  0.4249 -0.3144 -0.0245
30024W        W45155   0.843   8.298   0.886 -0.1433 -0.1220  0.4143
30025W        W45156  12.665   0.675  10.122  0.0933  0.0015  0.0305
30026W        W45157   3.428   2.708  10.359 -0.0800  0.0129 -0.2151
30027W        W45158   4.493  15.984  15.573 -0.1510  0.1487 -0.1470
30028W        W45159   1.443  16.225   0.568 -0.0662  0.2056  0.0931
30029W        W45160   1.751   1.313   3.256  0.1542 -0.0373  0.1264
30030W        W45161   8.182   0.440   3.385 -0.0202 -0.1387  0.2981
30031W        W45162  13.299  17.446  13.256  0.0509 -0.0683  0.0887
30032W        W45163  16.673   3.950   4.335 -0.1333  0.0825 -0.1441
30033W        W45164   4.861  14.767   4.631 -0.2848 -0.1840 -0.2015
30034W        W45165  13.490  14.893  11.586  0.3405 -0.1158 -0.1058
30035W        W45166   1.771   2.433  15.100  0.0072 -0.3377 -0.0532
30036W        W45167   9.229  12.217   4.153 -0.1988  0.0992  0.0711
30037W        W45168   7.780  10.822  15.455  0.0386  0.0787  0.0580
30038W        W45169  13.376   0.052  15.526 -0.1831  0.1137 -0.0548
30039W        W45170  14.194   3.603  13.441 -0.0102 -0.1524  0.2303
30040W        W45171   8.045   3.097   3.944  0.1098  0.0830 -0.1377
30041W        W45172  17.009   9.554   1.320  0.0844  0.0378  0.1179
30042W        W45173   1.614  11.325  11.774  0.1440 -0.2485  0.1432
30043W        W45174   2.941  14.998   2.621  0.0778 -0.1242 -0.0924
30044W        W45175   0.596   2.578   5.597  0.0671 -0.3763 -0.0742
30045W        W45176  13.716   9.759  13.187  0.1816  0.1214 -0.0152
30046W        W45177   4.302   0.315  12.279 -0.2943 -0.0317  0.0010
30047W        W45178  15.958   0.437  14.519 -0.2670 -0.0821 -0.0547
30048W        W45179  11.114  15.434  14.697 -0.3233  0.0596  0.1960
30049W        W45180  11.104  17.176  13.208 -0.0589 -0.0911 -0.1109
30050W        W45181   2.871  17.322   2.610  0.1385 -0.1429  0.0904
30051W        W45182  14.847  12.832   2.333 -0.2063  0.0027  0.1295
30052W        W45183   3.310  14.699  15.449 -0.0572  0.0276 -0.1384
30053W        W45184  11.962   6.043   2.298 -0.0514 -0.0422  0.2070
30054W        W45185   5.820   9.251  13.212  0.1696 -0.0470  0.0632
30055W        W45186  10.567  10.405  14.468  0.2069 -0.0974 -0.1426
30056W        W45187   8.420  12.748  14.766  0.2034 -0.0184 -0.1316
30057W        W45188   5.347   3.347   3.977 -0.1208 -0.0840 -0.0100
30058W        W45189   2.001   1.064  13.410 -0.2918 -0.0942 -0.0911
30059W        W45190  14.392  13.578  13.178  0.2795  0.1516 -0.0400
30060W        W45191  11.254  13.634   3.539  0.3146 -0.0029  0.2135
30061W        W45192   4.000   2.230   4.577 -0.0162  0.1003 -0.0584
30062W        W45193  10.303   6.231   1.097  0.1532 -0.1654  0.0427
30063W        W45194   8.590   0.299   0.010  0.0249 -0.1822 -0.1235
30064W        W45195  16.516  16.026  12.902 -0.2455 -0.0377 -0.0946
30065W        W45196  12.651   2.222  15.336  0.1394  0.1149 -0.3663
30066W        W45197   6.638   8.471  12.743 -0.0096  0.2091  0.1457
30067W        W45198  18.091   8.679  11.886 -0.0207  0.1243  0.1563
30068W        W45199  15.700   0.545   4.766  0.1073 -0.1704  0.1428
30069W        W45200   3.094   0.094  12.839  0.2113  0.0579  0.0519
30070W        W45201  14.293  11.216   3.689  0.3561  0.2714 -0.1348
30071W        W45202  12.918  11.529  14.016 -0.0326 -0.0222  0.1641
30072W        W45203  11.985  15.229   3.928 -0.3227 -0.1008 -0.1830
30073W        W45204   7.201   9.240   4.707  0.1051  0.0957 -0.0886
30074W        W45205  11.784   8.247  14.347  0.1172 -0.2078 -0.3430
30075W        W45206   0.262   0.221   3.171 -0.2834  0.0189  0.0213
30076W        W45207  14.326  15.728   0.064 -0.0613  0.0321  0.0433
30077W        W45208   9.812  13.238   2.897 -0.2307 -0.0090  0.2136
30078W        W45209   0.175  10.112  13.398  0.2760  0.0760  0.3108
30079W        W45210  12.337   9.451   4.667  0.0876  0.2286 -0.2110
30080W        W45211   4.587  18.033  11.213 -0.4297  0.4092 -0.3004
30081W        W45212   9.357   6.576  14.155 -0.1299 -0.0461 -0.1436
30082W        W45213  12.969  14.561   0.935 -0.0031  0.0593 -0.1332
30083W        W45214  12.536  14.161   5.456  0.0205 -0.1393  0.0731
30084W        W45215   5.700   5.299   4.624  0.0484 -0.0310  0.4388
30085W        W45216  18.073   2.389   3.325  0.1083 -0.0133  0.3155
30086W        W45217   9.556   4.150  12.378 -0.2164  0.0424  0.1912
30087W        W45218   3.063  12.592   3.266 -0.0972 -0.2460 -0.0055
30088W        W45219  11.325  16.687   4.272 -0.4969 -0.1162 -0.5781
30089W        W45220  12.617   9.203  14.520  0.0762  0.2651 -0.0486
30090W        W45221  11.734   1.808   2.644  0.3390 -0.2726  0.3316
30091W        W45222  13.299  12.211   3.647  0.2088  0.3784 -0.1197
30092W        W45223   7.210  14.788  13.854  0.3739 -0.2465 -0.1675
30093W        W45224  17.085  15.476   5.641  0.1815 -0.1763  0.2831
30094W        W45225  16.810   6.408   2.286  0.0643  0.0602 -0.0367
30095W        W45226   2.005   7.431  11.934 -0.3192 -0.2659 -0.1585
30096W        W45227   9.502   8.709  10.620 -0.0727  0.2128 -0.0989
30097W        W45228  13.819  14.346   1.075  0.3452  0.0666 -0.2782
30098W        W45229  15.230  17.514   3.483  0.3240  0.0281 -0.2996
30099W        W45230  17.347   2.511  14.672 -0.2783  0.1214  0.1855
30100W        W45231  14.274   8.032   3.490  0.1480 -0.2114  0.1666
30101W        W45232   1.517  10.424   0.234 -0.0486 -0.0058  0.2757
30102W        W45233  17.148  12.253   4.941 -0.0812  0.0161 -0.1606
30103W        W45234  11.001  12.847   1.098  0.1301  0.0020  0.1729
30104W        W45235  12.750  11.720   4.704 -0.1439  0.1357  0.2071
30105W        W45236   3.124  12.020  10.355 -0.1663  0.0328  0.1878
30106W        W45237  10.266   5.757  14.875 -0.1435 -0.1006 -0.0685
30107W        W45238   2.690  10.490  13.602  0.0174  0.0903  0.0267
30108W        W45239  16.291   4.908  14.888  0.0052 -0.1905  0.0157
30109W        W45240  14.418   0.528  10.941  0.1697  0.0883 -0.2480
30110W        W45241   0.690   0.363   3.478  0.0047  0.1203  0.3037
30111W        W45242   5.068   0.682   5.327 -0.1539 -0.1569 -0.1589
30112W        W45243  12.589   6.721  16.233  0.0708  0.0036 -0.2984
30113W        W45244   7.400   8.950  12.891 -0.3530 -0.0955  0.3273
30114W        W45245   4.358   5.636   1.049  0.0171  0.2161 -0.3452
30115W        W45246  16.120  11.035   3.396  0.0259 -0.2600  0.1971
30116W        W45247   4.376  11.645  11.024 -0.1541 -0.0447 -0.0018
30117W        W45248  15.999   8.633   4.436 -0.0174  0.0272 -0.1787
30118W        W45249   4.318   6.793  15.475  0.1252 -0.3787  0.1267
30119W        W45250  15.222  10.700  15.870 -0.2483  0.2528  0.1915
30120W        W45251   2.409  17.289   2.817  0.0360  0.1157 -0.1527
30121W        W45252  17.970   5.864   5.284  0.2503 -0.1446 -0.1998
30122W        W45253   7.947  12.735  14.274  0.2278 -0.2268  0.0739
30123W        W45254  11.771   2.055  10.658 -0.0818  0.1000 -0.1789
30124W        W45255  13.094   2.432   4.611 -0.1324 -0.0841 -0.0948
30125W        W45256   1.459   8.191  15.053  0.1218  0.0624 -0.0116
30126W        W45257  10.304   7.719   4.455  0.1616 -0.2082 -0.1861
30127W        W45258  10.369  17.452   0.738 -0.2973  0.1708 -0.1418
30128W        W45259   1.976  13.403  12.927 -0.0337 -0.2841 -0.2306
30129W        W45260  17.601  11.409  14.249 -0.0152 -0.3267  0.2833
30130W        W45261  14.612  14.962   0.305 -0.0156  0.1752  0.0940
30131W        W45262  16.825   3.569   3.705 -0.1172  0.2635 -0.0898
30132W        W45263   8.260   0.331  11.318 -0.0476  0.1643  0.0860
30133W        W45264  13.318   9.275   2.846  0.1533  0.2002  0.0576
30134W        W45265   4.797   9.673   1.497 -0.2982  0.0793  0.1519
30135W        W45266  12.868   5.344  12.261  0.1687  0.0034 -0.0148
30136W        W45267  14.257   8.839  11.277  0.0106 -0.1122 -0.1707
30137W        W45268   1.232  16.452   0.975 -0.0603 -0.0331  0.3501
30138W        W45269  15.985   8.191   0.520 -0.2059 -0.0528 -0.3288
30139W        W45270   9.355   8.724   3.887  0.0980 -0.1848 -0.0497
30140W        W45271   9.622   3.468   2.785 -0.2374  0.1163 -0.1185
30141W        W45272  15.354  16.054   0.275  0.2994 -0.4368 -0.2528
30142W        W45273   3.410   7.426  12.478 -0.1502 -0.2578  0.2262
30143W        W45274   7.075   6.387  16.030 -0.2289  0.3062 -0.1859
30144W        W45275  10.243  15.350   3.550 -0.0659  0.2920 -0.0786
30145W        W45276  16.313   1.860  12.945 -0.0799 -0.1615  0.0808
30146W        W45277  15.692  10.532  16.073  0.0558 -0.1681 -0.1281
30147W        W45278   4.626   9.322  13.191 -0.0311  0.1771 -0.2068
30148W        W45279  14.485   3.518  15.804 -0.1142  0.1265  0.5189
30149W        W45280   3.244   1.960  11.425  0.1266  0.1003 -0.1613
30150W        W45281  15.382  15.747  10.706  0.0771 -0.2765  0.1534
30151W        W45282  10.264  11.776   2.789 -0.0074 -0.3704  0.2078
30152W        W45283   0.844  15.225   1.143 -0.1940  0.4792  0.1298
30153W        W45284   8.206  17.372   2.410 -0.1515  0.4017  0.1910
30154W        W45285   4.869   2.934   6.066  0.3300 -0.0756  0.0437
30155W        W45286   3.844   0.551  16.055  0.1035  0.0805 -0.1407
30156W        W45287  10.178  14.449  14.411 -0.0126 -0.0216  0.1543
30157W        W45288   5.041   2.107  14.243 -0.4019  0.0762 -0.1830
30158W        W45289   8.459  15.584   2.450 -0.1787  0.2010 -0.0313
30159W        W45290  16.841   6.039   5.016  0.0314 -0.0438 -0.1135
30160W        W45291   1.614  10.601   5.360  0.1115  0.0889 -0.1026
30161W        W45292   6.583   1.220  15.554  0.2682  0.0611 -0.1036
30162W        W45293  12.114   6.803   3.881  0.1804 -0.0272 -0.1897
30163W        W45294   8.568   0.826   4.740 -0.2854 -0.0538  0.2696
30164W        W45295   8.930  11.469  11.327  0.2282 -0.1256  0.0711
30165W        W45296   1.282   3.799   3.190 -0.0603  0.1438  0.0379
30166W        W45297   7.400   4.626  12.117 -0.0560  0.0175  0.1467
30167W        W45298   0.669  17.778  13.794  0.1544  0.0509  0.1575
30168W        W45299  14.778   2.826  12.751  0.1348  0.1984 -0.3153
30169W        W45300   5.149  12.848   4.664 -0.0261 -0.0419 -0.1858
30170W        W45301   1.535  17.429  14.813  0.0150  0.2292 -0.0734
30171W        W45302   8.130   2.800   4.331 -0.2479  0.1219 -0.2309
30172W        W45303  16.019  11.209  11.937 -0.4941 -0.2704 -0.0024
30173W        W45304  12.659  11.670  16.118  0.0827  0.0833 -0.1588
30174W        W45305  13.228   1.038   3.571 -0.1799  0.2056  0.2214
30175W        W45306   6.603   9.602  15.866 -0.0624 -0.3100 -0.0515
30176W        W45307   4.167   0.130  13.266 -0.0717  0.1615 -0.4803
30177W        W45308  10.634   9.773  16.101  0.1191 -0.0698 -0.4746
30178W        W45309   5.476  12.476   0.339  0.1492  0.1354 -0.0154
30179W        W45310   7.687  15.874  15.336  0.1021  0.4006 -0.1389
30180W        W45311   8.557   2.617   3.156 -0.1870 -0.3743 -0.0983
30181W        W45312   0.333   3.977  12.806 -0.1514  0.0124 -0.1812
30182W        W45313  15.731  12.056  15.838 -0.1340 -0.1176 -0.1883
30183W        W45314  10.753   6.715  13.296  0.3180 -0.0313  0.2024
30184W        W45315   5.869   4.070  10.848  0.4943 -0.0825  0.0994
30185W        W45316   5.038   5.262   5.820  0.1011 -0.0994  0.0564
30186W        W45317  14.044  12.614   3.719 -0.2211 -0.1527  0.0547
30187W        W45318   7.592   5.962   4.289  0.0630 -0.0901  0.0331
30188W        W45319   5.179   6.407  15.204  0.5337 -0.2578  0.0166
30189W        W45320  17.597  14.156  14.421 -0.1899  0.1297 -0.0129
30190W        W45321  11.861  13.060  14.173 -0.0752 -0.3001 -0.1666
30191W        W45322  10.680  14.139   1.102 -0.1782 -0.2245 -0.0278
30192W        W45323   2.851  10.644   0.651  0.2468  0.3266  0.0664
30193W        W45324   6.903   3.524  11.719 -0.0994  0.1176 -0.1269
30194W        W45325  16.729  14.041  13.217  0.1605 -0.2940  0.1578
30195W        W45326  14.114   1.957  12.441 -0.0719  0.0765 -0.0875
30196W        W45327  12.306  15.546   1.717 -0.3369 -0.0479 -0.0245
30197W        W45328  11.844  11.629   4.157  0.0346  0.0887 -0.0296
30198W        W45329  13.790  16.441   0.141 -0.2262  0.0308  0.0766
30199W        W45330  14.352   6.750   2.148 -0.2105  0.3390  0.4722
30200W        W45331  14.160   8.771  13.006 -0.0218  0.1122  0.1377
30201W        W45332   6.044   4.940  12.062  0.0807 -0.1858 -0.4227
30202W        W45333   5.226   9.282   3.224 -0.0579  0.1983 -0.0338
30203W        W45334  14.832   2.489   1.513 -0.0457 -0.0047 -0.2575
30204W        W45335   3.500   6.272   2.810  0.3752  0.0005  0.0289
30205W        W45336  13.213   8.764  10.995 -0.0967 -0.2038 -0.3663
30206W        W45337  17.779  13.316   5.170  0.0526 -0.1431 -0.0161
30207W        W45338   4.908  16.997  14.784 -0.1889  0.0174 -0.1907
30208W        W45339   9.783   9.684   2.652  0.1391  0.2064  0.0337
30209W        W45340  12.770  14.982  12.233 -0.0440  0.0344  0.2383
30210W        W45341   9.742  14.222   4.762  0.2210  0.0196  0.0658
30211W        W45342  13.707   2.691   3.386  0.0086 -0.1511 -0.0283
30212W        W45343   2.283  16.800  12.009  0.0629  0.0695 -0.0614
30213W        W45344  11.580   3.924  13.778  0.1197 -0.0972 -0.1038
30214W        W45345  17.017  16.492  10.954 -0.0406 -0.4513  0.0566
30215W        W45346   9.406  12.671   4.076  0.0220  0.0395  0.5070
30216W        W45347   8.704   4.320   0.945  0.1173  0.1349  0.0765
30217W        W45348   2.504   1.169   0.077  0.0422  0.2125  0.0467
30218W        W45349  17.615  16.417   0.662 -0.3115 -0.2682  0.1266
30219W        W45350   8.593  10.949  11.979  0.0171  0.2337  0.1244
30220W        W45351   6.667  10.084   3.508 -0.0879  0.0851  0.2550
30221W        W45352   0.402   9.815   1.489  0.2727 -0.0376 -0.0159
30222W        W45353   9.018   0.705   4.491  0.1028 -0.0935 -0.0309
30223W        W45354  10.950  16.718  13.042 -0.0360 -0.3265 -0.0597
30224W        W45355   2.722  12.013  15.681  0.0759  0.2053 -0.0463
30225W        W45356  17.332   9.298  14.931  0.4461 -0.0177  0.1414
30226W        W45357  13.326  10.593  12.724 -0.1940  0.1881  0.0752
30227W        W45358   7.863   5.384  14.711  0.0807 -0.0033 -0.1792
30228W        W45359  11.862   0.954  13.471  0.1711 -0.1707  0.0919
30229W        W45360   4.476   3.641  16.048 -0.4124  0.2235 -0.1771
30230W        W45361   4.093   8.871  15.472 -0.0205  0.1405  0.0840
30231W        W45362  15.713   9.004  13.232 -0.1617 -0.3903  0.1545
30232W        W45363   0.481   9.148   3.043 -0.1332  0.3074 -0.0104
30233W        W45364   2.465   5.461   3.617  0.1730 -0.1895  0.0023
30234W        W45365   7.958  17.197   9.938  0.0526 -0.1245 -0.0081
30235W        W45366  10.359   0.427  11.063 -0.0922 -0.0174 -0.0756
30236W        W45367  11.211   9.857   0.836  0.2059 -0.0340 -0.3483
30237W        W45368   3.992  12.711  12.211  0.0222 -0.1099 -0.2338
30238W        W45369  17.165  14.964   4.780  0.1057 -0.0016 -0.0050
30239W        W45370   0.622   9.018   0.306  0.0663  0.0314 -0.1240
30240W        W45371  11.670   5.327  11.557  0.2601 -0.0842  0.1395
30241W        W45372  15.459  14.340  13.624  0.2439  0.2053  0.2159
30242W        W45373   2.705  11.334  11.396  0.0005  0.1315 -0.0672
30243W        W45374   8.198  10.943   1.777  0.0916  0.1350  0.2450
30244W        W45375  13.477   8.557   2.093 -0.0619  0.0197 -0.1053
30245W        W45376  13.902   2.524  12.620 -0.3052 -0.0694  0.0900
30246W        W45377  16.554   2.819   0.573  0.0715 -0.0730  0.1210
30247W        W45378  10.830  17.407   3.178  0.0180  0.1211 -0.1576
30248W        W45379   4.493  17.380  12.194 -0.0089 -0.3237 -0.4209
30249W        W45380   1.451   6.300   3.633 -0.0866  0.1600  0.1443
30250W        W45381  13.256   2.249  13.612  0.0283 -0.1900  0.1693
30251W        W45382  14.599   5.195  11.542 -0.0050 -0.0559 -0.0942
30252W        W45383   2.472   7.172   1.926 -0.1430  0.2921  0.0100
30253W        W45384  14.574   9.592   2.745 -0.2760 -0.3073  0.0521
30254W        W45385   4.756   8.534  13.048 -0.0891 -0.6171 -0.1933
30255W        W45386   7.869  16.427  13.681 -0.1609  0.0928 -0.3561
30256W        W45387   4.600  12.345   2.808  0.2687 -0.0097  0.0016
30257W        W45388  17.209   0.952  12.331 -0.0383 -0.1084  0.4348
30258W        W45389  11.208   4.285   4.241  0.3781  0.1178 -0.1329
30259W        W45390  17.669   8.665   4.499  0.0037  0.1143  0.3499
30260W        W45391  17.566  16.381  12.566  0.0470 -0.0825  0.2438
30261W        W45392  16.748   3.370   2.210 -0.0719 -0.0253 -0.0086
30262W        W45393   2.174  14.745   3.850 -0.0867 -0.0739  0.3872
30263W        W45394   8.315  16.990   5.136  0.2134  0.5763  0.2025
30264W        W45395  10.599  11.884   4.503 -0.1066  0.0303  0.2625
30265W        W45396   2.583  14.854   4.421 -0.2469  0.1029 -0.0449
30266W        W45397   4.849  17.126   2.680 -0.2566  0.1742  0.0206
30267W        W45398  10.054   8.910  11.724 -0.0451  0.2136 -0.3732
30268W        W45399  17.953  14.970  15.360 -0.0978  0.0390 -0.3605
30269W        W45400   9.902  16.159  10.739 -0.0801  0.1769  0.1282
30270W        W45401   1.055   3.889  11.590 -0.0499  0.2140 -0.1371
30271W        W45402   4.422  12.210   3.358 -0.0522 -0.0568 -0.3191
30272W        W45403  14.686   1.768   0.279  0.1393 -0.0807  0.0416
30273W        W45404   9.152   8.580  14.627 -0.2582  0.3049  0.0278
30274W        W45405  11.275   6.268   3.776 -0.1968 -0.2126  0.1232
30275W        W45406   4.296   5.148  14.239 -0.1382 -0.2059 -0.3152
30276W        W45407  17.715  11.502   3.507 -0.2658 -0.2089  0.1361
30277W        W45408  11.884  11.876  12.196  0.0044  0.1091 -0.2976
30278W        W45409  17.886   7.573  15.394 -0.0511 -0.2312 -0.1129
30279W        W45410   9.867  16.232   1.776 -0.1769 -0.0454  0.2211
30280W        W45411  16.602  15.455   2.574 -0.3347  0.0180 -0.0344
30281W        W45412   3.763  12.928   3.960 -0.1833 -0.5324 -0.0564
30282W        W45413   9.345   5.764   4.689 -0.1273 -0.0642 -0.0578
30283W        W45414   5.105   2.180   2.630 -0.2685  0.0498 -0.1260
30284W        W45415  14.291  11.915   6.181  0.0512 -0.0229  0.1550
30285W        W45416  13.343  12.208   1.928  0.0708  0.0502 -0.2469
30286W        W45417  17.039   2.881   9.594 -0.0119  0.0717 -0.3278
30287W        W45418  16.791   6.171  12.434  0.1855 -0.0897 -0.3479
30288W        W45419   0.635  16.126   3.817 -0.0694 -0.0478  0.1782
30289W        W45420   2.332  15.666  14.615 -0.2580  0.1807  0.0101
30290W        W45421   9.909   2.179  14.566  0.2290  0.0140  0.1156
30291W        W45422  17.924   0.786   1.826 -0.1115 -0.1626 -0.0284
30292W        W45423  11.430  15.191   0.048  0.0606  0.3181  0.0113
30293W        W45424  15.187  12.128  10.973 -0.1054  0.0389  0.0788
30294W        W45425  11.787  10.436   1.040 -0.3005  0.0657  0.1623
30295W        W45426  13.045  15.034   2.667 -0.0612  0.0734 -0.1662
30296W        W45427  18.099  12.135  14.656 -0.0157  0.0180  0.1927
30297W        W45428   1.431   6.423  11.507  0.3234  0.0087  0.2344
30298W        W45429  15.105   2.435   1.928 -0.0031  0.1036  0.1728
30299W        W45430   4.553   0.110  13.574  0.0872 -0.1241  0.1464
30300W        W45431   5.141  17.092  10.006  0.1929  0.2357  0.3371
30301W        W45432  12.699   5.295   1.655  0.0353 -0.1469  0.1024
30302W        W45433   4.010  14.177  11.749 -0.0729 -0.0609 -0.1466
30303W        W45434  14.791  16.352   1.814  0.1095  0.0575  0.0886
30304W        W45435   4.169  17.911   1.408  0.0935  0.0051  0.3305
30305W        W45436   2.478  16.614   2.974  0.0007 -0.2191  0.1031
30306W        W45437   1.202   6.672  15.238 -0.2910 -0.1330 -0.1207
30307W        W45438   1.904  13.250  13.443  0.1187  0.2128  0.3112
30308W        W45439  13.093  17.005  11.039 -0.0973  0.0837 -0.0394
30309W        W45440   4.705  17.500   0.232  0.0970  0.0846  0.0355
30310W        W45441  16.118  16.981   3.426  0.0632 -0.2291  0.1270
30311W        W45442   7.098   6.308  10.966  0.2765  0.2020  0.0706
30312W        W45443   6.491  14.321   4.211 -0.0657  0.1423 -0.3266
30313W        W45444   4.491  10.113  10.648  0.2178  0.0694  0.1640
30314W        W45445  17.100  14.242  12.370 -0.1442  0.0290 -0.0556
30315W        W45446  13.206   2.844   4.873  0.1662 -0.2595 -0.2058
30316W        W45447  12.829  11.814  12.295 -0.0812 -0.2807 -0.1778
30317W        W45448  17.428   1.703  15.676  0.1370 -0.0371  0.0984
30318W        W45449   3.612   0.441   3.770  0.1368  0.1025  0.1465
30319W        W45450   8.020   9.642   1.640  0.0121 -0.4767 -0.3042
30320W        W45451   0.013  14.038  12.687 -0.1512 -0.0544 -0.2301
30321W        W45452  17.791  10.040  13.021 -0.0142 -0.0825 -0.1843
30322W        W45453  13.366  11.347   4.069  0.5523  0.1849 -0.0036
30323W        W45454  12.241  13.272  11.086  0.0639 -0.0719 -0.3451
30324W        W45455  17.190   7.153  12.131 -0.1420  0.0786 -0.0041
30325W        W45456  14.167   6.232   3.047  0.1524  0.0534 -0.1840
30326W        W45457  12.081   0.625  15.126 -0.2013  0.0599 -0.0408
30327W        W45458   3.698   0.119   3.294  0.0770 -0.0926  0.0793
30328W        W45459   2.002  11.767   4.451 -0.2733  0.2982 -0.2281
30329W        W45460  12.809   9.355  11.391 -0.3688  0.1603  0.2024
30330W        W45461   7.676   0.481   0.088  0.0119  0.0077  0.0194
30331W        W45462  11.783   5.672  11.266 -0.1305 -0.0811  0.1206
30332W        W45463   3.667   0.724  10.954  0.0774 -0.2522  0.1261
30333W        W45464  16.146  17.140   1.218  0.1203  0.1628 -0.1138
30334W        W45465   8.305  11.040   5.853 -0.0921  0.0357  0.0938
30335W        W45466   2.947   2.732   3.520  0.0495  0.0203  0.2412
30336W        W45467  17.988  14.438  15.391  0.1603 -0.0929 -0.2737
30337W        W45468  15.001   6.475  13.784 -0.1743  0.2163  0.0306
30338W        W45469   3.502  11.285  10.932  0.0112 -0.1888  0.0253
30339W        W45470   6.602  17.694  13.902 -0.0151 -0.1671 -0.0701
30340W        W45471   6.421   3.775  12.446  0.0994  0.1840  0.2564
30341W        W45472  15.608  17.139  16.227 -0.0097 -0.1313 -0.3318
30342W        W45473   0.497   5.224  14.995  0.0553 -0.2488  0.0382
30343W        W45474  17.018   9.613   1.814 -0.1873  0.0864  0.0361
30344W        W45475  15.662   9.748   0.566 -0.1529 -0.0138  0.1753
30345W        W45476  12.200   6.956  13.543  0.1166 -0.0451  0.0923
30346W        W45477  14.396  14.362   0.956  0.1527  0.0421  0.2017
30347W        W45478  15.857   8.297  11.844  0.0298 -0.0009 -0.1388
30348W        W45479   0.330   6.717  14.200 -0.2860  0.1986  0.1611
30349W        W45480   8.314   8.461  16.117  0.0185  0.1819  0.0656
30350W        W45481  10.001  14.615  12.972 -0.3807  0.0029 -0.0176
30351W        W45482  12.454   9.626  15.772 -0.2303 -0.2609 -0.2483
30352W        W45483  11.405   9.597  12.524  0.0562 -0.1085  0.0986
30353W        W45484   3.593  16.906  12.277  0.1965  0.1365  0.1253
30354W        W45485  12.274  11.739   3.455 -0.2097  0.1000 -0.0125
30355W        W45486  17.855  17.458   3.576 -0.1603 -0.0471  0.1062
30356W        W45487   5.347   0.653   1.213 -0.1269 -0.0593  0.2000
30357W        W45488  12.086   8.446  15.543 -0.0031 -0.1055  0.0895
30358W        W45489   3.202   8.747  16.063 -0.0476 -0.1277 -0.0093
30359W        W45490  15.288  18.067   1.496  0.0408  0.3186 -0.4079
30360W        W45491   1.669  10.274   0.723 -0.0225  0.1020 -0.2073
30361W        W45492  14.275   0.286  12.956  0.0460 -0.0966  0.0274
30362W        W45493   1.611  12.459   1.385 -0.0411  0.2195 -0.1316
30363W        W45494  10.809  15.555  13.900  0.0052 -0.0408  0.0187
30364W        W45495  13.179  12.137  14.270 -0.1247 -0.0357  0.0510
30365W        W45496   2.441   5.064  11.482  0.1172 -0.1703  0.1754
30366W        W45497   7.415  14.066   4.995  0.1091  0.2450 -0.2098
30367W        W45498  12.376  12.463  13.770 -0.0410 -0.2366 -0.2801
30368W        W45499   9.701   2.804   0.430  0.1784 -0.0195 -0.3238
30369W        W45500   4.782   0.977  11.563  0.0423  0.1486  0.2156
30370W        W45501  11.417   9.493   0.409 -0.0541  0.0388 -0.0777
30371W        W45502   2.061   8.677  11.341 -0.2100 -0.0697 -0.2038
30372W        W45503   3.605  15.708  11.595 -0.0177  0.1276 -0.0380
30373W        W45504  11.476   6.288   2.160 -0.0391  0.2187 -0.1641
30374W        W45505  14.833   6.114   4.604 -0.1721  0.2251  0.1754
30375W        W45506   8.781   5.578   4.742 -0.1704 -0.0411 -0.0441
30376W        W45507   5.993  12.809   0.396 -0.1221 -0.1442 -0.0738
30377W        W45508  12.080   7.447  15.588 -0.0602 -0.0599  0.0474
30378W        W45509   0.692   5.774  14.231 -0.0823 -0.1514 -0.0894
30379W        W45510   2.656   0.935  15.633  0.0211  0.2115 -0.0079
30380W        W45511  17.894   4.039  10.287 -0.1052  0.1250 -0.0427
30381W        W45512  15.217   3.337   1.581 -0.2711 -0.0082 -0.0115
30382W        W45513   6.569  16.038  13.892  0.2136  0.1938  0.2464
30383W        W45514  17.884   2.304   1.871  0.1036  0.1623  0.0192
30384W        W45515   6.014   7.696   2.399 -0.0606 -0.0006  0.0079
30385W        W45516   4.082  17.727   2.645  0.1695 -0.1446 -0.0325
30386W        W45517  16.739   7.828  16.050 -0.0124 -0.0899  0.0897
30387W        W45518   6.433   1.568   2.286  0.2871  0.0851 -0.0974
30388W        W45519  11.321  14.068   3.298  0.4465 -0.0245  0.4640
30389W        W45520  17.575   5.732   0.774  0.1169 -0.0199  0.3822
30390W        W45521   2.052   4.910   2.583 -0.0167 -0.2847 -0.3500
30391W        W45522   2.299   2.125  13.342  0.0195 -0.0365 -0.0534
30392W        W45523   0.493  10.448  13.181  0.0056  0.0553  0.0519
30393W        W45524  16.016   6.691  14.613  0.1257  0.0387  0.2559
30394W        W45525   1.406   5.066   6.419  0.1158 -0.1360  0.2402
30395W        W45526  15.980  18.001  12.767  0.2831  0.0299 -0.2618
30396W        W45527  14.880   3.583   0.041 -0.1796 -0.1944 -0.0860
30397W        W45528  16.262  14.555  14.706  0.0110  0.0140  0.1825
30398W        W45529  15.313  10.192   2.328 -0.1369 -0.1116  0.0639
30399W        W45530  17.815   7.349  12.404 -0.0459  0.2316  0.0367
30400W        W45531   8.472   2.869  15.583 -0.3818  0.0037 -0.1246
30401W        W45532  14.172  15.319  10.814  0.2515  0.0065 -0.1611
30402W        W45533  12.990   4.183  14.484 -0.3298  0.0077  0.2437
30403W        W45534  16.124  16.848   4.961 -0.1697  0.2405 -0.1484
30404W        W45535  10.745   6.562   0.567 -0.2024  0.0925 -0.4937
30405W        W45536  14.638   8.925  12.073 -0.0061  0.1210 -0.0259
30406W        W45537  16.601   3.898   0.789 -0.1420  0.1433 -0.0878
30407W        W45538   6.959  16.158  10.674  0.1882  0.1510  0.0793
30408W        W45539   4.444   3.569  15.467 -0.1181 -0.1449  0.0727
30409W        W45540  15.665  18.053   2.388  0.1533  0.3396 -0.0842
30410W        W45541   3.260   7.862  12.608  0.0557 -0.1357 -0.0366
30411W        W45542  11.913  11.969  15.056 -0.2487  0.0341 -0.3216
30412W        W45543  15.129   0.442   5.443  0.2087 -0.0174  0.2405
30413W        W45544  16.522   6.538  13.846 -0.1548 -0.0449  0.0584
30414W        W45545   4.451   5.496   0.471  0.0062  0.0048  0.1299
30415W        W45546   1.319   7.567  13.609  0.0317  0.0993 -0.0206
30416W        W45547   1.567   4.038  11.372  0.1774  0.0457 -0.1132
30417W        W45548  17.080  11.668   2.647  0.1626 -0.0229  0.2823
30418W        W45549  13.302  17.122  12.731  0.2785  0.0416  0.1142
30419W        W45550   2.822  13.303   0.605  0.3643 -0.0038 -0.1539
30420W        W45551   0.453   2.077   1.049 -0.4492  0.0294 -0.1324
30421W        W45552   5.355  15.853  15.403 -0.0811  0.0911  0.0309
30422W        W45553  13.937  16.225   4.615 -0.1060  0.2016 -0.1003
30423W        W45554  15.527  16.249  13.575  0.0570  0.1932  0.0602
30424W        W45555  13.011   5.559   5.229  0.1193  0.1682 -0.2203
30425W        W45556  13.637  16.456   3.008  0.2631  0.0701 -0.1200
30426W        W45557  12.483  17.641   5.378  0.0892  0.2852 -0.2827
30427W        W45558  16.631   5.200   5.228 -0.1040 -0.1584 -0.0348
30428W        W45559   7.627   9.496   5.361 -0.2669  0.0052 -0.1285
30429W        W45560   9.425   9.695   3.891 -0.2834 -0.2026  0.0800
30430W        W45561   8.028   6.812   4.984 -0.1868 -0.1033  0.0857
30431W        W45562  16.272  12.223  12.851  0.1557 -0.1669  0.0771
30432W        W45563   8.390   4.534   4.489  0.4689  0.0313 -0.0833
30433W        W45564   4.183   2.299  15.447  0.0020 -0.0134  0.3449
30434W        W45565   3.607  13.399  11.180 -0.2634 -0.2841  0.0061
30435W        W45566  13.451   5.059   1.802 -0.0615  0.0257  0.0669
30436W        W45567   7.171   4.708   3.696 -0.0218  0.2175 -0.1038
30437W        W45568   1.892  12.416  14.053  0.1239  0.0240 -0.0572
30438W        W45569  12.378   5.663  15.104  0.2108 -0.1460 -0.0116
30439W        W45570   0.136  14.420   1.430 -0.3931 -0.0659 -0.0175
30440W        W45571  14.135   5.252   4.497 -0.1126  0.0387 -0.2666
30441W        W45572   2.314  13.341  10.925 -0.2420  0.1098  0.2145
30442W        W45573   9.936   0.223   3.135 -0.1489 -0.0837 -0.2324
30443W        W45574  15.379  15.894   5.575  0.2338  0.1518  0.0036
30444W        W45575  17.554  10.218  12.180  0.2705 -0.2125  0.1429
30445W        W45576  15.935   7.480  14.939 -0.0834 -0.2458 -0.0885
30446W        W45577  13.140  10.158  10.375 -0.0044 -0.1697 -0.4170
30447W        W45578  16.466  16.055   3.128  0.2332 -0.0475 -0.0192
30448W        W45579   3.643  15.285   5.160 -0.2564 -0.1436 -0.1599
30449W        W45580  11.110   7.217  14.611 -0.1287 -0.1036  0.1809
30450W        W45581   8.782  11.635   1.570 -0.1119  0.0997 -0.1336
30451W        W45582   8.826   3.823  12.194  0.1356 -0.1309  0.1477
30452W        W45583  10.338   6.304   1.932 -0.0001  0.0946  0.1095
30453W        W45584   1.979   4.569   0.390 -0.1317 -0.0918 -0.0196
30454W        W45585   9.965  14.954   3.331 -0.0455 -0.2785  0.0953
30455W        W45586  16.087  17.088  15.446 -0.0132  0.1320 -0.3963
30456W        W45587  12.393   5.336   2.038 -0.2282 -0.2360 -0.1203
30457W        W45588   6.167   6.074   5.070  0.0351 -0.1298  0.1965
30458W        W45589  12.517   6.354  11.439  0.1021 -0.0908  0.2158
30459W        W45590   6.405   5.971  11.819  0.2762 -0.1940  0.4430
30460W        W45591   0.676  16.414  15.249  0.0708 -0.1016  0.0497
30461W        W45592  16.505   5.256  13.538  0.0023  0.1275 -0.0010
30462W        W45593  11.115   9.103   0.275 -0.1906 -0.1575  0.1172
30463W        W45594  14.204  15.036  13.319  0.0958  0.0139  0.0833
30464W        W45595  11.126  14.644   0.528  0.1893 -0.0494  0.2288
30465W        W45596   5.902   9.431  15.095  0.1570 -0.0170  0.0957
30466W        W45597   5.745   2.516  13.181 -0.0596 -0.2028 -0.2340
30467W        W45598   7.417  13.166  16.219 -0.3082 -0.1104 -0.0162
30468W        W45599  14.277   0.355   1.166 -0.0721 -0.0140  0.0294
30469W        W45600   5.478  11.853  12.546 -0.2788 -0.1935  0.1048
30470W        W45601   2.293   1.661  14.373  0.2296  0.3580  0.0951
30471W        W45602   8.462  14.857   0.470  0.0654 -0.0131 -0.3239
30472W        W45603  10.077   2.732   1.346 -0.1052  0.0748  0.2114
30473W        W45604   9.768   5.290  10.432  0.2553 -0.1118  0.1331
30474W        W45605   5.025   1.361   5.623 -0.0823  0.2772  0.0331
30475W        W45606  11.830  11.881  15.570  0.2762 -0.0733 -0.0939
30476W        W45607   8.575  15.158  12.552 -0.0627 -0.0957 -0.1487
30477W        W45608   9.593  14.618  12.215  0.0779  0.0922 -0.2852
30478W        W45609  17.896   8.779  15.930  0.0869 -0.0792  0.4156
30479W        W45610  14.707  17.807   4.273 -0.1558 -0.2162  0.1837
30480W        W45611   7.312   5.081  12.508  0.0369  0.0232  0.5109
30481W        W45612   6.442  11.179  11.376  0.0246  0.2870 -0.0775
30482W        W45613  16.693   1.939   3.315  0.0651 -0.1410 -0.0945
30483W        W45614   3.626   4.200  11.677  0.2551 -0.1300 -0.1228
30484W        W45615   1.276   1.810   5.452 -0.1433 -0.0273 -0.0549
30485W        W45616   9.114   4.334   1.166  0.2007  0.3314  0.1268
30486W        W45617   2.083   9.661  14.249  0.0005  0.1917 -0.2001
30487W        W45618   9.140  15.474   4.865 -0.1834  0.0872  0.1701
30488W        W45619  15.385   5.907  15.147 -0.2455 -0.0988  0.0830
30489W        W45620  11.621   6.111   3.322 -0.2900  0.2666  0.0417
30490W        W45621  10.787  14.182  12.636 -0.0866  0.1129  0.2990
30491W        W45622  16.687  14.073  12.059  0.0343  0.1665 -0.1257
30492W        W45623  16.441   6.639  11.754  0.2635  0.1111  0.1095
30493W        W45624  13.023  16.578   0.223  0.1482  0.1487  0.1216
30494W        W45625   6.670  14.306   1.473 -0.1331  0.1859  0.2217
30495W        W45626   6.742   6.649   0.194 -0.0647  0.3395 -0.1311
30496W        W45627  14.967   1.421   0.044  0.2072  0.2516  0.1771
30497W        W45628   1.409   9.064  14.020 -0.1235  0.2479 -0.0821
30498W        W45629  16.454   0.853  13.503 -0.0625 -0.3496  0.0474
30499W        W45630   2.515  11.024  13.318  0.1658 -0.2677  0.4008
30500W        W45631  16.730   8.261   4.254  0.0021  0.0997 -0.0083
30501W        W45632   2.382   8.525   0.027 -0.3023  0.0814 -0.0018
30502W        W45633  11.984   2.870   5.114  0.0415 -0.1367  0.2065
30503W        W45634   8.104  13.569  13.905 -0.0343  0.1324 -0.3041
30504W        W45635  17.003  13.165  12.635  0.0743 -0.1375  0.1389
30505W        W45636   4.014  11.602   2.513  0.0502 -0.3558  0.0650
30506W        W45637   4.356   3.737   0.726 -0.2156 -0.0184  0.2264
30507W        W45638  15.696  12.318  12.444 -0.0649  0.2212 -0.3362
30508W        W45639   4.295   7.017  12.189  0.0033 -0.2215 -0.0259
30509W        W45640  12.751   2.614   4.970 -0.1893 -0.2599 -0.0288
30510W        W45641  10.979   4.407  11.318 -0.2523 -0.1994  0.0674
30511W        W45642   4.152  12.086   2.771 -0.1191  0.0528  0.2135
30512W        W45643   8.713   3.631  12.630  0.0212  0.1334  0.0651
30513W        W45644  11.180   3.908  11.369  0.2452 -0.2218  0.1912
30514W        W45645   4.829  14.270   5.093 -0.0052 -0.1000 -0.1135
30515W        W45646  10.195  15.119   1.912  0.1878 -0.0497 -0.3260
30516W        W45647   8.877   8.850   2.413 -0.0188 -0.0205 -0.1079
30517W        W45648   9.705  14.841  13.302 -0.1749 -0.1270  0.1557
30518W        W45649  15.124   9.710   2.233 -0.2402  0.0276  0.1938
30519W        W45650  10.071  13.443  14.563  0.1430  0.3484  0.0520
30520W        W45651  11.435   1.846  10.962 -0.1307  0.2255 -0.0981
30521W        W45652  16.421   6.078   4.744 -0.0636  0.0925  0.0776
30522W        W45653  11.075   8.135  15.703  0.0331  0.0278  0.2118
30523W        W45654   1.791   9.680   2.911  0.1300 -0.1537  0.0121
30524W        W45655  10.131  11.830  11.657  0.0047 -0.1322 -0.0289
30525W        W45656   4.394   3.146   4.882 -0.0630  0.0159  0.2567
30526W        W45657   3.000   4.489  14.841  0.0353 -0.1545  0.2169
30527W        W45658   7.801  15.733   4.235  0.0239  0.1718 -0.3682
30528W        W45659   7.486   9.152   0.738 -0.0020 -0.0477  0.1933
30529W        W45660  12.521   1.755  12.153 -0.2882  0.0265  0.2885
30530W        W45661   5.922  15.930  10.441 -0.1739 -0.0701 -0.2329
30531W        W45662  12.072   8.940   4.487 -0.1197  0.2053  0.1580
30532W        W45663   7.756   4.794   2.462 -0.0234 -0.1611  0.1867
30533W        W45664   9.871   7.889  14.899 -0.3946  0.0264 -0.2160
30534W        W45665  10.743  10.771   5.224  0.1445 -0.1647  0.2186
30535W        W45666   2.952   2.523   0.332 -0.1950 -0.1501  0.0930
30536W        W45667   3.463   1.448   1.684  0.1554  0.0842  0.0791
30537W        W45668   5.337   1.880   3.839  0.1074 -0.1720  0.1731
30538W        W45669   8.855  17.472   3.986  0.2490  0.0555 -0.1192
30539W        W45670   1.404  14.141  14.541  0.0741 -0.1643 -0.1827
30540W        W45671   4.045   0.005   5.992  0.1557 -0.0235 -0.1863
30541W        W45672   9.918  11.023  13.753  0.1176 -0.0052 -0.0742
30542W        W45673   0.202   4.581  11.247  0.1846  0.0763 -0.0564
30543W        W45674  18.024  12.377   2.726 -0.3812 -0.0917 -0.0151
30544W        W45675   5.568  15.202   4.727  0.3005  0.0540 -0.1411
30545W        W45676  15.240  13.268  12.952 -0.2781  0.2539  0.1195
30546W        W45677  14.268  10.317  11.262 -0.0615 -0.0031 -0.0091
30547W        W45678  16.294   5.076   3.857 -0.0997  0.1572  0.0043
30548W        W45679   8.721   1.100   0.390  0.1625 -0.0256  0.1335
30549W        W45680  14.235  16.301   0.288 -0.2897  0.1779  0.2418
30550W        W45681  11.223   0.111  14.638  0.1656 -0.2314 -0.2902
30551W        W45682  12.778   3.588  13.827  0.0206 -0.2263 -0.0717
30552W        W45683   3.372   3.652   1.662  0.2289  0.5785 -0.0456
30553W        W45684  15.352   7.734   0.619 -0.1828  0.1729 -0.3273
30554W        W45685  10.254  14.694   0.545 -0.0399  0.0154 -0.1400
30555W        W45686   0.755   0.969  15.198 -0.0587 -0.0056  0.1181
30556W        W45687  16.290   0.947  15.414 -0.1837 -0.3199 -0.1589
30557W        W45688  14.180   4.865   2.388  0.3586 -0.1844 -0.1201
30558W        W45689   6.378  16.120   2.004 -0.0660 -0.1919  0.1172
30559W        W45690   5.289  14.446   0.160  0.0338 -0.1023 -0.2799
30560W        W45691  14.044   3.275   1.338 -0.0440 -0.0209 -0.1543
30561W        W45692  11.068  16.649   0.020  0.1101 -0.0692 -0.1559
30562W        W45693   5.767   0.943  12.327 -0.2124  0.1419  0.1585
30563W        W45694   7.035  16.155  11.553 -0.0261  0.1093  0.2232
30564W        W45695   3.602  17.952   2.468 -0.1748  0.1191  0.1958
30565W        W45696  17.423   8.173  12.971  0.3214  0.0913 -0.0661
30566W        W45697  13.937   5.408   3.364 -0.2260 -0.1258 -0.1318
30567W        W45698   3.192   0.991   3.003 -0.0148 -0.0886 -0.1089
30568W        W45699  11.566   1.365  15.262 -0.3682  0.0760 -0.1095
30569W        W45700   8.690   1.142   1.531  0.2557  0.0554  0.4215
30570W        W45701  13.302  11.874   4.040 -0.0764  0.3947 -0.1564
30571W        W45702   2.904   0.719   3.400  0.1059  0.0374  0.0145
30572W        W45703  10.436  10.725  12.000 -0.2944  0.0493 -0.0036
30573W        W45704  14.321  16.313  14.638 -0.1326  0.1638  0.1434
30574W        W45705   1.767  13.079  12.121  0.0416  0.3197 -0.2197
30575W        W45706   7.380   3.370  12.516 -0.1552  0.3125 -0.0810
30576W        W45707   9.488   0.578   2.190  0.3018  0.4254 -0.1811
30577W        W45708  13.516  13.869   1.027  0.0417  0.1270  0.0698
30578W        W45709  14.487  14.137  15.158  0.0200  0.1838  0.0608
30579W        W45710   8.441  11.827  12.222 -0.5972  0.3424  0.1102
30580W        W45711   4.043   8.452  13.350  0.1907  0.4448 -0.0084
30581W        W45712  12.474  18.068   0.415 -0.0097 -0.3484 -0.0169
30582W        W45713  11.341   3.785   4.479  0.1129  0.3832 -0.0179
30583W        W45714  17.144  11.678  13.697  0.3246  0.0257 -0.2168
30584W        W45715   7.061  10.056  13.905  0.2302 -0.1676 -0.1119
30585W        W45716   2.629   0.470   2.468 -0.0880  0.0091  0.2463
30586W        W45717  17.993  14.522  11.641 -0.1501  0.2340  0.0395
30587W        W45718   8.950  17.864   2.550  0.2862 -0.0585 -0.3639
30588W        W45719  14.408   8.942   1.465  0.0412 -0.1697 -0.0979
30589W        W45720   7.830  15.012  14.826  0.4388  0.1762  0.4858
30590W        W45721  16.626  12.211  13.757  0.0528 -0.1299 -0.0843
30591W        W45722   9.068  17.035  14.495  0.3298  0.0322 -0.2118
30592W        W45723   5.642  16.765  15.859  0.1722  0.0607  0.3351
30593W        W45724   3.615   8.721   2.840 -0.1236 -0.1138  0.3215
30594W        W45725   1.419   0.244  12.188  0.2767 -0.2256 -0.0030
30595W        W45726   6.602  15.702   0.365 -0.0874  0.2432  0.1023
30596W        W45727  17.695   7.583   5.197  0.0468 -0.0628  0.2335
30597W        W45728   1.222   1.158   3.077 -0.3309 -0.2836 -0.2734
30598W        W45729   0.752   3.655  11.910 -0.1145  0.1570 -0.1776
30599W        W45730  12.673   7.810  13.779 -0.3314  0.1801 -0.0504
30600W        W45731  10.794   3.786   4.711  0.0035 -0.0707  0.1797
30601W        W45732  13.685  12.010   0.909  0.0206 -0.1215  0.0702
30602W        W45733   1.403   7.951  15.468 -0.2047  0.0662  0.0441
30603W        W45734   7.791  16.921  15.139  0.0866 -0.0185  0.1064
30604W        W45735   8.756  11.926   2.521 -0.0828  0.1505  0.1675
30605W        W45736  15.359   4.881   0.781 -0.0367 -0.0583 -0.1237
30606W        W45737   4.342   0.462   3.715  0.4114 -0.1606 -0.1309
30607W        W45738   8.666   2.253   1.364 -0.1089  0.0908  0.1927
30608W        W45739  15.201   7.699   1.154  0.1774 -0.1679  0.0748
30609W        W45740  10.940  14.792  13.447 -0.0177 -0.0052  0.1010
30610W        W45741   9.368   1.441  14.680 -0.2417 -0.0995  0.3608
30611W        W45742  16.652  13.073  13.019  0.1243  0.2806  0.0157
30612W        W45743   9.891  12.372  13.928  0.0147  0.0770 -0.2432
30613W        W45744  13.971   8.499  12.589  0.2992  0.0876 -0.3047
30614W        W45745   3.759   6.937  12.390 -0.1683  0.1273 -0.1726
30615W        W45746   2.527  11.973   3.333  0.2597 -0.0594 -0.2530
30616W        W45747  14.033   4.405  11.926  0.0495 -0.1120 -0.1304
30617W        W45748   5.423  13.271  12.654 -0.2868  0.0280  0.0934
30618W        W45749   6.645  14.853   5.113  0.1423  0.1149  0.1225
30619W        W45750  11.215  13.715   6.014  0.1258 -0.1399  0.1429
30620W        W45751   7.352   1.644   2.152 -0.0352  0.3035  0.0489
30621W        W45752   6.222  11.049   6.043 -0.2950  0.3188 -0.2574
30622W        W45753   7.352  12.132   1.426  0.1591  0.0692 -0.2009
30623W        W45754   8.417  12.209   1.685  0.1733  0.0964  0.1672
30624W        W45755  12.675  10.595   2.682 -0.0952 -0.0125 -0.0387
30625W        W45756  16.870   4.666   0.702 -0.1747 -0.1450 -0.0420
30626W        W45757   3.375  12.530  15.545  0.0564 -0.0388  0.2335
30627W        W45758   2.018  17.789   3.547  0.1619 -0.2860  0.0555
30628W        W45759  17.247   4.963   4.065  0.1861  0.0068 -0.1736
30629W        W45760  17.846   0.134  14.354 -0.1136  0.0081 -0.1725
30630W        W45761  10.864  16.331  13.353  0.0605 -0.2479 -0.2665
30631W        W45762   2.958  14.934   3.174 -0.2446  0.1438  0.0752
30632W        W45763   1.547   0.118   2.232  0.3583 -0.2739 -0.0783
30633W        W45764   5.920  17.797   3.304  0.0811 -0.0796 -0.2901
30634W        W45765   3.979   5.266  15.631 -0.2422 -0.3155 -0.1588
30635W        W45766  14.734   3.160   0.397 -0.0808 -0.0248 -0.3096
30636W        W45767   2.435  13.748   1.708 -0.1784 -0.0026 -0.1704
30637W        W45768   0.557  13.530   4.304 -0.0218 -0.2462 -0.4154
30638W        W45769   7.576  17.997   5.183  0.1278 -0.1676 -0.1546
30639W        W45770   2.818   4.260  11.347 -0.1172 -0.0669 -0.1742
30640W        W45771   8.612   6.879   3.762 -0.0142  0.1798 -0.1325
30641W        W45772  14.083  10.256   5.256  0.1738 -0.1361  0.0490
30642W        W45773  17.343   7.350  13.289  0.1241 -0.0477  0.0545
30643W        W45774  16.481  14.284   6.040 -0.1832 -0.1463 -0.2898
30644W        W45775   4.087   5.174   0.907 -0.1433  0.0689 -0.0381
30645W        W45776   9.803  10.479   5.602 -0.0987 -0.3114 -0.0660
30646W        W45777   8.520   9.044   2.827  0.3518 -0.1582 -0.1827
30647W        W45778  15.459   6.727   3.240 -0.1655 -0.0414  0.0038
30648W        W45779  12.967   5.918  15.728 -0.0466  0.2058  0.4350
30649W        W45780  16.414  11.591   0.739  0.0614  0.0962 -0.0757
30650W        W45781  17.177   1.866  16.129 -0.1092 -0.0651  0.0393
30651W        W45782  11.522   2.146   2.986  0.1084  0.1105  0.3154
30652W        W45783   2.289  16.888   3.784 -0.1649 -0.0797 -0.0359
30653W        W45784   3.354   5.485   4.592  0.0710  0.0022  0.0865
30654W        W45785  12.792   2.947  16.016 -0.1462  0.5509 -0.0810
30655W        W45786  10.566   5.122   1.122 -0.0520  0.1660  0.0726
30656W        W45787   9.903  12.216   0.601  0.0805  0.1060  0.0979
30657W        W45788  15.204   7.014  14.550  0.2683 -0.2045  0.0021
30658W        W45789   7.224   7.656   5.909 -0.2208  0.0109  0.1182
30659W        W45790  15.256  11.912   2.058  0.1605 -0.0842 -0.2223
30660W        W45791   4.653   2.270  10.636 -0.1794  0.2181  0.1558
30661W        W45792   7.896  12.194  11.684 -0.1077  0.1450  0.2322
30662W        W45793  10.075  12.931  13.908  0.2321  0.0756  0.2170
30663W        W45794  13.122   2.024  15.950  0.1539 -0.0350  0.7023
30664W        W45795  13.252   1.905   0.194  0.2014 -0.2521  0.0614
30665W        W45796  14.363   2.651   1.584 -0.1020  0.0159  0.1138
30666W        W45797   0.957  12.267  14.338 -0.1115 -0.3555  0.1373
30667W        W45798  14.558   2.594   4.562 -0.0152 -0.1281  0.1255
30668W        W45799  14.485   3.349   2.768  0.0273 -0.0167  0.1105
30669W        W45800   7.421   0.515   3.061  0.0010  0.1269 -0.0407
30670W        W45801  17.816  10.806  13.395  0.0087 -0.0029 -0.0654
30671W        W45802   5.514  12.270  13.190  0.0648  0.3536 -0.0003
30672W        W45803  15.377   5.421  15.603 -0.1423 -0.1533 -0.1369
30673W        W45804  12.286   5.502  11.396 -0.0307  0.1776 -0.2258
30674W        W45805  14.075   3.835  12.754 -0.0465  0.0686  0.0178
30675W        W45806   1.171  12.652  13.109 -0.2051 -0.1403  0.0598
30676W        W45807   9.506  11.118  13.458 -0.0229 -0.2141  0.3592
30677W        W45808   1.348  17.021   4.110  0.2236 -0.2158 -0.0819
30678W        W45809  16.251   2.094  15.544 -0.1172 -0.0851 -0.1655
30679W        W45810  11.479   7.600  14.321 -0.1954 -0.0881 -0.0364
30680W        W45811  12.507   6.697   4.787  0.1060  0.0630  0.0785
30681W        W45812  17.240   5.530  12.881 -0.3896  0.0923  0.1456
30682W        W45813  13.782   5.424  16.051  0.0099  0.1781 -0.0503
30683W        W45814   3.647  14.979  13.897 -0.1044 -0.0217  0.2057
30684W        W45815   6.058  13.310  11.996  0.0788  0.0565 -0.0871
30685W        W45816   3.581  10.685   5.387  0.1092  0.1582  0.0922
30686W        W45817   5.071  16.324   4.506  0.0151 -0.1662 -0.2519
30687W        W45818   1.332   4.607  14.236 -0.1510 -0.2448 -0.2301
30688W        W45819   9.715   4.000  15.070  0.0144 -0.0602  0.0034
30689W        W45820   0.439  15.516  15.540 -0.0003  0.0891 -0.3139
30690W        W45821  12.691  16.228  10.110  0.0254 -0.0373 -0.0024
30691W        W45822  14.403   0.678  13.279  0.2043  0.2559  0.1667
30692W        W45823  15.147  12.518  16.235 -0.2322  0.5831  0.0060
30693W        W45824  13.556   5.165   5.043  0.2331  0.2819  0.1452
30694W        W45825  12.893  16.779  15.639 -0.0015  0.1491 -0.2310
30695W        W45826   6.548   8.238  10.128  0.2347  0.1928 -0.3174
30696W        W45827   3.331  15.230  12.234 -0.2093 -0.2908  0.0517
30697W        W45828  15.997   6.830  15.452 -0.0753 -0.2788  0.3198
30698W        W45829   3.462   6.327  11.240  0.1709  0.2207  0.1980
30699W        W45830   7.878   7.687   4.755  0.0012  0.3768  0.4335
30700W        W45831   2.733   1.536  10.737  0.0470  0.0819  0.2058
30701W        W45832   6.866  12.663  14.210  0.0295  0.0910  0.0818
30702W        W45833   3.700   8.702  11.095  0.1129  0.1860 -0.1386
30703W        W45834  11.695   2.346   3.430 -0.0542  0.0464 -0.0290
30704W        W45835  10.622   0.845   3.063  0.1028 -0.1455  0.2582
30705W        W45836   2.776  15.223  16.230  0.3904 -0.3339 -0.1460
30706W        W45837   4.413   1.157   1.745  0.2442 -0.0862  0.0243
30707W        W45838  13.835   4.378   0.935 -0.3219 -0.0796  0.1063
30708W        W45839  12.242   4.542  14.212  0.2666  0.1462 -0.0543
30709W        W45840   3.690   2.387   4.996  0.1719 -0.0288  0.1291
30710W        W45841   8.948   0.661   2.205  0.2058 -0.2621  0.0756
30711W        W45842  16.031   4.128   3.383 -0.0387 -0.0334  0.0959
30712W        W45843   7.318  17.042  12.873  0.0067 -0.2524  0.1936
30713W        W45844   3.662   5.883   2.047  0.1985  0.2463 -0.1934
30714W        W45845   0.622   0.757   3.729 -0.1238  0.0358 -0.1638
30715W        W45846  10.222  16.776   3.641 -0.2526 -0.0571  0.0850
30716W        W45847  13.661   4.043   2.614  0.1398 -0.0727  0.3916
30717W        W45848  10.673  17.683  14.868  0.0004 -0.0334  0.0627
30718W        W45849   0.015  13.013   2.706 -0.1673 -0.4153  0.1102
30719W        W45850  16.202   9.237  12.995  0.1138  0.0110  0.0924
30720W        W45851   2.780  15.593   4.322 -0.1284 -0.1495  0.0984
30721W        W45852   8.916   5.521  14.001  0.1920 -0.1197  0.2843
30722W        W45853  17.855   7.334   4.380 -0.1227  0.1235  0.2772
30723W        W45854   7.532  15.406   1.800 -0.0672 -0.1440  0.0676
30724W        W45855   7.632  17.353  14.882 -0.1737 -0.1297 -0.0018
30725W        W45856   9.460  17.704   5.166 -0.1142 -0.1942  0.1951
30726W        W45857  15.300  15.389   3.814 -0.2015 -0.0351  0.1997
30727W        W45858   9.074   4.777   2.642  0.1317  0.0425  0.0530
30728W        W45859   0.293   8.678   2.957  0.1735 -0.3083  0.0852
30729W        W45860  15.836   1.893  13.295 -0.1048 -0.0271 -0.0583
30730W        W45861  15.389   0.793  11.987  0.1052  0.0896  0.2650
30731W        W45862   2.217   7.273   3.324  0.2814 -0.1074  0.0827
30732W        W45863   9.312  13.977   4.882  0.0329  0.2741 -0.0770
30733W        W45864   5.700   9.910   5.361  0.2153  0.2570  0.1264
30734W        W45865  15.646   4.583   1.709  0.3369 -0.2918 -0.1559
30735W        W45866  17.160   4.793  15.497 -0.2804 -0.0432 -0.0800
30736W        W45867   1.849   3.167  15.423  0.0074  0.0642 -0.1197
30737W        W45868   9.081   3.428   3.182 -0.0121  0.0530  0.1758
30738W        W45869   3.387   1.467  12.618 -0.0032  0.0389  0.0791
30739W        W45870   3.052  12.545   2.011 -0.1312 -0.0449 -0.2240
30740W        W45871   3.399   7.938   6.485  0.2076 -0.0272 -0.0872
30741W        W45872  12.282   3.685   2.178 -0.2202 -0.4162 -0.2345
30742W        W45873  15.393  17.611  13.921 -0.0235  0.3055 -0.0463
30743W        W45874  11.340   0.003   2.097 -0.0450  0.2024 -0.1012
30744W        W45875   6.423  12.618   3.739  0.0377  0.0121  0.1077
30745W        W45876   3.766   9.932   1.381 -0.0460  0.0095  0.0307
30746W        W45877  12.774  14.544   2.618 -0.0348  0.4758  0.0611
30747W        W45878   1.374   4.995   1.140 -0.1689  0.0723 -0.0640
30748W        W45879   4.392   3.216  12.159  0.1590  0.1465  0.0528
30749W        W45880   4.006   5.629   0.650 -0.0978  0.0730  0.2579
30750W        W45881   5.627  15.650   2.094  0.0097 -0.2633 -0.3732
30751W        W45882   2.373  14.402  14.284  0.0248 -0.1738  0.4564
30752W        W45883   7.488   3.310  10.888 -0.4516  0.0467  0.0161
30753W        W45884  13.327   0.976   5.891  0.1103 -0.0131  0.1124
30754W        W45885   1.706  12.681   0.447  0.0092  0.1982  0.5191
30755W        W45886   4.334  14.442  14.052  0.0105  0.3079  0.2359
30756W        W45887  10.264  15.871  11.085 -0.3160  0.2973  0.2779
30757W        W45888   5.669   5.170  13.497 -0.1304  0.1348  0.1286
30758W        W45889  15.769  14.076  12.606 -0.2176 -0.0548  0.0579
30759W        W45890   6.518  12.060   4.565  0.0906 -0.3004  0.1437
30760W        W45891  16.510  16.656   1.833  0.0023 -0.0739  0.1070
30761W        W45892   7.804   7.035  15.784 -0.0242 -0.2287  0.1166
30762W        W45893  16.856  12.026  11.124 -0.1256 -0.0810  0.1088
30763W        W45894  16.480   6.867   2.438 -0.1658 -0.0921  0.1763
30764W        W45895   2.890   8.158   3.520 -0.0124 -0.2326 -0.2053
30765W        W45896  13.437   9.997  15.543  0.1882  0.0818  0.0055
30766W        W45897  17.462  10.973   2.124  0.0242 -0.1286  0.1994
30767W        W45898   5.580   9.596  12.270 -0.0328  0.2686  0.2259
30768W        W45899  16.302   7.772   0.387  0.1539 -0.0952  0.2269
30769W        W45900   4.088  12.239  12.223  0.0734  0.0087  0.3002
30770W        W45901  14.164  15.768   0.521 -0.0395 -0.0376 -0.0275
30771W        W45902  17.405   9.131  15.466  0.3170  0.1924 -0.1499
30772W        W45903  10.230   8.445  12.421  0.2156  0.0252  0.1491
30773W        W45904  12.029  17.674   1.057  0.0674  0.0974 -0.0164
30774W        W45905   4.552  14.699   3.132 -0.0339  0.0330  0.2694
30775W        W45906   2.564   6.518   0.471  0.2953 -0.1624  0.5538
30776W        W45907   9.410   8.723   0.613  0.1681 -0.2020 -0.0498
30777W        W45908  12.900  10.677  11.923  0.2308  0.1159 -0.1455
30778W        W45909   7.161   0.405  13.620  0.2595 -0.0465  0.0105
30779W        W45910  11.567  13.487   3.856 -0.0281  0.0017  0.0172
30780W        W45911  16.165   2.748  12.230 -0.0717  0.1164  0.0420
30781W        W45912   4.254  16.834  10.310  0.0330 -0.1647  0.0051
30782W        W45913   2.558   0.622   1.228  0.0402 -0.1530 -0.3702
30783W        W45914   0.076   4.156   4.542  0.1142  0.1031  0.2716
30784W        W45915   0.989  13.851  10.762 -0.0675  0.0964 -0.1192
30785W        W45916  10.826   9.121   3.999 -0.1096  0.1870  0.2178
30786W        W45917   5.233  11.940  15.763  0.1438 -0.1926  0.0656
30787W        W45918   4.864  17.015   0.122 -0.2644 -0.2034  0.0861
30788W        W45919   2.843  13.879  10.421 -0.0985 -0.0713 -0.0132
30789W        W45920   3.551   5.916  13.324  0.0951  0.2229 -0.1513
30790W        W45921   5.525  16.791  11.393 -0.2103  0.0849  0.1504
30791W        W45922  13.759   6.944  13.793  0.1009 -0.0601  0.1015
30792W        W45923  11.982  11.217   4.904  0.1918  0.3297 -0.0734
30793W        W45924  12.194  11.316  13.084 -0.0222 -0.1843  0.0633
30794W        W45925  14.873   1.467  15.697  0.2340 -0.0716 -0.0082
30795W        W45926  13.389   6.601  13.663 -0.2248 -0.0235  0.1422
30796W        W45927   3.423  13.148  15.592  0.1825  0.0033 -0.2337
30797W        W45928  12.152  11.822  13.034  0.1167 -0.0551  0.0387
30798W        W45929   2.906   3.149  11.762 -0.0784 -0.2369 -0.4035
30799W        W45930  10.729  16.860  14.043 -0.1439 -0.2952  0.0026
30800W        W45931  13.341   9.972   0.546 -0.0805  0.1948 -0.0142
30801W        W45932   2.097  12.181   5.641 -0.2308 -0.0872 -0.2876
30802W        W45933  18.101  13.177   4.046 -0.0158 -0.1465  0.1057
30803W        W45934  15.223  15.698   2.777 -0.2663 -0.0374  0.1214
30804W        W45935  12.686   4.280  15.106 -0.1767  0.1446  0.1228
30805W        W45936   3.568  13.832  13.862  0.0826 -0.1036  0.0751
30806W        W45937  12.697   9.500   0.853 -0.1508 -0.0695  0.0921
30807W        W45938  11.575   5.561  14.548 -0.1543 -0.3628  0.0696
30808W        W45939   2.773   9.167   1.791  0.3282  0.0143 -0.3099
30809W        W45940   9.779  17.499   6.113  0.3451 -0.3027 -0.0105
30810W        W45941  13.866   5.409   1.892  0.4493  0.3120  0.0189
30811W        W45942  16.446   7.880  11.155 -0.1167 -0.1565 -0.1698
30812W        W45943   4.069   3.536   2.372 -0.2579 -0.1832 -0.2444
30813W        W45944  12.504  17.459  12.121  0.0722  0.1846 -0.1245
30814W        W45945  14.312   6.437  11.758  0.0762  0.0144 -0.0703
30815W        W45946  16.246  13.762  14.666  0.0348 -0.0584 -0.2110
30816W        W45947   7.086  10.423  12.477 -0.0844 -0.0888  0.0276
30817W        W45948  14.659   1.353   5.118  0.2447  0.0508  0.1995
30818W        W45949  11.820   8.757   3.481  0.0507  0.1136 -0.1437
30819W        W45950   2.346  10.786  11.537 -0.1098  0.0303  0.2646
30820W        W45951   2.829   1.618  11.268 -0.4884 -0.0102 -0.1128
30821W        W45952   4.374   9.216  13.624  0.0088 -0.2780 -0.1647
30822W        W45953  16.222   5.960  15.754 -0.1626  0.1485 -0.0387
30823W        W45954   0.164  16.899  13.963 -0.1754  0.0700 -0.0335
30824W        W45955   0.478  12.945   4.086  0.0932 -0.3896  0.0268
30825W        W45956  13.919   5.569  13.424  0.1991  0.0444 -0.0653
30826W        W45957  18.017  13.965   3.210  0.0596  0.2318 -0.0225
30827W        W45958  10.685  12.350  13.904  0.1800  0.0662  0.4175
30828W        W45959   2.884   1.197   3.596  0.2308  0.1972  0.4472
30829W        W45960   4.694   8.133  12.328 -0.1351  0.0962 -0.0438
30830W        W45961   7.637   0.379   3.536  0.2067 -0.0997 -0.0218
30831W        W45962   9.580   7.252  12.998 -0.1019 -0.0281 -0.1630
30832W        W45963   2.152   8.108   6.335 -0.0754 -0.1082 -0.1229
30833W        W45964  16.047  12.054   3.482 -0.1917 -0.2481 -0.2771
30834W        W45965  15.441   7.183  15.745 -0.1243 -0.1184 -0.1030
30835W        W45966   1.993  17.163   4.763 -0.2596  0.2321  0.0189
30836W        W45967  14.214   2.516  12.997  0.3210  0.1168 -0.0423
30837W        W45968  17.650  13.867   1.112  0.1902  0.1705 -0.2650
30838W        W45969  17.264   7.754   3.228 -0.2103  0.0894 -0.0500
30839W        W45970   9.787  18.000   1.088 -0.1164  0.0561  0.1360
30840W        W45971   3.967  15.887   3.622 -0.1758  0.1249  0.0349
30841W        W45972   2.634   8.080   4.417 -0.0677 -0.0038 -0.1441
30842W        W45973  14.535  14.795  16.016  0.1179 -0.0719  0.1202
30843W        W45974  11.755   7.808  11.805  0.2143  0.0045 -0.0061
30844W        W45975   8.215   9.082  11.862 -0.0670  0.0288 -0.2374
30845W        W45976   5.904   9.652  12.758 -0.2175 -0.3082 -0.1678
30846W        W45977  13.075   4.949  12.584  0.1435  0.1547  0.2575
30847W        W45978   4.125  11.595  12.102 -0.0218 -0.4118  0.0164
30848W        W45979   8.325  15.865  11.761 -0.2297  0.0123 -0.0889
30849W        W45980  16.739   1.118  15.121 -0.2174 -0.0864 -0.0328
30850W        W45981   2.127   7.523   1.049  0.0566 -0.0565  0.0350
30851W        W45982  15.351   6.812  12.451 -0.3698  0.1591 -0.2219
30852W        W45983   2.930   4.873   4.041 -0.1608  0.2687  0.1238
30853W        W45984   1.181  15.897  14.285  0.2613  0.0606 -0.1760
30854W        W45985   4.596  10.367  15.641 -0.1108  0.1609  0.0605
30855W        W45986   8.184   3.603  10.109 -0.0451 -0.0354 -0.0528
30856W        W45987  10.873   8.939  12.241  0.1660  0.2186 -0.0356
30857W        W45988   7.468  13.308   4.416 -0.1856 -0.0681 -0.0002
30858W        W45989  17.767   7.113   5.983 -0.1419  0.0030  0.0674
30859W        W45990   1.162   9.200   2.251 -0.0260 -0.0564 -0.0295
30860W        W45991   9.323   5.126   1.792  0.1111 -0.0932 -0.2012
30861W        W45992   5.681  13.190   5.755 -0.4129  0.3141 -0.3690
30862W        W45993   8.238   6.853   2.529 -0.0994 -0.0951  0.1073
30863W        W45994   6.106  13.581  13.620 -0.1014  0.0620  0.0291
30864W        W45995  11.650   0.335  13.809  0.0972  0.1562 -0.1774
30865W        W45996   4.706   4.619   0.959  0.2537  0.0845  0.1093
30866W        W45997   9.920  10.257   4.313 -0.1526 -0.0111 -0.1324
30867W        W45998   1.762  14.296   1.076 -0.0922 -0.0067 -0.2920
30868W        W45999  12.925   1.853  11.835 -0.1940  0.2230 -0.1556
30869W        W46000   9.629   0.564   5.013 -0.2121  0.0960  0.0064
30870W        W46001   0.727  11.616  14.722  0.1477  0.0414 -0.0092
30871W        W46002   4.390  14.095  16.063  0.0727  0.1442 -0.1709
30872W        W46003   5.366  17.876  11.676 -0.0963 -0.0458 -0.0707
30873W        W46004   2.767  13.122  10.909  0.0106 -0.0100  0.2198
30874W        W46005   9.564  14.990  11.835 -0.1522 -0.1259  0.0459
30875W        W46006   6.735   9.547   2.597 -0.0539 -0.0614 -0.0332
30876W        W46007  17.130   9.884  15.048 -0.5996 -0.3019  0.2213
30877W        W46008   3.989  14.708  11.643  0.1718  0.0078  0.5160
30878W        W46009   9.637  15.697  10.416 -0.1755 -0.0102  0.0299
30879W        W46010   6.056  12.321  10.631 -0.1713 -0.0269 -0.1212
30880W        W46011   0.323  15.381  11.486  0.0562 -0.0873  0.1611
30881W        W46012  10.029  15.695  12.986 -0.1428 -0.2225 -0.2465
30882W        W46013   1.198   2.395  10.439  0.0360 -0.1844  0.1624
30883W        W46014   2.706   6.104  11.030  0.1963  0.2382  0.3287
30884W        W46015  14.885   5.630   2.950  0.0038 -0.1999  0.0951
30885W        W46016   9.680   0.583  12.264 -0.1360  0.2105 -0.0000
30886W        W46017   7.266  15.906  15.625  0.0578 -0.0531 -0.0710
30887W        W46018  11.980   3.613  11.283 -0.1599  0.0255 -0.1754
30888W        W46019   8.946   4.359   3.773  0.2408 -0.2479 -0.1030
30889W        W46020   7.740   7.480  14.364  0.2059  0.3631 -0.0271
30890W        W46021  10.156  18.032  15.091 -0.1465  0.0526  0.0222
30891W        W46022  16.527  12.655  12.562  0.2376 -0.1707  0.0165
30892W        W46023   7.899  10.968   1.016 -0.0505  0.1442  0.1024
30893W        W46024  12.969  15.906   2.234  0.0299 -0.0269 -0.0940
30894W        W46025   4.976  14.666   4.152  0.2539 -0.1576  0.0803
30895W        W46026   0.287   3.295  12.090 -0.1364 -0.0638 -0.2370
30896W        W46027  15.575   9.462  14.576  0.0183  0.1439 -0.1171
30897W        W46028   2.025   4.861  15.030  0.0692  0.0281 -0.0320
30898W        W46029   6.611   5.966   3.376 -0.0422 -0.1126  0.0546
30899W        W46030  16.958   0.403  13.386 -0.0444 -0.0313  0.0410
30900W        W46031  13.250  10.336  11.681  0.2927  0.0721  0.1969
30901W        W46032  14.478  11.368   1.870 -0.0769  0.1440  0.0135
30902W        W46033   9.525   7.072   3.811  0.0518 -0.2361  0.0747
30903W        W46034   3.499   2.039  11.901  0.2708  0.0188 -0.1109
30904W        W46035   4.863   5.393  12.410 -0.2980 -0.0651 -0.0907
30905W        W46036   2.452   5.911   4.321 -0.1087 -0.1612  0.1162
30906W        W46037   2.463  18.039   5.092 -0.0138  0.3468  0.3133
30907W        W46038  17.937  13.647   4.813  0.2258  0.0795  0.1422
30908W        W46039   5.428  14.787  11.723 -0.2185  0.0527 -0.1060
30909W        W46040  16.599   7.626   3.039 -0.1095 -0.1412  0.2241
30910W        W46041   3.820   3.304  14.885  0.1865  0.0478  0.2148
30911W        W46042  15.326   9.421  13.150 -0.2086 -0.0683 -0.1066
30912W        W46043  11.085   0.426   5.574  0.1485 -0.1132  0.1293
30913W        W46044   2.845   3.631  15.970  0.1844  0.1365  0.0201
30914W        W46045   7.479   5.381  15.009  0.0344  0.0825  0.1166
30915W        W46046   8.181  17.835   2.313 -0.0043 -0.1579  0.0836
30916W        W46047   4.330   3.267  14.046 -0.2136  0.1348  0.0067
30917W        W46048  13.367  12.991   4.572  0.1666 -0.0915 -0.0842
30918W        W46049   2.532   7.082  14.805  0.0570  0.0866 -0.1238
30919W        W46050  16.113  10.787  16.007  0.0367 -0.1141 -0.0669
30920W        W46051   2.183   1.385  12.019  0.2811  0.0871  0.1857
30921W        W46052   4.948  15.983   1.021 -0.1148  0.0766  0.0900
30922W        W46053   9.051   8.733  13.343 -0.1138  0.2940  0.2282
30923W        W46054   4.355   7.202  14.719  0.1637  0.0585 -0.0344
30924W        W46055  11.164   4.939  14.831  0.2561  0.2076  0.2249
30925W        W46056   6.616   3.296   0.608  0.0921 -0.1221 -0.4025
30926W        W46057  14.335   1.803  14.768 -0.1640 -0.1230  0.0100
30927W        W46058  16.968   5.321  12.053 -0.0980 -0.0263  0.1370
30928W        W46059   2.739  17.354   4.840  0.0227  0.0047  0.0925
30929W        W46060   2.891  17.955  13.264  0.2400  0.1669 -0.1847
30930W        W46061  14.944   3.235   2.929 -0.1348 -0.2601  0.0628
30931W        W46062   6.553  11.983  13.907 -0.1771  0.1662  0.0192
30932W        W46063  12.894   1.757  13.848 -0.1299  0.2032  0.0495
30933W        W46064   8.310   0.469  10.828 -0.3339 -0.0151  0.5417
30934W        W46065  14.985  11.304  13.076  0.0676 -0.0620 -0.1642
30935W        W46066   8.309   5.098   4.157 -0.0081 -0.3978 -0.0497
30936W        W46067  13.465   3.804   3.179 -0.0137 -0.0027  0.0291
30937W        W46068   8.450  10.703  11.047  0.1797  0.3101  0.2710
30938W        W46069   4.146   4.666  14.119  0.1676 -0.0133 -0.2469
30939W        W46070  16.828  11.948  13.362 -0.0809  0.2908  0.1240
30940W        W46071   5.147   7.447  13.950  0.0131 -0.1374 -0.1505
30941W        W46072   6.896   0.961  12.983 -0.0070 -0.3061 -0.0629
30942W        W46073   0.348   6.008   2.230 -0.0495 -0.2784  0.0011
30943W        W46074   1.182  14.750   2.365  0.2205  0.2725 -0.1143
30944W        W46075  14.016  17.027   2.902  0.3076  0.0512 -0.1745
30945W        W46076  10.602   3.023  15.822  0.1524 -0.3366 -0.0195
30946W        W46077  11.159   7.906  16.158  0.1203 -0.0568 -0.3182
30947W        W46078  13.930   7.346  15.252  0.0432  0.0917 -0.1080
30948W        W46079   6.080  11.282   1.535 -0.1827 -0.4140 -0.2697
30949W        W46080  17.503  12.429   2.374 -0.2193 -0.0132  0.2300
30950W        W46081   4.229   5.982   1.400  0.3457 -0.0642 -0.0035
30951W        W46082   4.606   5.397   5.538  0.0873  0.0127  0.1943
30952W        W46083   5.188  11.545   3.879  0.1719 -0.1188 -0.1668
30953W        W46084   9.128  17.449   4.916 -0.2127 -0.2279  0.0649
30954W        W46085   1.245   9.728  15.350 -0.0510  0.0007 -0.0906
30955W        W46086  11.888   9.314   3.496  0.0393  0.2428 -0.0482
30956W        W46087   5.109  17.395  13.884  0.0935 -0.0289 -0.0773
30957W        W46088  14.966   8.818  14.608 -0.0865 -0.2953 -0.1560
30958W        W46089  16.846   1.574   9.683 -0.0399  0.0515 -0.0076
30959W        W46090  17.579   5.955  13.589  0.0671  0.2012 -0.0597
30960W        W46091  16.307   6.380   2.230 -0.0307 -0.0939  0.2498
30961W        W46092  15.118  17.489   2.998  0.0281  0.0538 -0.0109
30962W        W46093   1.638   6.240   2.863 -0.1668  0.0192 -0.0579
30963W        W46094   0.502   3.293   2.775  0.0463  0.5347  0.1960
30964W        W46095  11.810   7.899   3.115  0.1509 -0.2521 -0.2350
30965W        W46096  12.682   9.749   4.857  0.0723 -0.2838 -0.2145
30966W        W46097  17.490   5.951  14.469 -0.1979 -0.0962  0.0376
30967W        W46098   1.625  15.881   2.380  0.3140 -0.2035 -0.1562
30968W        W46099   5.626  12.579   2.975  0.2684 -0.1024  0.1993
30969W        W46100   8.257   1.955  13.793  0.0516 -0.2631 -0.1856
30970W        W46101   9.341   2.840   0.022  0.2066 -0.2340  0.2140
30971W        W46102   2.003  11.945  14.699  0.0737  0.2123 -0.0452
30972W        W46103  16.808   5.787  12.810  0.3077 -0.2458  0.2084
30973W        W46104  12.370   0.014  14.777  0.2252 -0.2088  0.0502
30974W        W46105   1.950  14.513   0.142  0.1175  0.0280  0.1566
30975W        W46106   7.460  10.829  15.981 -0.0546 -0.0311 -0.1354
30976W        W46107   2.044   7.321   0.020  0.1120  0.0867 -0.1410
30977W        W46108   0.005   6.228  14.986  0.1037 -0.2236 -0.1946
30978W        W46109  12.974  13.460   2.830 -0.1427 -0.3247  0.2119
30979W        W46110  16.331  10.250  15.083 -0.2989  0.2054 -0.0418
30980W        W46111   5.008   1.483  13.757  0.1050  0.0333  0.0040
30981W        W46112  10.930   4.754   3.223  0.2511 -0.1588 -0.2430
30982W        W46113   4.291   3.267  15.060 -0.1838  0.2178 -0.1152
30983W        W46114   8.731  14.647   6.156  0.2204 -0.1093 -0.1539
30984W        W46115   9.042  17.927  13.272 -0.0949  0.1774 -0.0032
30985W        W46116  15.633   2.651  14.594  0.0699 -0.1151  0.0885
30986W        W46117  13.375   6.675  11.445 -0.3526 -0.1488 -0.1067
30987W        W46118   3.301   3.402   2.984 -0.0954 -0.4370 -0.0122
30988W        W46119   3.407   1.655   2.139  0.0252 -0.0559  0.1525
30989W        W46120  11.908  17.068  16.171  0.1382 -0.0006  0.2884
30990W        W46121  13.787   0.393  12.614 -0.1695 -0.1346  0.1366
30991W        W46122   0.066   1.971  13.776 -0.3518  0.0443  0.1334
30992W        W46123   4.192   5.302  16.160 -0.0161  0.0212 -0.0779
30993W        W46124  10.368  14.014  16.005  0.0065  0.1864  0.1759
30994W        W46125   4.310  11.177  12.256 -0.2389  0.0371 -0.2983
30995W        W46126   3.184   5.836   3.825 -0.2179  0.0301 -0.0732
30996W        W46127  10.626   5.258   0.254 -0.1271 -0.2879  0.0104
30997W        W46128  14.941  16.892  11.754  0.0633 -0.2676 -0.3910
30998W        W46129   6.703  14.574  15.303  0.0222 -0.1106  0.1609
30999W        W46130  11.515  12.271   5.286 -0.2308 -0.1092  0.0527
31000W        W46131  13.366   6.201   1.505 -0.2236  0.0776  0.2198
31001W        W46132   1.555   4.591   3.359 -0.1947 -0.0344 -0.2189
31002W        W46133   4.063  11.467  11.406 -0.1145 -0.2912 -0.1373
31003W        W46134   0.295  17.417   1.920 -0.0532 -0.3405  0.1604
31004W        W46135  17.926  10.442  14.662 -0.0523  0.1591 -0.0203
31005W        W46136   3.748  16.885  15.718  0.0396  0.0624  0.0721
31006W        W46137   0.998   3.153   1.463 -0.1734 -0.1156  0.2467
31007W        W46138   7.702   8.050  13.792  0.0238 -0.2127 -0.0076
31008W        W46139   9.870  12.038  12.368  0.1703 -0.0386  0.3102
31009W        W46140   5.323  17.854   2.962 -0.1196 -0.1104  0.3664
31010W        W46141   3.136  16.921  14.081 -0.3203 -0.1691  0.1272
31011W        W46142  16.303   2.343   3.104 -0.1393  0.0237  0.0010
31012W        W46143  11.591  12.521   0.345  0.3375 -0.0790  0.2796
31013W        W46144   7.838  16.079   3.837  0.1745  0.0125 -0.2301
31014W        W46145   0.439   5.415  11.294 -0.4174  0.0924  0.2702
31015W        W46146  15.619   4.210  14.527  0.0875 -0.2072  0.2332
31016W        W46147  16.022   8.211  12.870  0.1181  0.2629  0.0819
31017W        W46148   2.586   4.487   0.946 -0.1527 -0.1148 -0.1150
31018W        W46149   2.986  16.374   5.344  0.0615 -0.1328 -0.4182
31019W        W46150   8.019  15.608  13.121  0.2820  0.2383  0.1975
31020W        W46151   4.454   4.932  13.650  0.1349 -0.3930 -0.3295
31021W        W46152   7.762  18.027   2.087  0.2675  0.2101 -0.1257
31022W        W46153   9.523  14.245  15.817  0.0648 -0.2766 -0.3062
31023W        W46154  12.280  16.543   3.733 -0.0183 -0.0806 -0.0428
31024W        W46155   8.381   5.332   4.921  0.1253 -0.3554  0.1137
31025W        W46156  17.440  10.321  14.692 -0.0866  0.0599 -0.2461
31026W        W46157  17.314   2.562  11.466 -0.0760 -0.5752  0.0954
31027W        W46158  11.386   1.348  11.112  0.0047  0.2345  0.0568
31028W        W46159  16.274  10.628   6.283 -0.0024  0.1117  0.2412
31029W        W46160  14.302  14.797   1.358 -0.0555  0.1542  0.2231
31030W        W46161  11.953   7.904  15.441 -0.0365  0.2524  0.0116
31031W        W46162   5.421   1.050   1.582 -0.0995 -0.0087 -0.1215
31032W        W46163   4.806  13.624  13.658 -0.0540 -0.3692  0.0111
31033W        W46164   3.928   7.157   5.571 -0.2734 -0.2317 -0.0792
31034W        W46165  14.570  11.890  15.087  0.1094 -0.0218 -0.3649
31035W        W46166   9.176  15.953   1.943  0.2377 -0.0545 -0.0604
31036W        W46167  12.271   7.509   5.686  0.1058  0.0316 -0.0369
31037W        W46168  11.587  14.174  12.141 -0.1236  0.0647 -0.1299
31038W        W46169  12.669   8.950   3.361 -0.1720 -0.2569  0.1484
31039W        W46170   2.217   5.081   1.209  0.1263  0.1646 -0.3398
31040W        W46171  12.906   4.038   2.406  0.0403 -0.0796 -0.1886
31041W        W46172   7.223  14.426   6.151 -0.2519 -0.0924 -0.2896
31042W        W46173   3.866   6.693   1.922 -0.2742 -0.1231  0.2693
31043W        W46174   7.856   0.819   3.345  0.0312  0.0819  0.5468
31044W        W46175   1.634  15.530   2.002  0.0141 -0.0558 -0.0131
31045W        W46176   9.304  17.420  14.844 -0.0291 -0.1104  0.0462
31046W        W46177  10.382   1.624   1.541 -0.2561 -0.1789 -0.0961
31047W        W46178  11.225   5.028   3.640  0.0640 -0.0025  0.1187
31048W        W46179   1.593  17.184   0.642  0.1468  0.1153 -0.0939
31049W        W46180  12.922   8.396   5.003  0.0800  0.1952 -0.1450
31050W        W46181  12.473   3.441   5.528  0.2195 -0.0005 -0.1699
31051W        W46182   5.253  14.022  11.176 -0.0461 -0.1503  0.2898
31052W        W46183   2.156   5.620   1.320  0.1432  0.2300 -0.1014
31053W        W46184  16.931   7.936  14.377 -0.1194  0.2852  0.0614
31054W        W46185  15.513   2.513  11.164 -0.1504 -0.0335  0.0115
31055W        W46186   9.288  17.316   1.800 -0.2330 -0.2809 -0.0104
31056W        W46187  11.115  13.452  13.375  0.0586 -0.0430 -0.0311
31057W        W46188   3.279   3.965  13.067 -0.1134  0.2889 -0.3100
31058W        W46189  16.264  17.328  13.832 -0.0123  0.0581  0.0479
31059W        W46190   2.151  16.559  12.660 -0.0664 -0.0201 -0.1027
31060W        W46191  11.024   7.648   5.561  0.5672  0.0776 -0.2757
31061W        W46192  15.693   4.782  11.379  0.0647  0.0172 -0.1946
31062W        W46193   4.387  10.603   5.332 -0.3770 -0.2229  0.0189
31063W        W46194   7.225  17.769   5.721  0.3843  0.0334  0.0803
31064W        W46195  16.087  12.139   4.025  0.0459  0.0049 -0.0530
31065W        W46196  16.569  11.055  11.118 -0.1901 -0.1938  0.0854
31066W        W46197  11.869   4.126  16.227  0.0627 -0.0829  0.2631
31067W        W46198  11.828   2.099  11.172 -0.1809  0.1119  0.1846
31068W        W46199   9.726   1.245   1.612  0.2411 -0.0371  0.1032
31069W        W46200   6.142   8.559   0.216  0.2591  0.2285  0.1208
31070W        W46201  12.322   6.456   2.362  0.2407  0.1126  0.2714
31071W        W46202  14.909  13.215   4.204 -0.0516  0.3829 -0.0559
31072W        W46203  10.153   1.852  12.378  0.0759 -0.1109  0.2061
31073W        W46204   2.325   4.925   0.045 -0.1539 -0.1583 -0.1244
31074W        W46205  11.407  11.675  14.099 -0.0272 -0.0468  0.1624
31075W        W46206  11.110  14.230   1.299 -0.0426  0.1361  0.0806
31076W        W46207   4.933   7.992   5.498 -0.0756  0.2257  0.1603
31077W        W46208   2.417  14.847  14.098  0.0866  0.0565  0.2171
31078W        W46209   9.982   7.647  15.408 -0.0336 -0.0617  0.2411
31079W        W46210   6.213   4.533  15.701 -0.2460  0.3334  0.0051
31080W        W46211  15.303   9.061   4.554  0.1479  0.0068 -0.0675
31081W        W46212  14.116   2.582  11.578 -0.1295 -0.3318  0.0527
31082W        W46213   9.791   5.635  11.222  0.1378 -0.0717  0.0151
31083W        W46214   2.028   5.944  12.189 -0.0306 -0.0411  0.3999
31084W        W46215   9.957   3.361  11.165 -0.3046 -0.1466 -0.0460
31085W        W46216  11.322   8.771  11.762  0.0945 -0.0516 -0.1376
31086W        W46217  15.584   4.816  10.469  0.0810  0.0971  0.0006
31087W        W46218  15.117   6.312   4.994 -0.0283 -0.0844  0.0840
31088W        W46219  17.029  15.155  11.532  0.0915  0.1410 -0.0340
31089W        W46220   4.381  16.465   1.176 -0.1655 -0.1868  0.0211
31090W        W46221   2.144  11.354  12.351  0.0422 -0.0366  0.0200
31091W        W46222  11.902  15.787  11.674  0.0924  0.0512 -0.0279
31092W        W46223   4.639  11.359  13.621  0.0632 -0.1451  0.0428
31093W        W46224  13.721   5.675  14.857 -0.2156  0.1172 -0.0563
31094W        W46225   8.823  10.757  15.517  0.1564  0.2471  0.0765
31095W        W46226  10.393  16.674  12.676  0.1681 -0.0969 -0.1573
31096W        W46227   9.160   8.534   1.004 -0.1976  0.2530 -0.2305
31097W        W46228   3.998  12.274  13.040 -0.2565 -0.2043 -0.0557
31098W        W46229  18.058   5.839   0.836  0.0072 -0.1543  0.3160
31099W        W46230  11.761   8.779  15.348  0.1020  0.0394 -0.1963
31100W        W46231  13.839  12.777  13.201 -0.4751  0.0095 -0.0139
31101W        W46232  18.101   6.510   1.462  0.0720 -0.5433 -0.0173
31102W        W46233   3.042  16.229   1.301  0.1094  0.1134 -0.2498
31103W        W46234  12.598  14.800   3.468  0.0040 -0.0184 -0.1578
31104W        W46235   0.031  11.272   2.631 -0.0811  0.2702  0.1882
31105W        W46236   9.974  10.573  12.339 -0.0553 -0.1739 -0.1997
31106W        W46237  15.933  15.070  12.376  0.0097  0.0451  0.0732
31107W        W46238  13.086   3.627   1.541  0.1984 -0.1410 -0.2023
31108W        W46239   1.385   5.407   0.730 -0.0212  0.3979 -0.1029
31109W        W46240   2.674  16.203  14.631 -0.0206  0.0633  0.2182
31110W        W46241  12.425  16.005  11.504 -0.1152  0.2742  0.0815
31111W        W46242  14.416   2.767   3.062  0.0952  0.2997  0.1229
31112W        W46243  13.684  15.035  13.859  0.1971 -0.1134  0.0696
31113W        W46244  10.895  13.241  13.920  0.1551  0.0385 -0.0440
31114W        W46245   4.368  16.854  10.855  0.1296 -0.0414  0.1390
31115W        W46246   4.269  16.881  15.837  0.1094  0.2411  0.1229
31116W        W46247   6.763   0.610  11.365 -0.1078  0.1573 -0.0472
31117W        W46248  12.046  11.364   3.702 -0.2635  0.2534 -0.3002
31118W        W46249   1.622  14.863   4.132 -0.4276  0.1853  0.1231
31119W        W46250  14.976   4.545  15.800 -0.1165  0.0344 -0.0371
31120W        W46251   9.582   1.869   4.711  0.1779 -0.0597 -0.0227
31121W        W46252  15.591  13.368  15.822  0.1736 -0.0338  0.0656
31122W        W46253   0.076  13.979  14.340  0.0393 -0.1039  0.1126
31123W        W46254  11.055  11.962  11.525  0.0663  0.1427 -0.0257
31124W        W46255   1.027   7.484   1.048  0.1733 -0.0338  0.0241
31125W        W46256   2.427   9.371  11.241 -0.2049 -0.0118 -0.1750
31126W        W46257  10.997   7.600   0.325  0.0237 -0.0266 -0.0120
31127W        W46258   8.388  13.818   5.093  0.0084 -0.0455 -0.1692
31128W        W46259   0.770  17.061  13.473  0.3806 -0.1202 -0.0902
31129W        W46260   3.431   8.618   2.121 -0.1281  0.1892  0.3374
31130W        W46261  12.032   4.298   5.308 -0.2478  0.0875 -0.0633
31131W        W46262   7.363   1.360   2.553 -0.1139  0.0664 -0.2153
31132W        W46263   7.877   8.408  13.396 -0.1316  0.1219 -0.2173
31133W        W46264  11.327   9.205  13.473  0.3410  0.1021  0.1838
31134W        W46265  12.646   8.673  14.669  0.0534 -0.3384  0.1481
31135W        W46266  15.231  14.767  15.280 -0.3210 -0.4297  0.2080
31136W        W46267  13.029  13.562   1.843  0.0331 -0.1285  0.0675
31137W        W46268  10.869   3.706   2.756 -0.0926  0.0484  0.0282
31138W        W46269  17.894   5.464   1.244  0.0229  0.0678  0.0635
31139W        W46270  17.846   4.164   3.587 -0.1078 -0.0977 -0.3280
31140W        W46271  15.735  15.220   9.820 -0.2362  0.2533  0.0236
31141W        W46272   3.937   6.364   1.446 -0.1179  0.1849  0.0131
31142W        W46273   1.053  13.569  13.343 -0.1923 -0.1911 -0.0880
31143W        W46274  12.846   5.026  14.241  0.1860  0.0088 -0.0278
31144W        W46275   5.143  14.566  14.705  0.1729 -0.1945  0.1740
31145W        W46276   9.269   0.374  14.997  0.0544 -0.0805  0.1909
31146W        W46277  16.731   0.896   5.275  0.1005 -0.2068  0.0750
31147W        W46278   7.022   9.412   4.276 -0.0123 -0.1319  0.3087
31148W        W46279   9.543   1.620   3.551  0.1340 -0.1605 -0.1143
31149W        W46280   8.386  14.980  10.072  0.4120 -0.1790  0.3955
31150W        W46281   1.306  14.261   4.118 -0.0134  0.1698 -0.0106
31151W        W46282  16.477  17.246  16.128 -0.0449  0.2459  0.2841
31152W        W46283  17.840  14.742   1.228  0.1800 -0.2449  0.0517
31153W        W46284   7.871   0.247   3.052  0.0481  0.3785  0.3844
31154W        W46285   4.927   3.493   2.609 -0.0028  0.3156  0.2161
31155W        W46286  14.434   2.263   2.823  0.0755 -0.1331 -0.0343
31156W        W46287   2.789  13.850   4.137 -0.1995  0.0210  0.2231
31157W        W46288   7.738   1.949  11.092  0.2371  0.2352 -0.1999
31158W        W46289   4.084  17.807   3.409  0.2559 -0.2164 -0.1581
31159W        W46290  17.380   1.907  11.449 -0.0093  0.0619  0.1517
31160W        W46291   1.292  10.271  14.450 -0.0908  0.0147 -0.1554
31161W        W46292   4.908   5.578  13.552 -0.1346 -0.1639 -0.0854
31162W        W46293   4.868   9.572   2.882 -0.2064  0.0765  0.1540
31163W        W46294   3.908   7.643  15.333  0.1212 -0.1158  0.1081
31164W        W46295   4.684   3.086  13.168  0.2063 -0.0501  0.1187
31165W        W46296   5.032  15.531  13.962 -0.0522  0.2300  0.2361
31166W        W46297   1.572  17.465  13.365  0.1017  0.0935  0.0163
31167W        W46298  14.114  11.769   0.966 -0.0154 -0.0354  0.3243
31168W        W46299   5.307  10.324  14.572 -0.2908 -0.3918  0.2380
31169W        W46300  14.338   0.872  11.814  0.0828  0.1039 -0.1439
31170W        W46301   7.551   9.600   1.820  0.0217 -0.1552  0.1354
31171W        W46302   3.453  10.478   1.275 -0.2319  0.2959  0.2465
31172W        W46303   1.183  10.998  16.034 -0.2558  0.0206  0.2705
31173W        W46304  16.932   3.345  13.720 -0.2932  0.1528  0.0385
31174W        W46305  16.827  12.707   4.816  0.1141 -0.1616  0.1391
31175W        W46306   9.392   4.330  14.890  0.0579  0.1756 -0.1083
31176W        W46307   2.586  10.186  10.695  0.0433  0.1729 -0.0138
31177W        W46308   2.939   5.692   3.426 -0.2893  0.2878  0.2388
31178W        W46309   3.962  11.250   2.086  0.0395  0.1573 -0.2338
31179W        W46310   4.968   5.286  16.007 -0.2276 -0.0078  0.1773
31180W        W46311  15.927   0.477   5.325 -0.1467  0.0344  0.0985
31181W        W46312   8.663   5.539   1.536  0.0088 -0.1224  0.1155
31182W        W46313   6.780   5.361   0.893 -0.1145 -0.1340  0.1508
31183W        W46314  14.751  12.962   1.835 -0.3053 -0.0015 -0.1646
31184W        W46315   2.746   2.787   2.557 -0.3084  0.0814 -0.1143
31185W        W46316  15.423   9.054   1.633  0.0712  0.0169  0.0910
31186W        W46317   7.937  16.970   2.362 -0.0353 -0.2456 -0.0137
31187W        W46318  13.444   4.809  13.614  0.0886  0.1547  0.2500
31188W        W46319  14.837   4.385   0.037 -0.3391 -0.0857 -0.0461
31189W        W46320  10.475  11.027  15.602 -0.1076  0.1953  0.2267
31190W        W46321  11.004  12.536  12.741  0.3742  0.1729 -0.1595
31191W        W46322   6.249  12.897  15.701 -0.0440  0.1349 -0.1275
31192W        W46323   2.479  10.519  15.324  0.0676  0.1156 -0.1044
31193W        W46324  12.586  15.866   4.116  0.0813 -0.3747 -0.0085
31194W        W46325  16.933   4.456  11.085 -0.0140  0.0960  0.0210
31195W        W46326   5.900  15.331   4.378 -0.0277 -0.1063 -0.1893
31196W        W46327  16.463  10.394   4.173  0.0774 -0.0394  0.2667
31197W        W46328  13.375  15.647  15.897 -0.1317  0.1632  0.2507
31198W        W46329  11.117   1.746   0.935  0.1035 -0.0402  0.1251
31199W        W46330  15.167   8.873  11.906 -0.0612 -0.0899  0.0555
31200W        W46331  14.608   1.542  13.682  0.2588  0.1324  0.0997
31201W        W46332   2.002   6.462  15.907  0.0462 -0.1393  0.1639
31202W        W46333  12.090   3.027  14.356 -0.2873 -0.3400  0.1223
31203W        W46334   9.654  14.082   0.647 -0.1818 -0.3787 -0.0044
31204W        W46335  13.698   1.206   0.121 -0.0968  0.1388  0.0231
31205W        W46336  15.427  10.636  12.777 -0.1607 -0.0512 -0.2887
31206W        W46337  17.125  16.127   4.224 -0.0794 -0.2206  0.0438
31207W        W46338  16.866  10.736  13.313 -0.2675 -0.2092 -0.1247
31208W        W46339   8.605  14.743  14.175 -0.1978  0.0968  0.2944
31209W        W46340  13.067   9.984   5.227 -0.1079 -0.0891 -0.2213
31210W        W46341  17.481  14.472   2.181  0.0986 -0.0836  0.0283
31211W        W46342   1.123   3.667  14.975  0.1830 -0.0112 -0.0907
31212W        W46343   4.136   2.834   0.066  0.1671 -0.1851  0.0662
31213W        W46344  13.921   0.120   3.760 -0.0280 -0.1943 -0.1075
31214W        W46345  11.702   4.186   2.907  0.1008 -0.0271  0.0474
31215W        W46346   2.754   1.068  13.860  0.0202  0.3124  0.2551
31216W        W46347  13.017   2.507  13.229  0.1984 -0.0396 -0.1472
31217W        W46348  10.779  12.676  11.136 -0.1560  0.1156 -0.1345
31218W        W46349  16.950  12.039   0.965  0.2822  0.1823 -0.0007
31219W        W46350   4.866  13.199  15.142  0.3475  0.0615 -0.1745
31220W        W46351   7.307  13.359  13.872 -0.0883  0.2427 -0.0305
31221W        W46352  11.158   6.743   0.838 -0.2896  0.2868  0.4588
31222W        W46353  17.803   7.170  15.063 -0.1357  0.0489  0.1084
31223W        W46354   4.931  12.921  14.646 -0.2722 -0.1647 -0.0943
31224W        W46355   2.085   2.372  15.787  0.3975  0.0223 -0.0792
31225W        W46356   7.948   7.020  13.565 -0.1633  0.3617  0.2513
31226W        W46357   2.006  16.037   4.166  0.2090  0.0852  0.1211
31227W        W46358   2.405   1.037  12.557  0.0660  0.2742 -0.2208
31228W        W46359  16.993  17.090   3.013 -0.3102 -0.1018 -0.1515
31229W        W46360  11.537   1.059   3.943 -0.1272  0.0818 -0.1460
31230W        W46361  16.912   9.880  12.675 -0.0076 -0.2501 -0.2838
31231W        W46362   1.429   8.191   5.521 -0.2358 -0.1489  0.2083
31232W        W46363  12.006   1.110   4.036 -0.0591  0.3359  0.0608
31233W        W46364   9.001  15.100  10.945  0.0139  0.0773 -0.1344
31234W        W46365   4.159  11.450   2.997 -0.2675 -0.2190 -0.3171
31235W        W46366  14.454   8.121   2.668  0.0065  0.1693 -0.1236
31236W        W46367   2.255   6.843  16.222  0.0326  0.1190 -0.0873
31237W        W46368   3.425   3.538   0.274 -0.0192  0.1983 -0.0130
31238W        W46369   8.819   2.758  11.900 -0.3044 -0.0630 -0.0562
31239W        W46370  12.111  17.604   4.551  0.1149 -0.0444  0.0732
31240W        W46371  17.157   3.807   1.108  0.0824 -0.1632  0.1401
31241W        W46372  15.776  16.462   4.817  0.0834 -0.0046  0.2666
31242W        W46373   7.730   6.132  13.242  0.1068  0.4008 -0.0363
31243W        W46374   7.470   5.028  14.582  0.1473 -0.1785  0.1177
31244W        W46375   3.699  15.658   0.351  0.1104 -0.3984 -0.1036
31245W        W46376   5.923  15.230   2.257  0.1295 -0.0250  0.0156
31246W        W46377   3.357   1.057  14.899 -0.2397 -0.1365 -0.1537
31247W        W46378  16.262  11.936  10.710  0.0763 -0.0964  0.0403
31248W        W46379   2.321  15.614  12.168 -0.1558  0.0979  0.0190
31249W        W46380  12.524   4.367   1.242  0.1720 -0.1716 -0.1488
31250W        W46381   5.998  17.259   3.297  0.1060 -0.1804  0.2602
31251W        W46382   4.240   6.998  13.146  0.3459  0.0731  0.1928
31252W        W46383  14.589  10.348  11.760 -0.1353  0.1581 -0.1794
31253W        W46384  15.509  17.103   4.066  0.1261 -0.2542 -0.0571
31254W        W46385  16.713   8.057   1.411  0.0895 -0.4275 -0.2637
31255W        W46386   8.650   9.021  11.076 -0.0740 -0.0553  0.0300
31256W        W46387  14.720   7.598  13.308  0.1187  0.3085 -0.0015
31257W        W46388   8.031  15.191   3.586  0.5177 -0.1028 -0.1024
31258W        W46389  15.308   4.432   0.451 -0.4403 -0.0182  0.0993
31259W        W46390   9.397  12.917   2.881  0.0467 -0.3250  0.1857
31260W        W46391  14.072   6.232  12.112  0.1288  0.3659 -0.2006
31261W        W46392   0.572  15.550   1.697 -0.0253 -0.0815  0.2764
31262W        W46393   7.422   1.894   4.269  0.1123 -0.0685 -0.0681
31263W        W46394  14.150   1.447  12.404  0.0983  0.2104 -0.1067
31264W        W46395   7.283  11.888   5.055 -0.2506  0.0675 -0.1909
31265W        W46396  10.615   8.487   3.601  0.2843  0.0040  0.0583
31266W        W46397  10.518   3.426  16.198  0.0647  0.1943  0.0012
31267W        W46398  17.626   5.061  11.421 -0.1059  0.0083  0.1158
31268W        W46399   0.177   9.547  15.146  0.0722  0.0962  0.1777
31269W        W46400   3.895  17.534  10.685  0.1213 -0.1354  0.1172
31270W        W46401  10.855   0.950   1.330 -0.0547 -0.0758  0.3282
31271W        W46402  11.668   6.552  14.332 -0.0326  0.1562  0.0351
31272W        W46403  11.698   3.949  12.581  0.0378  0.1233  0.1737
31273W        W46404   7.039   8.501  11.425 -0.2073 -0.1050 -0.0825
31274W        W46405   7.011   7.410  13.862 -0.4825 -0.2088 -0.0861
31275W        W46406  16.101   7.806  13.634  0.3149  0.0645 -0.1230
31276W        W46407   4.688   3.362   1.456  0.0511  0.1895  0.1994
31277W        W46408  13.974  11.854  11.422 -0.1845  0.0768 -0.1730
31278W        W46409   0.608  14.578   4.968 -0.2339 -0.0052 -0.0972
31279W        W46410   5.966   2.677  15.742 -0.3097  0.1811 -0.1155
31280W        W46411   5.252  12.687   9.994  0.0789 -0.0460  0.1804
31281W        W46412   6.023   1.280  15.566 -0.3890  0.0045 -0.3162
31282W        W46413   5.528   2.645  13.838  0.0346  0.2396 -0.3006
31283W        W46414  17.236   1.179   2.326 -0.0278  0.2031  0.2817
31284W        W46415   3.376   6.831  15.373 -0.1863 -0.0366 -0.1946
31285W        W46416  17.412   9.935   1.198 -0.1375  0.2797 -0.3574
31286W        W46417  17.330   4.909   5.091 -0.1953 -0.2557  0.0993
31287W        W46418   5.904   3.535   3.662  0.4602 -0.0000  0.3546
31288W        W46419   0.311  16.518   1.148 -0.1402 -0.3774 -0.1292
31289W        W46420   5.102  17.648   0.557  0.0308  0.0803 -0.1309
31290W        W46421   6.316  10.447   3.312 -0.1224 -0.1437  0.0125
31291W        W46422   2.609   6.075   0.744  0.1581 -0.1984  0.0931
31292W        W46423  15.213  10.883  15.384  0.1451 -0.1420  0.1429
31293W        W46424   3.707  13.396   2.739 -0.0408 -0.1059 -0.2493
31294W        W46425   7.485   8.041   3.002 -0.0872  0.0855  0.1316
31295W        W46426  12.744   3.582   2.342  0.2407  0.1719 -0.4106
31296W        W46427   2.962   0.737   2.096  0.2151  0.1800 -0.0209
31297W        W46428  12.393   2.851   3.642  0.1067 -0.1142  0.3777
31298W        W46429   9.769   4.183   4.098 -0.2355  0.0009  0.0202
31299W        W46430  10.846   7.287   3.032 -0.3965 -0.1453 -0.2526
31300W        W46431   2.566  14.879  10.860  0.1067  0.4421  0.1250
31301W        W46432   4.863  13.528  11.136 -0.2342  0.2872  0.0474
31302W        W46433  15.430  12.596  11.133  0.0646  0.0328  0.2211
31303W        W46434   7.604   6.487  11.198 -0.2757  0.1706  0.1748
31304W        W46435  16.175   4.435  15.692  0.1572 -0.1358 -0.0327
31305W        W46436   7.628  11.517   4.532  0.1358  0.0083 -0.2576
31306W        W46437   9.616   4.203   0.350 -0.1341 -0.0695 -0.0581
31307W        W46438  15.401  14.442  12.710  0.0362 -0.3827  0.1549
31308W        W46439   9.230   0.645   0.493 -0.0971  0.1830 -0.1583
31309W        W46440  14.056   7.846   4.700 -0.0611 -0.2079  0.0060
31310W        W46441  14.600  10.779  11.990  0.0163  0.1071  0.2889
31311W        W46442   3.443   2.803   3.651 -0.0517 -0.0666 -0.1712
31312W        W46443   6.578   1.953  14.524 -0.0995 -0.0990  0.1206
31313W        W46444  10.521   5.445   1.595  0.3202 -0.0502 -0.3723
31314W        W46445  15.079  16.760  14.123 -0.0880  0.1977  0.0606
31315W        W46446  16.184   4.270  16.228 -0.0378 -0.0311  0.0390
31316W        W46447   3.337   6.409   4.461  0.0978 -0.2198 -0.0392
31317W        W46448   4.141  16.878  11.401  0.2162 -0.2579  0.3608
31318W        W46449  14.492  16.771   4.255 -0.2374 -0.2982  0.0703
31319W        W46450   2.623  10.079   1.863  0.0907 -0.2061 -0.1084
31320W        W46451   6.049   8.121  14.458  0.0603 -0.0262 -0.1331
31321W        W46452  15.192   5.047   4.181 -0.0646  0.0937  0.0831
31322W        W46453   6.880   3.572  15.300 -0.0441 -0.2304  0.0545
31323W        W46454   1.643   5.304  12.460  0.0704  0.1094  0.0146
31324W        W46455   2.864   3.605  11.508  0.0586  0.2032 -0.0851
31325W        W46456   2.741   4.039   0.046 -0.0167 -0.0921  0.1341
31326W        W46457   1.427   5.753  11.132 -0.0009 -0.1882  0.1025
31327W        W46458   4.685  14.635  14.863  0.1542 -0.1087 -0.1160
31328W        W46459  15.310  13.142  15.437 -0.0367 -0.1107 -0.1691
31329W        W46460   0.549   0.586   3.031 -0.0232 -0.2279 -0.2284
31330W        W46461   5.328  17.556   4.949  0.0422  0.1290  0.2532
31331W        W46462   1.022   3.554  15.538 -0.1569  0.2247 -0.1790
31332W        W46463  12.598  17.450  10.384  0.0240 -0.0444 -0.1239
31333W        W46464  15.669   2.797  12.412 -0.3125  0.0294  0.1598
31334W        W46465   0.791  10.479   0.707  0.4411 -0.0074 -0.1948
31335W        W46466  12.017  17.250   3.711 -0.0199  0.0212  0.1928
31336W        W46467  17.618   6.227   2.785 -0.3436 -0.3264  0.2165
31337W        W46468  15.953  14.771  14.364 -0.0338 -0.1365 -0.1105
31338W        W46469   3.283   0.824   4.425 -0.2692  0.3923  0.3412
31339W        W46470  13.821  14.193   2.771 -0.0796 -0.1258 -0.0374
31340W        W46471   8.285  10.555   3.074  0.2196  0.2031 -0.0600
31341W        W46472  15.215  11.436  12.146 -0.0931 -0.0305  0.0794
31342W        W46473   3.737  10.813   1.534 -0.2328  0.0213  0.0290
31343W        W46474  14.013   6.722  12.053 -0.0290  0.2842 -0.0998
31344W        W46475  13.966   7.544  13.821 -0.2426 -0.2491  0.0002
31345W        W46476  12.585  16.124   5.155  0.2266  0.0289 -0.2936
31346W        W46477   0.973   4.492   2.377  0.0568  0.1487  0.1549
31347W        W46478  15.461  16.144  11.470 -0.1635  0.4035  0.1510
31348W        W46479  10.151  14.167   0.779 -0.0682  0.0881  0.1835
31349W        W46480   0.893   4.570   1.671  0.2404 -0.0614  0.1032
31350W        W46481   1.492  16.461   3.286  0.0525  0.1993 -0.1733
31351W        W46482   7.371  11.216   1.959 -0.1201 -0.2125 -0.0090
31352W        W46483  12.847   1.148   5.713 -0.0848  0.0680 -0.0213
31353W        W46484   8.927   9.278   3.112  0.1077  0.2926  0.0492
31354W        W46485  10.012   3.805   5.369  0.0673 -0.0630  0.0063
31355W        W46486   3.925   6.519   2.824 -0.0872  0.1141 -0.3175
31356W        W46487   2.320   6.511   5.582 -0.0587 -0.0916 -0.2165
31357W        W46488  14.611  11.918  12.170  0.2776  0.0135 -0.0721
31358W        W46489  15.484  13.849   1.623 -0.2426 -0.0067 -0.0592
31359W        W46490   2.455   7.069  15.366  0.0758 -0.3322  0.1177
31360W        W46491  14.891  17.587   0.559 -0.0597  0.0803 -0.0985
31361W        W46492   8.498   6.953   1.493 -0.0489 -0.0570 -0.1129
31362W        W46493   3.043  14.197  14.882 -0.1429 -0.0392 -0.3292
31363W        W46494   4.405  13.682   0.733  0.1451 -0.3190  0.1920
31364W        W46495   8.520  11.022   0.293 -0.1746 -0.1435  0.3145
31365W        W46496  18.037  11.218   3.942 -0.0954  0.1064 -0.1885
31366W        W46497  11.403   5.771  11.727 -0.1800 -0.0446 -0.2184
31367W        W46498   6.167   1.787  14.761  0.0829  0.0844 -0.0397
31368W        W46499   0.388   6.998   3.171 -0.0789 -0.2033 -0.4223
31369W        W46500   9.785   8.053   1.249  0.0050  0.0883 -0.0503
31370W        W46501   2.082  11.454   5.879  0.1115 -0.1076  0.2333
31371W        W46502   2.517  13.128   2.326 -0.3183 -0.0503 -0.0226
31372W        W46503   7.068   8.729  14.543  0.3273 -0.2197 -0.0586
31373W        W46504   7.992   5.943  12.111 -0.1794  0.0380 -0.0118
31374W        W46505   3.487   7.630   0.949 -0.3002  0.2296 -0.2553
31375W        W46506   3.192  13.725   1.041 -0.1392  0.1048  0.2841
31376W        W46507  15.379   3.739  15.876 -0.0461 -0.0668  0.2980
31377W        W46508  16.543   6.554   4.500  0.0587  0.3151 -0.2633
31378W        W46509  11.645  17.794  14.710  0.0803  0.0531 -0.0578
31379W        W46510   4.475   3.769   4.713 -0.2031 -0.2080  0.2892
31380W        W46511  11.180   2.410   3.416 -0.0633  0.0675  0.1403
31381W        W46512   4.827   3.461  14.649 -0.0931  0.1214 -0.3528
31382W        W46513   8.979   1.103  14.525 -0.1946 -0.1666  0.1835
31383W        W46514   4.054   9.956   4.536  0.1130 -0.2902 -0.0760
31384W        W46515  11.099   7.693   3.350  0.0578  0.0669 -0.2016
31385W        W46516  16.929   3.640   0.195 -0.0718 -0.0474 -0.0845
31386W        W46517   6.751  11.412   2.949  0.1552  0.1498 -0.0933
31387W        W46518  14.763  11.645   1.510  0.0845  0.0788  0.3481
31388W        W46519  16.717   5.809   0.152  0.2134 -0.1822  0.0398
31389W        W46520  16.517   9.065  11.613 -0.1723 -0.0813 -0.2772
31390W        W46521  14.307  15.852   4.478 -0.0435  0.0216 -0.0206
31391W        W46522   1.451   9.381   4.488 -0.2273 -0.0749  0.0050
31392W        W46523  12.579  12.292  14.297 -0.0019 -0.0148 -0.1920
31393W        W46524   4.733   9.736   5.441 -0.1997 -0.0707 -0.0992
31394W        W46525  15.081   0.961   4.762 -0.0613  0.2199  0.0738
31395W        W46526   2.157  14.872  14.576 -0.0328  0.0735  0.1414
31396W        W46527   8.841   5.583  15.559 -0.3896  0.0185  0.1045
31397W        W46528  10.745  13.308  15.805 -0.0847 -0.0209 -0.2542
31398W        W46529  12.514   1.115   4.119 -0.0873 -0.0672  0.1648
31399W        W46530   0.020   9.161   1.380 -0.1050  0.0627 -0.1447
31400W        W46531   5.594  17.203  15.600  0.1877  0.2223  0.0072
31401W        W46532  13.620   0.894   2.871 -0.1968 -0.0892  0.1392
31402W        W46533  12.424   1.492  12.566 -0.1135 -0.0079 -0.0008
31403W        W46534   0.302  14.087   3.607 -0.0160 -0.1360 -0.0440
31404W        W46535   0.967  17.652   3.305  0.0454  0.0501  0.0162
31405W        W46536   1.066   2.207  16.034 -0.0624  0.1751 -0.0337
31406W        W46537   8.678   7.849   2.778 -0.1841  0.2341 -0.1474
31407W        W46538   6.219   4.882  15.407 -0.3019 -0.3804  0.1109
31408W        W46539  15.931   9.560  13.977 -0.1201 -0.0478  0.1133
31409W        W46540   8.116  17.480   5.210  0.0113 -0.0575  0.2095
31410W        W46541   0.058  14.281  14.932  0.0266 -0.0939  0.0130
31411W        W46542  16.612  17.166  15.451  0.2398  0.0298 -0.1326
31412W        W46543   6.740  10.583  15.676  0.1271  0.1096  0.2303
31413W        W46544   8.686  11.878  13.328  0.0572 -0.3113 -0.1945
31414W        W46545   1.890   5.405  14.393  0.2446 -0.3144 -0.0320
31415W        W46546   4.664   7.712  13.247  0.1212  0.2577  0.1736
31416W        W46547   6.481   9.532  14.979 -0.2251 -0.0545 -0.2302
31417W        W46548  12.093   4.250  13.390 -0.1624  0.0604  0.1926
31418W        W46549  10.859   1.070  15.030  0.0768  0.2814  0.0778
31419W        W46550   2.310  16.694  11.517  0.1419  0.1255  0.3994
31420W        W46551   1.670  14.981  13.215 -0.0952  0.4342  0.2451
31421W        W46552   9.378  10.594  11.530 -0.0542  0.2821  0.0945
31422W        W46553  15.289  16.779  13.076  0.1450 -0.1840  0.2361
31423W        W46554  17.893  10.306   0.902  0.1197  0.1424  0.1823
31424W        W46555   8.978  17.967  14.776 -0.0910 -0.1638  0.0312
31425W        W46556   8.548  12.001   0.779  0.0959  0.1680  0.1920
31426W        W46557   9.880   3.841   3.100  0.1498  0.0957 -0.3508
31427W        W46558   2.285   4.100  13.007 -0.1370  0.0778  0.1905
31428W        W46559   8.472   0.078  12.704  0.0833 -0.0977 -0.0611
31429W        W46560  11.431   4.926   9.971  0.0663  0.1390 -0.3031
31430W        W46561  14.124  12.019  14.830 -0.2513 -0.0553  0.2372
31431W        W46562  11.138  15.119   3.657  0.1879 -0.0652 -0.0060
31432W        W46563   8.265   1.567   4.619 -0.2716 -0.1183  0.3075
31433W        W46564   1.553   4.694  12.751 -0.0376  0.1453  0.3120
31434W        W46565   0.185   4.988   2.846 -0.1837  0.2294  0.0827
31435W        W46566  16.284   0.133  13.535  0.0756 -0.2067  0.0557
31436W        W46567  14.384   4.200   0.278 -0.2267 -0.0896 -0.1255
31437W        W46568   3.867  17.339   0.195  0.4041 -0.1007 -0.1300
31438W        W46569   8.574  13.408  14.031 -0.0365 -0.0345 -0.3442
31439W        W46570  11.880  13.640   4.818 -0.2092  0.0774 -0.0983
31440W        W46571  17.386  16.225   6.317 -0.1442 -0.1081 -0.1329
31441W        W46572   7.824  13.488  12.108 -0.4171 -0.0600 -0.0752
31442W        W46573  18.100   1.900  12.303 -0.1309  0.0210 -0.2368
31443W        W46574   7.121   5.719   0.447  0.0958  0.2362  0.3467
31444W        W46575   0.121  12.012   5.136 -0.0432  0.0593  0.0242
31445W        W46576   7.839  16.917  13.545 -0.1572 -0.0508  0.2019
31446W        W46577   8.204  12.481  13.907 -0.2082 -0.0757 -0.2318
31447W        W46578   7.772  11.994   4.221  0.0654 -0.0194  0.1135
31448W        W46579   7.332   8.980   5.669  0.0952  0.1492 -0.1772
31449W        W46580  10.255   3.746   6.075 -0.2372  0.1322  0.0575
31450W        W46581  12.326   6.224  15.273  0.0284  0.3066 -0.0146
31451W        W46582  17.210  11.270   1.193  0.1518  0.1673 -0.1680
31452W        W46583   5.804   8.226   4.695 -0.1866 -0.2334  0.0606
31453W        W46584  15.503   2.705  15.636  0.3353 -0.1021  0.0241
31454W        W46585   3.994  12.037  11.267  0.1171  0.0408 -0.0706
31455W        W46586  12.092   0.516   0.944  0.4923 -0.1814 -0.2041
31456W        W46587   7.717  12.593   3.905  0.0893  0.2717 -0.2655
31457W        W46588   6.144   3.768   1.244  0.0556 -0.1304  0.0995
31458W        W46589   9.937  14.197  11.900 -0.1271 -0.1567  0.1670
31459W        W46590  17.701  18.001  11.070 -0.0029  0.2720 -0.0278
31460W        W46591  12.285  13.921  13.300  0.0892 -0.0046  0.1449
31461W        W46592  10.425   0.485   3.927 -0.1719  0.1251 -0.1656
31462W        W46593   5.616   7.131   4.630 -0.0550  0.2243  0.0897
31463W        W46594   6.765  12.625   0.991  0.3585  0.1892 -0.1718
31464W        W46595   5.780   6.598  11.463  0.0142  0.3518  0.0662
31465W        W46596   8.160   3.980   5.414  0.0777 -0.2390 -0.4705
31466W        W46597  15.000   4.537  12.230 -0.2215 -0.1956  0.3196
31467W        W46598   2.641  10.167   5.808  0.5174  0.1735  0.1659
31468W        W46599  16.964  11.585   0.796  0.1426 -0.0404  0.2474
31469W        W46600   5.067   8.829   0.001 -0.0341  0.0164  0.0451
31470W        W46601  10.309   5.574   5.507  0.0890 -0.0456  0.0421
31471W        W46602   5.746  16.117   1.391 -0.0101  0.2275  0.1407
31472W        W46603  15.181   6.884   5.402 -0.0533 -0.1133  0.1074
31473W        W46604   3.959   9.714  14.247  0.1448  0.2478 -0.1568
31474W        W46605  10.749   2.553  15.974  0.1908  0.2301  0.0046
31475W        W46606  10.592   5.924   2.573  0.2473 -0.1181 -0.1460
31476W        W46607  12.174   3.921   1.744  0.1131 -0.1291  0.0063
31477W        W46608  15.684  14.325   1.776 -0.0981 -0.0133  0.0754
31478W        W46609   4.763   1.775   4.427 -0.0371 -0.0290  0.1414
31479W        W46610   7.294  13.634   2.490 -0.2199 -0.1317  0.0115
31480W        W46611  11.907   8.458   4.330 -0.0086 -0.1431  0.2543
31481W        W46612  14.426   1.633  15.559 -0.2514 -0.1584  0.0943
31482W        W46613   3.900   0.405  14.911 -0.1944  0.1254  0.0524
31483W        W46614  11.504  10.331   0.626 -0.3829 -0.1328 -0.2679
31484W        W46615   9.522   9.593  14.928  0.1549 -0.0147  0.1764
31485W        W46616  10.998   0.336  13.093 -0.0744  0.0597  0.0872
31486W        W46617   0.632  12.567   5.527 -0.1386 -0.1217 -0.0316
31487W        W46618   7.291   9.371   0.197  0.0098 -0.2121  0.3902
31488W        W46619   1.651  12.735  12.829  0.2163 -0.1980 -0.1289
31489W        W46620   7.025  13.722   2.016  0.1072  0.1693 -0.1746
31490W        W46621  17.367   4.792   2.542  0.0201  0.1029  0.1006
31491W        W46622  10.835  10.838  10.846 -0.0435 -0.1735  0.1939
31492W        W46623   9.492  17.194   2.414 -0.0992 -0.0903 -0.0262
31493W        W46624   3.335   6.435   2.359  0.1284  0.1066 -0.2844
31494W        W46625   5.077  12.446  14.838 -0.2407  0.0111 -0.1009
31495W        W46626  12.366   9.447   1.665  0.0523 -0.0027  0.1284
31496W        W46627  12.935  10.660   4.692  0.0618  0.1463 -0.0854
31497W        W46628   8.422   0.402   2.433  0.1174  0.1677 -0.0339
31498W        W46629  17.442  14.342   1.207 -0.1526  0.2382 -0.3021
31499W        W46630   6.407  10.867   3.099 -0.0114 -0.2930 -0.1571
31500W        W46631   6.890  15.977   4.371  0.0751  0.0748  0.2451
31501W        W46632  15.912   2.137   4.669  0.2220  0.2911 -0.1811
31502W        W46633   8.147   0.264   2.044  0.1252 -0.1935  0.1786
31503W        W46634   6.959   0.751   3.998 -0.0555 -0.1155 -0.1492
31504W        W46635   0.045   5.945   4.788 -0.3819  0.3020  0.0164
31505W        W46636   1.909  14.202  12.612 -0.0521 -0.1409 -0.3501
31506W        W46637  11.111  15.270   5.230  0.0282 -0.1410  0.0619
31507W        W46638   9.638   5.709  12.682  0.2077 -0.1017  0.1781
31508W        W46639   1.302   1.387   3.499  0.2477  0.0460  0.2976
31509W        W46640  16.082   5.248   4.310  0.3702  0.1475 -0.0746
31510W        W46641   4.007  12.147   4.287  0.2587  0.2984  0.0229
31511W        W46642  14.779  13.212  11.899  0.2660  0.0786  0.0253
31512W        W46643  15.901  10.102   2.467 -0.0514  0.0892  0.1070
31513W        W46644  10.506  15.960   1.683  0.0282  0.0188  0.3441
31514W        W46645   0.278  10.857   2.687 -0.3499 -0.1649  0.0148
31515W        W46646  11.058   1.069  14.422 -0.2702  0.2126 -0.1664
31516W        W46647   2.053  15.891  14.251 -0.1028  0.1610  0.1727
31517W        W46648  15.010  14.911   4.029 -0.0496  0.0836 -0.0349
31518W        W46649  16.919  13.052   2.342  0.3217 -0.2328  0.1298
31519W        W46650   7.489  17.497  14.285 -0.0884 -0.0157 -0.1597
31520W        W46651   0.476  17.450   3.283 -0.0320 -0.0014  0.1057
31521W        W46652   9.922  12.760   2.720 -0.3161 -0.3541  0.3587
31522W        W46653   7.302   1.165   1.743  0.2037 -0.0178  0.1512
31523W        W46654   4.871   3.831   0.828 -0.0556 -0.0817  0.3264
31524W        W46655   6.930   4.147   2.129 -0.2564 -0.0357 -0.1541
31525W        W46656  14.753  13.675  12.198 -0.0563 -0.2121 -0.1077
31526W        W46657  13.507   3.624   1.796  0.0794  0.1025  0.1392
31527W        W46658   2.842  17.274  14.401 -0.0209 -0.2941 -0.1986
31528W        W46659  14.154   7.434   9.945 -0.0531 -0.0216  0.1484
31529W        W46660   8.384  15.812  13.459 -0.3504 -0.1497 -0.2388
31530W        W46661   6.171   3.149  14.128  0.0870  0.2302 -0.1671
31531W        W46662   4.489   9.894  14.971 -0.1837 -0.1292  0.0201
31532W        W46663   9.158  16.768   1.534  0.1713 -0.3164 -0.1903
31533W        W46664  13.152   5.320   0.926 -0.1826  0.1574  0.0576
31534W        W46665   2.429  10.812   2.895 -0.1934  0.4274 -0.1520
31535W        W46666  12.630  17.519  11.173 -0.2344  0.1172  0.0510
31536W        W46667   3.514  11.550  15.844 -0.2483  0.2095 -0.2982
31537W        W46668   0.046   5.095  11.130  0.1953  0.0493  0.1398
31538W        W46669  15.913   7.270  11.422  0.1143  0.0956  0.1395
31539W        W46670   7.969  15.178   1.889 -0.2929 -0.1269 -0.1216
31540W        W46671   2.587  12.746  14.991  0.0212 -0.2329 -0.1429
31541W        W46672  13.498   6.452   5.449  0.0850 -0.0263 -0.1371
31542W        W46673   0.776   2.624   3.265 -0.0700 -0.0987 -0.0710
31543W        W46674   3.954  15.315  15.177  0.4291  0.2338  0.1415
31544W        W46675   9.931  14.958   4.750 -0.0737  0.2921  0.3357
31545W        W46676  15.551  15.646   1.364  0.2881  0.0474  0.0062
31546W        W46677   5.457   4.032   4.617  0.1652 -0.2770  0.0421
31547W        W46678   0.470  11.410   0.487 -0.2106  0.2293 -0.0854
31548W        W46679  12.852   9.244  14.110  0.0896 -0.0828  0.0082
31549W        W46680   7.582   7.465  13.521 -0.1617 -0.3945  0.0684
31550W        W46681  13.272   2.907  13.118  0.2124 -0.0420  0.1938
31551W        W46682   4.953   1.757  11.540 -0.2250  0.1068 -0.3567
31552W        W46683   2.404  16.422  14.276 -0.0116  0.0602  0.0108
31553W        W46684  11.284   0.344   3.607 -0.3819 -0.1630  0.0690
31554W        W46685  13.047   2.593  15.127 -0.0945 -0.0417 -0.0932
31555W        W46686  17.727   2.915  13.080  0.1068  0.0180 -0.2292
31556W        W46687   7.257   9.267   1.649  0.0950  0.2860  0.0208
31557W        W46688  10.506   9.382  14.058 -0.2387 -0.1794  0.1548
31558W        W46689  18.058  17.847   2.036  0.0710  0.0217 -0.4845
31559W        W46690   2.095  12.831   2.106  0.3232  0.3377 -0.1386
31560W        W46691   3.413   3.759   5.948 -0.0529 -0.0663  0.3830
31561W        W46692  17.754   7.350   1.397  0.2330 -0.3755 -0.0533
31562W        W46693  14.753   5.592   3.486  0.0109  0.0688  0.1397
31563W        W46694   3.741  17.301   3.185 -0.1986 -0.1646 -0.2066
31564W        W46695   0.138   9.999   1.877 -0.2029  0.0586  0.2700
31565W        W46696  14.130   5.822  11.051 -0.1684  0.2777 -0.2057
31566W        W46697   0.794  17.474  11.567 -0.4191 -0.0522  0.0092
31567W        W46698   3.931   7.074  13.694  0.1621  0.3395  0.3736
31568W        W46699   4.472   9.604  12.802 -0.3523  0.1363 -0.0640
31569W        W46700   8.827   2.022  12.920  0.0987 -0.2069  0.0965
31570W        W46701   4.686   8.788   2.727 -0.1794  0.1643 -0.0219
31571W        W46702  11.307  14.614  11.822 -0.2003  0.1447 -0.0227
31572W        W46703  16.243   4.597   2.501  0.0934 -0.3196  0.0150
31573W        W46704   1.637   2.518   2.571  0.3025 -0.0193 -0.3408
31574W        W46705   3.880  14.265  14.284  0.1753 -0.3529 -0.2081
31575W        W46706  17.714   1.557   2.268  0.2108 -0.0570 -0.2467
31576W        W46707   1.698   6.491   1.506  0.3235 -0.1556  0.0970
31577W        W46708   1.884  12.280  11.213  0.0207  0.0673  0.1651
31578W        W46709  17.465  14.359   3.861  0.2839 -0.0959 -0.0980
31579W        W46710  11.047   9.817  12.778 -0.1404 -0.0219  0.0538
31580W        W46711  15.773  15.301   3.694 -0.1272 -0.2810 -0.1449
31581W        W46712   5.886  18.038   2.812 -0.0471 -0.0425 -0.0141
31582W        W46713   3.741  15.941  13.865 -0.3367  0.1977 -0.1310
31583W        W46714   6.919  16.113  10.207 -0.0158  0.0523 -0.0292
31584W        W46715  11.630  12.944   0.675  0.1321 -0.0463  0.0060
31585W        W46716   9.321   6.212   2.896  0.2100  0.1182  0.1113
31586W        W46717   8.132   8.777   3.093  0.0914 -0.1423 -0.2306
31587W        W46718  13.433   3.406  15.410 -0.0776  0.1945 -0.0694
31588W        W46719  16.004   9.754  10.336 -0.0001  0.0920  0.2795
31589W        W46720   9.192  16.339  13.841  0.1630 -0.0067 -0.0482
31590W        W46721   1.576  17.995  14.663 -0.4214  0.0861 -0.1002
31591W        W46722  14.261   6.637   4.742  0.0549  0.0583  0.2455
31592W        W46723   9.758  17.649  14.929  0.1237 -0.0112  0.2172
31593W        W46724  15.831  12.999  15.634  0.2460  0.2105  0.0651
31594W        W46725   8.515  16.985   2.689  0.0535 -0.3349  0.0899
31595W        W46726  15.237   5.463  13.120  0.0699  0.3009  0.1574
31596W        W46727  11.443  13.679  12.951 -0.0566 -0.0851 -0.0756
31597W        W46728  14.451   5.180   4.896  0.1499  0.0719 -0.2783
31598W        W46729  10.563   9.238  11.159  0.0997 -0.1424 -0.0306
31599W        W46730  15.386   3.337  14.245 -0.0441 -0.2831 -0.0868
31600W        W46731  11.681   7.945   0.196  0.0087  0.0787 -0.1810
31601W        W46732   0.465  11.303   3.452 -0.2069  0.0295 -0.1652
31602W        W46733   3.018   3.606   5.654 -0.0874 -0.0614  0.3825
31603W        W46734   2.187   0.160   0.650  0.0908  0.0570 -0.0775
31604W        W46735  12.558  10.087   3.880  0.0282  0.2117 -0.2747
31605W        W46736   7.968   9.649   4.022  0.0996 -0.0448  0.2772
31606W        W46737  10.051  15.624  12.039  0.1337 -0.1790  0.2359
31607W        W46738   1.389   6.914   5.326 -0.3264  0.0845  0.2681
31608W        W46739   3.779  14.636   3.514  0.0932  0.0343  0.0788
31609W        W46740   2.408  12.984  11.293  0.1556  0.1931 -0.2639
31610W        W46741  15.395  17.410  11.010  0.2647  0.1344 -0.1309
31611W        W46742  12.739   5.384  13.533  0.3576 -0.0597 -0.0293
31612W        W46743  12.551   2.856   5.365 -0.0726 -0.3718  0.1714
31613W        W46744  10.743   2.130  13.031  0.1515 -0.1151  0.1536
31614W        W46745   7.504  16.779   0.580  0.1227  0.2111  0.0125
31615W        W46746  15.155   7.652  15.697  0.0678  0.1152 -0.0204
31616W        W46747  10.765  10.379  11.757 -0.2039  0.0810  0.0855
31617W        W46748  12.814  12.916  12.819  0.0396 -0.2616  0.0271
31618W        W46749   1.281  10.646   0.593 -0.1142 -0.1260 -0.2040
31619W        W46750   0.913   1.978   2.762  0.1304 -0.0649 -0.1660
31620W        W46751   7.509   8.871   3.883 -0.1825 -0.2454  0.1321
31621W        W46752  18.055   3.621  11.790 -0.1078  0.2380 -0.1041
31622W        W46753   1.747  11.676  12.331  0.0135 -0.2125 -0.1388
31623W        W46754  16.201   7.668  16.164  0.1987  0.3113 -0.0363
31624W        W46755   1.815   2.123  12.613 -0.1462  0.0319  0.1019
31625W        W46756   8.495   2.298  15.372  0.0804 -0.0036 -0.0287
31626W        W46757   0.167   5.078  16.111 -0.1490 -0.0074 -0.0974
31627W        W46758   7.776  12.382   1.203  0.1193  0.1578 -0.1906
31628W        W46759  11.836  17.217   4.913 -0.0873 -0.0375 -0.0874
31629W        W46760  11.266   6.111   1.753 -0.3383  0.0319  0.2585
31630W        W46761  14.098  13.591  15.711  0.3023 -0.2956  0.2468
31631W        W46762   3.867   1.598  14.187 -0.0531 -0.2460  0.2496
31632W        W46763   9.739  12.777   5.528  0.0143 -0.1291  0.1620
31633W        W46764   1.707  15.784  12.708 -0.1366  0.1047  0.2157
31634W        W46765   6.873  12.006  13.545 -0.2837  0.1831  0.1190
31635W        W46766  14.039  16.265  13.133 -0.0092 -0.0037  0.0833
31636W        W46767   5.009  15.966  11.831  0.0786 -0.1895  0.0207
31637W        W46768  12.174   7.694   4.813  0.0633  0.0249  0.0139
31638W        W46769  17.340   5.497  11.547  0.0355  0.1194 -0.0523
31639W        W46770  14.783   1.054  13.672  0.2633  0.1168 -0.3104
31640W        W46771  18.051   2.801  16.118 -0.2343  0.1304  0.1769
31641W        W46772   1.144   8.911   0.259  0.1301  0.1364  0.0978
31642W        W46773   7.844   9.008  14.347 -0.0044  0.1403  0.3111
31643W        W46774   2.987  12.043   1.642 -0.0984  0.3334 -0.0547
31644W        W46775   2.636  15.801   2.248 -0.0926 -0.3152  0.1209
31645W        W46776  10.780  11.966  14.174 -0.0737 -0.1045  0.0941
31646W        W46777  17.718  16.611  11.432 -0.1089  0.0309 -0.1136
31647W        W46778   7.475  16.780   2.415 -0.2300  0.1379 -0.0572
31648W        W46779   3.527  12.060   4.494  0.0377  0.0086  0.1503
31649W        W46780   5.874   3.762   5.309  0.2130  0.0016  0.1914
31650W        W46781   9.189   1.153  11.964 -0.0732  0.1804 -0.2574
31651W        W46782  14.076   8.483   3.382  0.2577 -0.1869 -0.1952
31652W        W46783   0.480  13.957   0.380  0.0864  0.0596  0.2104
31653W        W46784   9.871   1.415  14.700 -0.0557  0.0183  0.0203
31654W        W46785   3.298   4.319   1.340  0.0757  0.2482 -0.2490
31655W        W46786   0.242  15.799  12.355 -0.1011  0.0789 -0.1896
31656W        W46787   4.902   9.721   4.619 -0.1265 -0.1124  0.0028
31657W        W46788   0.742   1.080   2.914 -0.0328  0.2010 -0.5094
31658W        W46789   5.581  11.401   1.587 -0.1779 -0.0481 -0.1089
31659W        W46790  12.716   8.436   5.490  0.0823 -0.0342  0.0687
31660W        W46791  11.977   0.088   1.221 -0.1690  0.0057 -0.1849
31661W        W46792   0.162   8.774   4.535 -0.2995  0.2107  0.2470
31662W        W46793  15.268   5.444  13.657 -0.3316 -0.0080 -0.1561
31663W        W46794   2.204  15.226   0.898  0.0295 -0.0759  0.3583
31664W        W46795  11.217   6.322   0.416 -0.2492  0.1371  0.4104
31665W        W46796   4.019   5.891  11.949  0.1202 -0.0117  0.2060
31666W        W46797  17.967   0.788  15.718 -0.0933 -0.3001 -0.2821
31667W        W46798  15.128   6.944  10.842 -0.0169  0.1386  0.2415
31668W        W46799   8.416  14.309  11.293  0.2572 -0.0324  0.0297
31669W        W46800  18.049   8.366  13.601 -0.5642  0.1759  0.0817
31670W        W46801  13.967   4.975   4.897  0.0834  0.3853  0.0026
31671W        W46802   8.313   7.530  12.948 -0.2505  0.0622 -0.1733
31672W        W46803   4.253   9.519   4.542  0.2058  0.0838  0.0460
31673W        W46804   7.276   4.940   0.127 -0.1138  0.3968 -0.0784
31674W        W46805   5.613   1.483  14.941  0.0848  0.1074  0.0503
31675W        W46806   8.679  10.071   3.083 -0.1686 -0.0867 -0.1299
31676W        W46807   8.508   5.214  15.913  0.4090  0.1941  0.2152
31677W        W46808   9.149  17.037  12.890 -0.0130 -0.1709 -0.1084
31678W        W46809   3.650   4.226   0.960 -0.1053  0.0088  0.1250
31679W        W46810   8.761  10.193  15.603 -0.1584 -0.0212  0.0950
31680W        W46811  13.712   6.664   1.400 -0.0609 -0.0352 -0.1051
31681W        W46812   2.799  16.705   3.422 -0.2420 -0.0447  0.4139
31682W        W46813   8.339   8.935   1.809 -0.0542  0.2491 -0.2419
31683W        W46814  11.786  10.897   5.252  0.0267 -0.1860 -0.2954
31684W        W46815  16.620   7.345   0.552  0.1194 -0.2838  0.1154
31685W        W46816   7.451   1.450  10.376  0.1341  0.2078  0.3081
31686W        W46817  17.854  14.775  13.093  0.0076 -0.2150  0.2916
31687W        W46818   4.344  16.463   0.659 -0.2385 -0.2939 -0.2092
31688W        W46819  17.275  16.792  16.118  0.1618  0.2044 -0.2839
31689W        W46820   9.579  14.315  10.759  0.1189 -0.2076 -0.1444
31690W        W46821  12.154   6.359   4.752 -0.0796 -0.0017 -0.1420
31691W        W46822   2.189  14.316   2.400  0.1219 -0.1757  0.1675
31692W        W46823   7.949   9.777   2.172  0.0122  0.0328  0.0318
31693W        W46824  16.335  14.260   0.454 -0.1239  0.1103 -0.0447
31694W        W46825   7.307  15.118  11.462 -0.0840  0.3320 -0.0868
31695W        W46826   1.795   7.785   4.216 -0.1526  0.1998  0.0651
31696W        W46827   0.975   8.598  11.844 -0.1623  0.0508  0.2775
31697W        W46828  17.315  16.863   2.312  0.1014  0.0057 -0.0271
31698W        W46829  15.483  13.707   5.119  0.0691 -0.0091  0.0923
31699W        W46830  11.314  11.474   4.039 -0.0568 -0.1713  0.4262
31700W        W46831   7.991  15.544  15.574  0.0266 -0.2595  0.0855
31701W        W46832  17.535   3.299  14.808 -0.1334  0.1089  0.0347
31702W        W46833   5.377  11.259  13.087  0.2969  0.1762  0.0218
31703W        W46834   9.001   9.182   3.598 -0.0364  0.0294 -0.2074
31704W        W46835   3.928   7.215  11.304  0.2657 -0.0117  0.1798
31705W        W46836  17.624   4.386   5.411 -0.2218 -0.0684 -0.1859
31706W        W46837  14.441   3.219   2.277  0.0608  0.2145  0.0701
31707W        W46838   1.311  11.603   3.334 -0.0485 -0.2683 -0.3786
31708W        W46839  10.840  17.321   0.825 -0.0660  0.1275  0.2580
31709W        W46840   1.111  10.739  14.322  0.2655 -0.0860 -0.1849
31710W        W46841  14.243  11.603   5.191 -0.0233 -0.3829  0.0487
31711W        W46842   6.707   3.376  10.015  0.1431 -0.1868  0.2404
31712W        W46843   4.161  15.924  11.611  0.0651 -0.1468  0.2375
31713W        W46844  13.160  13.380  15.514 -0.1498 -0.2752 -0.1557
31714W        W46845  13.815  13.463   6.333  0.2561 -0.1711  0.1696
31715W        W46846  14.194  13.060  11.185 -0.0130  0.2649  0.5024
31716W        W46847   3.050   6.053   6.317  0.2473  0.1529 -0.2555
31717W        W46848   3.927  16.869  15.256 -0.0956  0.0286 -0.0436
31718W        W46849  10.891  11.492  14.183 -0.0038  0.0250 -0.0166
31719W        W46850  17.982   3.657   2.925 -0.1007  0.1979 -0.0004
31720W        W46851   4.760   4.069   2.616  0.0615 -0.2320  0.0408
31721W        W46852  17.599   5.051   5.479 -0.0317  0.0812 -0.2590
31722W        W46853   8.833   7.243   1.277 -0.2462  0.0789  0.0916
31723W        W46854  16.989  14.462   4.637 -0.0247  0.1484  0.0672
31724W        W46855  14.058   0.737  14.050  0.3446 -0.0893  0.1964
31725W        W46856   1.340  14.951  13.938 -0.1713 -0.0741  0.0103
31726W        W46857   8.444   2.074   0.499  0.3669 -0.1501 -0.0984
31727W        W46858   6.575  10.539  16.111  0.0153  0.2006 -0.2793
31728W        W46859  14.081  14.392  15.904 -0.0403  0.0331 -0.1756
31729W        W46860  17.327   6.088  11.440 -0.0787 -0.0775 -0.0950
31730W        W46861   3.106  15.313  12.741  0.1166  0.3836  0.0255
31731W        W46862   2.408   7.897  14.266 -0.4299  0.1389 -0.2134
31732W        W46863  15.995   6.828  11.633  0.0121 -0.0013  0.2166
31733W        W46864   6.138  12.220   3.996 -0.3037  0.0434 -0.1075
31734W        W46865   9.374  16.278   1.587 -0.0554 -0.1067 -0.3116
31735W        W46866   1.492   7.064  14.811  0.2963 -0.4874 -0.1226
31736W        W46867   7.109  17.237  13.932 -0.0404 -0.0589  0.0417
31737W        W46868  16.324  13.955  15.980 -0.2499  0.1985  0.0210
31738W        W46869   4.441  10.988   6.127  0.0655  0.0745 -0.0200
31739W        W46870   6.155   7.622  12.324  0.0570 -0.2076  0.1017
31740W        W46871  15.937   4.374  10.320  0.0913 -0.2339 -0.1237
31741W        W46872   9.819  17.610  12.781 -0.0158 -0.0543 -0.0025
31742W        W46873  18.089  13.116  12.374 -0.1434 -0.1654  0.2680
31743W        W46874   4.772   2.801   0.964  0.0180  0.0837  0.1173
31744W        W46875  14.980  17.531  12.673 -0.1375 -0.1193  0.0161
31745W        W46876  17.481   4.629  13.170  0.3250  0.0167 -0.2681
31746W        W46877  17.263   5.282  15.195  0.4743 -0.0837 -0.1390
31747W        W46878  14.748   2.444  13.561 -0.1074 -0.2242 -0.3005
31748W        W46879   0.442   4.205  13.610 -0.1441  0.0498 -0.3152
31749W        W46880   9.950  14.544   5.037  0.0003 -0.0343  0.0150
31750W        W46881   8.549  17.498   2.730  0.1538  0.1243 -0.1162
31751W        W46882  11.027   8.788  13.198  0.0395 -0.4136 -0.2180
31752W        W46883  17.798   1.392   0.218  0.0569  0.1134  0.0697
31753W        W46884  13.421  12.715   4.994  0.1169  0.0256  0.2404
31754W        W46885   9.675  11.577  13.443 -0.0236 -0.0975  0.3349
31755W        W46886   1.846   6.193   4.683  0.0516  0.1023  0.0167
31756W        W46887   6.653   6.175   5.219 -0.1541  0.3824  0.2404
31757W        W46888   0.685   0.402   1.153 -0.0857 -0.0596 -0.0964
31758W        W46889   2.932   8.573   0.398  0.1088  0.0213  0.5108
31759W        W46890  12.521   6.834   0.641 -0.0809  0.0756 -0.1849
31760W        W46891   1.414  16.247   4.687  0.1120  0.1442  0.3187
31761W        W46892   8.443  12.368   3.234 -0.2602 -0.3359  0.0274
31762W        W46893  13.265   4.798  13.091  0.0704 -0.0597  0.2248
31763W        W46894  12.302  10.887  13.997  0.0196  0.4122  0.2910
31764W        W46895   7.464   6.459   2.128 -0.1549 -0.0246 -0.0509
31765W        W46896   9.431   9.465   0.445  0.0873 -0.0224  0.0028
31766W        W46897   7.835  10.796   0.133  0.0127 -0.4438  0.0976
31767W        W46898  12.828  16.768   1.951 -0.2585 -0.1110 -0.1743
31768W        W46899  14.218   1.183   1.768 -0.0742  0.1763  0.2430
31769W        W46900  12.647   8.789  15.507 -0.1068  0.4415  0.1064
31770W        W46901  12.795  17.434  14.030 -0.0397  0.3794  0.0327
31771W        W46902   4.530   7.665  10.126  0.2096 -0.1997  0.2859
31772W        W46903  14.272  12.920   1.854 -0.1103  0.1975 -0.0915
31773W        W46904  11.885   3.689   4.351 -0.0006 -0.0326 -0.1753
31774W        W46905   3.854  13.100   4.678 -0.2361  0.0831  0.1042
31775W        W46906   5.074   3.670  11.715 -0.0494 -0.1227  0.1906
31776W        W46907  12.971   0.222   0.532 -0.4218 -0.3367 -0.1545
31777W        W46908   4.205   0.305   5.599 -0.1778 -0.1808  0.1291
31778W        W46909  10.949  12.422   3.060  0.2541  0.0977  0.2624
31779W        W46910   9.317   6.710  13.546 -0.1301 -0.0340 -0.0888
31780W        W46911   2.847  13.960   3.659 -0.1758  0.1703 -0.0408
31781W        W46912  16.770  11.007  14.394 -0.1004 -0.0271  0.2151
31782W        W46913   7.542   8.520  15.142  0.0372  0.0996 -0.0402
31783W        W46914  17.479   0.581  15.767 -0.0261  0.4774 -0.0862
31784W        W46915   7.398   2.892   1.218 -0.1117  0.1136 -0.0765
31785W        W46916   8.199   2.114   4.200  0.2234  0.2104  0.4172
31786W        W46917   7.150   8.504   2.870  0.0220  0.2191 -0.0776
31787W        W46918   3.986   1.947  11.857 -0.2276  0.0449  0.1128
31788W        W46919  14.818  14.613   3.051  0.1369  0.0552 -0.0523
31789W        W46920   7.430   8.588  16.160  0.0717 -0.2117 -0.3550
31790W        W46921   1.095   9.401   1.754  0.0030 -0.1339 -0.2720
31791W        W46922   0.284  12.113   0.166  0.1641 -0.2661 -0.0099
31792W        W46923   4.514   2.720   2.810  0.1199 -0.2481  0.0205
31793W        W46924   1.081  18.001  11.440  0.2454  0.1906  0.1455
31794W        W46925   8.726   7.105   4.243 -0.0022  0.2808  0.1882
31795W        W46926   1.383   9.053   1.092 -0.0694 -0.0880 -0.0536
31796W        W46927   5.421  12.739  16.067  0.0475  0.1357 -0.1674
31797W        W46928   6.680  17.519   2.838 -0.0628  0.1837 -0.2332
31798W        W46929  16.142  11.306  16.140  0.2425 -0.1542 -0.0333
31799W        W46930  13.242  17.731  15.197 -0.0360 -0.2418  0.0479
31800W        W46931   3.614  16.410  15.943  0.1200  0.2631 -0.5030
31801W        W46932   8.266  16.555  15.792 -0.0358  0.1882 -0.0033
31802W        W46933  13.497  11.577  16.146  0.0152 -0.1598  0.3687
31803W        W46934   4.864   1.863   2.388  0.0797  0.1971  0.0950
31804W        W46935  10.992   4.150  14.382  0.1174  0.1999  0.1431
31805W        W46936   5.531  16.773  11.915 -0.0283 -0.1541 -0.1296
31806W        W46937   7.656   6.725   2.592 -0.0814  0.4178  0.1776
31807W        W46938  12.591   7.334   1.578  0.1608  0.0112  0.0811
31808W        W46939   1.177   3.121   5.630 -0.0446 -0.1674  0.1276
31809W        W46940  10.356   9.131   2.353  0.2383 -0.0782  0.1873
31810W        W46941  12.317   7.078   0.255  0.1481  0.0741  0.0032
31811W        W46942   6.471   9.008  15.789  0.1098  0.0960  0.1107
31812W        W46943   8.184  16.804  14.432 -0.1870  0.3174  0.1913
31813W        W46944  17.355  14.234  11.201  0.1472 -0.2282 -0.2013
31814W        W46945  10.530   0.172  12.282 -0.0704  0.1264  0.2575
31815W        W46946  15.570   1.796   3.026 -0.1408 -0.0440 -0.2957
31816W        W46947  14.137  11.707  14.191 -0.2402  0.3328 -0.0424
31817W        W46948  12.340   3.891  12.368  0.0966 -0.0732 -0.0225
31818W        W46949   1.612  14.111   2.992  0.0124 -0.1992  0.2146
31819W        W46950  14.549  12.874   4.509 -0.0238 -0.3206  0.3757
31820W        W46951  15.292  11.313  12.663  0.2558 -0.1800  0.2384
31821W        W46952  10.323   8.954   4.869 -0.0011  0.1078 -0.2281
31822W        W46953  12.437   2.571  13.409  0.2187 -0.0445 -0.1576
31823W        W46954  11.371  11.312   0.637 -0.0308 -0.0333 -0.0156
31824W        W46955   0.873   3.459   3.143  0.1971  0.2579 -0.0282
31825W        W46956  15.185   9.739  15.545  0.2114 -0.0778  0.1697
31826W        W46957  15.681  16.677  13.389 -0.1929 -0.0844  0.0621
31827W        W46958  14.578   6.538   1.726 -0.1108  0.3864  0.1350
31828W        W46959   8.525   0.933  12.612  0.1657  0.0473 -0.0629
31829W        W46960  14.544   7.524   0.319  0.2118  0.2367  0.1075
31830W        W46961  13.214  11.002   1.752  0.0430  0.0662 -0.1371
31831W        W46962  15.624  14.309   4.468  0.1260 -0.0172 -0.0748
31832W        W46963  12.664  11.978   0.379  0.3098 -0.0702  0.4213
31833W        W46964  15.331  11.321   4.968  0.0259  0.1710  0.4619
31834W        W46965  11.948  15.362   9.796  0.3726 -0.0678  0.1288
31835W        W46966  10.652  13.642  13.388 -0.1336  0.0186 -0.0943
31836W        W46967   8.086  16.584   1.622 -0.1810 -0.0319  0.1305
31837W        W46968   4.913  14.691   1.431 -0.0155  0.0475  0.3427
31838W        W46969  15.038  12.885   3.250  0.1850 -0.1820  0.0523
31839W        W46970  10.026  15.594  14.703  0.3500 -0.1430 -0.2828
31840W        W46971  11.395   2.820   3.626 -0.1282 -0.0374  0.4638
31841W        W46972   5.104  16.892  11.592 -0.1268 -0.2630 -0.0475
31842W        W46973   1.362  15.868  12.087 -0.0808  0.0490  0.1025
31843W        W46974   2.886  16.951  10.251 -0.0563  0.4798 -0.1926
31844W        W46975  15.605   0.175  10.729  0.0002 -0.1731 -0.0892
31845W        W46976  12.443   7.458  12.545 -0.2473 -0.2884 -0.1578
31846W        W46977  16.605  11.175  15.318 -0.0915  0.0441  0.2225
31847W        W46978   0.135   7.162   1.338 -0.1041  0.1089  0.2059
31848W        W46979  14.151  17.381   5.066 -0.0518  0.0662  0.1673
31849W        W46980  12.470  11.982   1.279 -0.1888  0.0666 -0.1561
31850W        W46981   1.201  13.279   5.046  0.1690 -0.3315 -0.0639
31851W        W46982  15.561  13.860   0.309  0.2798  0.2340 -0.0492
31852W        W46983  12.312  12.290  11.925  0.0816 -0.0537  0.2967
31853W        W46984   6.022  17.203  13.832  0.0930 -0.0715 -0.0603
31854W        W46985  14.140  10.421   2.598  0.3129 -0.3340 -0.0769
31855W        W46986   3.811   9.408  15.443 -0.2464 -0.1751 -0.1276
31856W        W46987  16.374   3.619   2.424 -0.1287 -0.2534  0.0420
31857W        W46988  16.886  10.824  13.911  0.4664  0.3845  0.2368
31858W        W46989  12.207  16.792  14.428 -0.3045  0.1109  0.0036
31859W        W46990   3.835  13.696   2.382  0.1860 -0.0650  0.1397
31860W        W46991  13.371  12.998   1.564 -0.0292 -0.3222 -0.1422
31861W        W46992  10.470   0.991   4.065 -0.0206 -0.1604 -0.1541
31862W        W46993   4.752   4.886   2.458 -0.1222  0.2391 -0.2934
31863W        W46994  12.112   8.531  12.449 -0.2799  0.3913 -0.0754
31864W        W46995  13.087   9.600  12.420  0.0398  0.1121  0.0787
31865W        W46996   4.837  14.246  13.818  0.0645 -0.1459 -0.1042
31866W        W46997   6.347   0.277  11.296 -0.2713 -0.0639  0.0263
31867W        W46998  12.723  14.932   4.321  0.1310 -0.0579 -0.2802
31868W        W46999   9.510   8.295  14.872 -0.0245  0.1130 -0.1746
31869W        W47000  13.998  14.954  11.907  0.0617  0.0450 -0.0725
31870W        W47001   3.540   9.369   3.495 -0.1509 -0.0076  0.0246
31871W        W47002   9.781   4.132  10.778 -0.0504 -0.0882 -0.0550
31872W        W47003   0.989  14.608  16.095 -0.0453  0.1495  0.1630
31873W        W47004  14.483  16.313   4.680  0.0597  0.0216 -0.1762
31874W        W47005   1.174  14.384  15.679 -0.3005  0.1200 -0.0223
31875W        W47006  17.653  17.314  14.239  0.0450 -0.3040  0.1163
31876W        W47007   4.864   8.907   2.249  0.1299  0.0337  0.1935
31877W        W47008  14.513  14.058  11.217  0.1488  0.1206 -0.1167
31878W        W47009  10.434   8.086   4.010 -0.0120 -0.0514 -0.0459
31879W        W47010   8.666  10.612   2.311  0.0407 -0.0442  0.0196
31880W        W47011   0.264   6.530  12.088  0.0977 -0.1920  0.0898
31881W        W47012   7.588  14.912  12.017  0.1732  0.0457 -0.1759
31882W        W47013   8.152  12.157  12.515 -0.2378 -0.2447 -0.0475
31883W        W47014   2.727   5.307  12.806  0.0757  0.0147  0.0442
31884W        W47015   3.103  14.187   0.173 -0.1443  0.0440  0.0633
31885W        W47016   7.658   0.559   4.597  0.0295 -0.0007  0.2224
31886W        W47017  13.014  10.829  16.035  0.0089 -0.1598 -0.1029
31887W        W47018   1.919   4.830   3.653 -0.0043 -0.2493 -0.0598
31888W        W47019   0.590   5.130   4.447  0.1606 -0.0519 -0.2065
31889W        W47020  14.672   2.713   5.473 -0.1342  0.0881  0.4064
31890W        W47021   9.429  11.482  11.361 -0.2971 -0.0443  0.0747
31891W        W47022   4.389   5.664  14.242  0.0996  0.1660 -0.0384
31892W        W47023   5.859   0.216   6.277 -0.2085 -0.0950 -0.0209
31893W        W47024  12.099   1.665  14.722  0.0305 -0.0040 -0.3313
31894W        W47025  12.371  15.191   0.968 -0.2780 -0.0894 -0.2109
31895W        W47026   5.788  16.727  12.872 -0.1782 -0.1395 -0.0741
31896W        W47027   8.094  16.962   4.141  0.0855  0.1903  0.0555
31897W        W47028  12.373  12.417   5.659  0.0934  0.2322 -0.1588
31898W        W47029   0.670  10.282   3.957 -0.1148  0.1534  0.0077
31899W        W47030  17.635  15.160   4.842  0.0576  0.0751 -0.1821
31900W        W47031  16.961   0.244   1.480 -0.3071  0.2637 -0.1561
31901W        W47032  10.108  13.317   1.145 -0.0249 -0.1204 -0.0866
31902W        W47033   1.333  17.567   5.267  0.1375 -0.0436  0.1129
31903W        W47034  12.230   3.399   1.779  0.0330 -0.1344 -0.1928
31904W        W47035   5.824  13.026   3.138  0.1781  0.0243  0.0813
31905W        W47036  10.447  16.917   0.814  0.2227  0.0787 -0.0760
31906W        W47037  16.227   9.679  16.104  0.1085 -0.0099 -0.1603
31907W        W47038  14.342   4.823   1.739  0.1173 -0.0068  0.0470
31908W        W47039  10.249   6.660   4.160  0.2006  0.0368  0.1808
31909W        W47040  10.801   1.979  14.819  0.3641 -0.0320  0.0187
31910W        W47041   9.293   6.143   3.747  0.2113  0.0953  0.2924
31911W        W47042  16.867   9.855  13.650 -0.2820 -0.0410  0.3918
31912W        W47043   0.577  10.254  15.095 -0.0591  0.2378 -0.3078
31913W        W47044  13.554  18.030  12.665  0.0126  0.1261  0.1742
31914W        W47045  11.790  17.132  14.976 -0.1751 -0.1647  0.1707
31915W        W47046   2.461   4.625  12.227 -0.0665  0.0771 -0.1423
31916W        W47047  15.962  10.917  11.516  0.0518 -0.3315 -0.0173
31917W        W47048  16.794   9.946   3.569 -0.1350  0.2445  0.3194
31918W        W47049  14.160   3.497   4.888 -0.2409  0.1686  0.2764
31919W        W47050  13.255   5.398  12.559 -0.1682 -0.4137  0.2884
31920W        W47051  13.585   7.632   1.551  0.1942 -0.1227 -0.2542
31921W        W47052   1.434   7.230  13.229  0.0640  0.0605  0.0230
31922W        W47053  11.534   8.855   0.056  0.0399 -0.0945 -0.1348
31923W        W47054   7.678  15.232   0.876  0.0290  0.0194  0.0568
31924W        W47055   8.834  12.529  14.681 -0.4208 -0.0877  0.0834
31925W        W47056  10.272   4.010   0.143 -0.0033  0.2442  0.0003
31926W        W47057  13.550   3.191   3.824 -0.1345  0.0787 -0.1572
31927W        W47058   9.087  13.453   3.510  0.1329 -0.1112  0.2795
31928W        W47059   1.448   5.546  13.011 -0.1650 -0.0596 -0.2660
31929W        W47060   2.007  16.426  15.179 -0.0879  0.1033 -0.1583
31930W        W47061   6.239   5.857   1.687 -0.0959 -0.1355  0.3205
31931W        W47062  18.020   7.135   0.802  0.0701  0.1439  0.1649
31932W        W47063   7.198  11.619   4.250  0.3453  0.1054  0.0654
31933W        W47064   2.105   8.251  14.096 -0.0236  0.3328  0.0698
31934W        W47065  13.919   7.097   2.126  0.1098  0.1374 -0.0834
31935W        W47066  17.438   7.291  12.764  0.0006 -0.2055 -0.4224
31936W        W47067   9.322  13.256  15.735 -0.2917 -0.0792 -0.0448
31937W        W47068   1.347   2.268  13.849 -0.1074 -0.1872 -0.1756
31938W        W47069  17.106  14.588  15.819  0.0261 -0.0071 -0.0109
31939W        W47070   3.715   3.853  11.264 -0.0764  0.1420  0.1637
31940W        W47071   0.455   1.327  15.926 -0.1178  0.0316  0.0842
31941W        W47072  12.933  14.334  15.707 -0.0644  0.0625 -0.1594
31942W        W47073  17.818  13.948  12.282  0.0636 -0.1665 -0.2097
31943W        W47074   6.128  10.020   3.011 -0.0443  0.0956 -0.1446
31944W        W47075  10.498   0.734   0.215 -0.0765  0.0918  0.2241
31945W        W47076  12.967   6.586  11.755  0.1490  0.1315  0.2950
31946W        W47077   0.664   3.160   1.955  0.2142  0.0901 -0.1731
31947W        W47078   0.776   0.272  14.024 -0.0919 -0.0710  0.1145
31948W        W47079  13.860  10.129  14.381  0.0761 -0.4110 -0.0873
31949W        W47080   2.308  13.846   3.677 -0.3240 -0.4385 -0.0652
31950W        W47081   6.715   9.268   3.777 -0.0421  0.1568 -0.1564
31951W        W47082   1.334   2.832  15.850  0.1978 -0.1857 -0.2343
31952W        W47083   1.631   1.985   1.300  0.1586 -0.1630 -0.3539
31953W        W47084   0.443   7.518  11.063  0.0877 -0.2417 -0.2170
31954W        W47085   9.589  12.838  15.781  0.1103  0.0712  0.0417
31955W        W47086  12.301  15.130  15.717  0.0500 -0.1689 -0.2324
31956W        W47087  10.721   2.185   3.455 -0.0221  0.1956  0.0589
31957W        W47088  14.239  17.039   4.682  0.1480 -0.6147 -0.0019
31958W        W47089  11.641   4.381   1.375  0.2417  0.1110  0.1186
31959W        W47090   2.801  17.957   3.161  0.1937  0.2016 -0.0125
31960W        W47091   9.499  12.755  12.711  0.2356  0.0928 -0.0364
31961W        W47092   5.053   5.216   1.962 -0.0638 -0.3359  0.1199
31962W        W47093  15.687  14.877  12.865  0.0507  0.0868  0.0858
31963W        W47094   6.244   7.361  11.841  0.0432  0.3624 -0.4756
31964W        W47095  13.263   4.838   2.236  0.3274 -0.1445  0.1969
31965W        W47096  10.349   1.622   4.148  0.0969 -0.1253  0.0860
31966W        W47097  14.554  17.908  14.257 -0.2888 -0.2378  0.3161
31967W        W47098  15.204   8.145   0.842 -0.1238 -0.4907  0.2246
31968W        W47099   6.685   4.419   0.788  0.1660  0.0581 -0.4395
31969W        W47100   1.035   4.083  14.729 -0.0763 -0.2155  0.0196
31970W        W47101   9.940  14.018  15.745 -0.2450  0.2191  0.1591
31971W        W47102   8.836   8.896   1.167  0.1100 -0.0080 -0.0514
31972W        W47103   2.541   9.123   3.792 -0.0511 -0.0168  0.1568
31973W        W47104   4.961   3.073  12.619 -0.1942 -0.0339  0.0360
31974W        W47105  13.618  17.840   4.196  0.1458 -0.0602 -0.1104
31975W        W47106  17.150   2.817  15.197  0.3533  0.4774 -0.1402
31976W        W47107  17.037   8.202   0.591  0.3042  0.2373  0.1026
31977W        W47108   9.213  12.523  10.420 -0.2330 -0.0300  0.1246
31978W        W47109   5.124  17.982   0.158  0.0714  0.1109  0.0376
31979W        W47110  14.555  17.623   0.171  0.1142  0.2252  0.0767
31980W        W47111   2.387   7.610  13.033 -0.1185 -0.1810  0.1657
31981W        W47112   9.017   3.625   5.355 -0.2348  0.2525 -0.2132
31982W        W47113  14.078  14.527  14.046  0.1993 -0.1250  0.0318
31983W        W47114   9.061   4.742  15.922  0.0552  0.2415 -0.1219
31984W        W47115  16.642   9.881   1.477 -0.2522  0.1240  0.1819
31985W        W47116   5.974  15.246   1.008  0.0985  0.2740 -0.1453
31986W        W47117   8.168   4.598   0.273 -0.0253  0.0680 -0.0616
31987W        W47118  13.071   9.564  15.372  0.0755  0.0728 -0.0264
31988W        W47119  12.407   5.032   5.994 -0.1008 -0.2726  0.0348
31989W        W47120   0.675   3.384  12.411 -0.0005 -0.1210 -0.2250
31990W        W47121   3.887  17.827   5.211  0.2266  0.0071 -0.1091
31991W        W47122   1.300  12.391  15.659 -0.2501  0.3294  0.3423
31992W        W47123  12.744   1.565   4.188 -0.2628  0.1329  0.0558
31993W        W47124   9.504  18.025   3.216  0.0830 -0.0243  0.1799
31994W        W47125   8.287   2.085  11.552 -0.1398 -0.0419  0.1025
31995W        W47126   0.691  13.708   3.289  0.1802  0.1368 -0.2034
31996W        W47127  10.710  15.252  12.063 -0.0163  0.0475  0.0924
31997W        W47128  15.418   0.626  12.538 -0.3022 -0.2093  0.1677
31998W        W47129   2.350   4.567   5.615  0.0168 -0.2403 -0.1430
31999W        W47130   0.078  11.644   2.263 -0.0050 -0.1988  0.0583
32000W        W47131   0.836  14.386  11.638  0.0485  0.2027  0.2092
32001W        W47132  10.749  15.146  14.356 -0.0149 -0.1420 -0.0967
32002W        W47133   8.727  16.174   4.239 -0.1490  0.3899  0.0139
32003W        W47134   2.226  12.643  15.376 -0.1707  0.0452  0.0473
32004W        W47135  10.316  17.409  12.102  0.1718 -0.1666  0.5142
32005W        W47136   0.869   8.414  15.795 -0.0047 -0.1157  0.1719
32006W        W47137  15.622  16.617   0.022 -0.0906 -0.1441 -0.0664
32007W        W47138   1.666   1.207  15.392  0.1488 -0.0570  0.0591
32008W        W47139   0.359  10.300   2.244  0.0752  0.2262 -0.0527
32009W        W47140  11.523   2.379   0.264  0.0264  0.1564  0.1036
32010W        W47141  14.133   6.987   0.881 -0.0963  0.1254 -0.1507
32011W        W47142   4.863  16.603  14.257  0.3704  0.2237 -0.2097
32012W        W47143  16.605  11.590   2.715 -0.0091 -0.0522  0.0172
32013W        W47144   2.988   8.895  11.771 -0.2216  0.0148  0.0143
32014W        W47145   8.818  16.567  16.200 -0.1004  0.2936  0.0542
32015W        W47146   1.963   5.455   1.856 -0.4923 -0.2050 -0.1528
32016W        W47147   5.410   2.744   3.772  0.0951 -0.3527 -0.0219
32017W        W47148   7.929   8.267   3.119  0.1522  0.1349 -0.1777
32018W        W47149  17.899   8.939  12.292  0.1437  0.1295 -0.0151
32019W        W47150  17.111   3.138   2.435 -0.1605  0.1408  0.0217
32020W        W47151   6.495   9.929   4.399 -0.2914  0.0610  0.1453
32021W        W47152   8.125   8.092   4.778 -0.3098  0.0151 -0.0024
32022W        W47153  16.088   3.967  10.888 -0.1314  0.1468  0.0591
32023W        W47154  16.150  10.430  12.731  0.0255 -0.4765 -0.0324
32024W        W47155   7.176  13.337   3.552 -0.0101  0.1661  0.0643
32025W        W47156   1.511  10.245  11.200 -0.0859  0.2560 -0.1167
32026W        W47157   0.208  17.549   4.503  0.2406  0.0475 -0.0761
32027W        W47158  13.097  16.498  11.850  0.0908  0.4120 -0.2212
32028W        W47159  10.625   3.176  14.222  0.1453 -0.2971 -0.0473
32029W        W47160   9.227  16.177   5.639  0.0134 -0.2402  0.0062
32030W        W47161  14.031  15.578  14.105  0.1117  0.0637  0.0215
32031W        W47162  16.292   5.969  14.247 -0.0800 -0.3055  0.0525
32032W        W47163  17.682  15.275   1.284 -0.0750  0.0604  0.0153
32033W        W47164   8.717  17.160   2.245 -0.0466 -0.0534 -0.1829
32034W        W47165  13.014   1.493   4.831  0.1059  0.0505 -0.4215
32035W        W47166  14.119  12.697   4.666 -0.2946  0.0299 -0.0533
32036W        W47167  11.688  16.147  11.947 -0.1956  0.0652 -0.0894
32037W        W47168   8.884  11.366   4.543  0.1816 -0.0897 -0.0656
32038W        W47169   7.257   5.553   0.909  0.1941 -0.0894 -0.0352
32039W        W47170   9.574  14.699   6.412  0.0483 -0.1455  0.0563
32040W        W47171   0.982   1.422  11.405 -0.0634 -0.1427 -0.2008
32041W        W47172  12.077   5.141  11.701 -0.0196  0.1016 -0.0874
32042W        W47173  12.769  16.854   4.273 -0.1825 -0.4205  0.0632
32043W        W47174   5.034  14.585   1.890  0.0992  0.2051 -0.0170
32044W        W47175   3.164  11.298  15.094  0.0804 -0.0575 -0.1112
32045W        W47176   0.474  15.616  15.086  0.1517 -0.3920  0.0037
32046W        W47177   8.381  12.710   4.158 -0.0486  0.1480  0.0928
32047W        W47178  16.241  17.441   0.660  0.3634  0.2835  0.1524
32048W        W47179   9.626  17.507   1.302  0.0169 -0.0650 -0.1378
32049W        W47180  14.631   0.097  12.109  0.2069 -0.1094  0.3333
32050W        W47181   3.902   1.991  13.798  0.0409 -0.0120 -0.0518
32051W        W47182   9.752  10.245   6.031 -0.2284  0.2230  0.1984
32052W        W47183  13.053   7.541   1.591  0.2160  0.3212  0.0561
32053W        W47184   3.973  18.084  11.837  0.3057 -0.2781 -0.3113
32054W        W47185  17.262  11.108  14.366 -0.1296  0.2160 -0.1333
32055W        W47186  12.539   4.177  11.435 -0.1219  0.1770  0.1452
32056W        W47187   8.919  16.183  15.076 -0.1535 -0.0079  0.0354
32057W        W47188   0.683   6.030   1.260  0.1232  0.1250 -0.2237
32058W        W47189  10.678  14.681   0.116 -0.0167  0.2560  0.4762
32059W        W47190   3.355  14.551   3.225  0.0800  0.0954 -0.0237
32060W        W47191   8.795   0.340   1.811 -0.0170  0.0425  0.0038
32061W        W47192   1.539   8.261  13.319  0.1541 -0.0543  0.1839
32062W        W47193  17.829   3.093  12.656  0.0699  0.2499 -0.2743
32063W        W47194  11.931  16.692   1.672  0.0378 -0.0577  0.0390
32064W        W47195   2.839   7.544  13.442  0.2060  0.2495 -0.1934
32065W        W47196   5.145   5.822  11.201 -0.2962 -0.1983  0.0454
32066W        W47197   0.140   1.719   3.889  0.0364  0.1802  0.0974
32067W        W47198   3.241  11.685   0.784 -0.3004  0.0835 -0.0010
32068W        W47199  13.988   5.640   5.510  0.1854  0.1801 -0.1327
32069W        W47200   5.317   2.186   3.107  0.3653  0.0314  0.2821
32070W        W47201   4.892   8.988  13.380 -0.3453  0.2998 -0.0565
32071W        W47202  17.930   0.049   5.091 -0.1508 -0.1849  0.1643
32072W        W47203   7.197  13.130  11.240  0.1330  0.0411 -0.0187
32073W        W47204   8.580  17.613  11.961 -0.0837 -0.0403  0.1488
32074W        W47205   7.602  12.153  12.502  0.0967 -0.1003 -0.1871
32075W        W47206  14.672   0.625   4.759 -0.1410 -0.1097  0.3426
32076W        W47207   6.502   7.469   5.019 -0.0459 -0.0284  0.2311
32077W        W47208   4.129   3.164  13.096 -0.2229  0.0384  0.2278
32078W        W47209  12.984   3.477  10.839 -0.0180 -0.1141  0.2043
32079W        W47210   9.578   7.819   0.327  0.1036 -0.0111  0.0604
32080W        W47211  15.077   5.954  13.807 -0.1231 -0.2240 -0.0559
32081W        W47212   6.585  15.949   1.592 -0.0558  0.1363  0.0715
32082W        W47213   4.950   8.780  11.037 -0.3948 -0.1490 -0.2166
32083W        W47214   6.094   2.869   0.040 -0.1698 -0.0569  0.3058
32084W        W47215   0.840   6.776   3.040 -0.0780  0.0020 -0.0040
32085W        W47216  16.172  13.961  11.738 -0.2844 -0.2243 -0.0710
32086W        W47217  15.697   7.215  12.487  0.3030  0.1293  0.2077
32087W        W47218  17.245  16.165  16.073  0.7353  0.2439  0.0137
32088W        W47219   7.830  10.413   0.467 -0.0645  0.1460  0.0709
32089W        W47220  13.146  10.336  13.742 -0.1344  0.1341 -0.2046
32090W        W47221   5.821  15.376   3.785  0.0094 -0.2576  0.0554
32091W        W47222   0.465  16.526   5.318 -0.0617 -0.1909 -0.2397
32092W        W47223  16.685   9.364   3.344  0.0205 -0.1376  0.0902
32093W        W47224   8.517   3.410  11.812  0.1409  0.1880  0.0526
32094W        W47225  16.504   0.473   3.195  0.2960  0.0718  0.1159
32095W        W47226   1.959   2.834   3.680  0.1204 -0.0862  0.0798
32096W        W47227   0.494   8.942   1.335  0.0383 -0.1626 -0.0129
32097W        W47228   0.147   9.172   0.371  0.5399 -0.3719 -0.0697
32098W        W47229   6.213  12.269  12.985 -0.1699 -0.3539  0.0364
32099W        W47230  10.804   0.139  11.233  0.1993 -0.1617 -0.0816
32100W        W47231  12.490   0.026  14.149 -0.1955  0.1200 -0.1347
32101W        W47232  10.291   4.995   1.484  0.0680  0.2198 -0.2692
32102W        W47233  10.288  13.761   2.069 -0.4541 -0.1581  0.2424
32103W        W47234  11.587   1.378   1.934 -0.0911  0.1516 -0.0402
32104W        W47235  16.568   7.778   1.973 -0.1516 -0.2091 -0.0109
32105W        W47236   5.010  15.120  13.592 -0.1373  0.1031 -0.0308
32106W        W47237   3.418  15.584   2.540  0.2445  0.1232 -0.0482
32107W        W47238  11.214   0.616  14.601 -0.0442  0.1397  0.1164
32108W        W47239  12.872  14.456  14.681 -0.0895  0.1347 -0.2016
32109W        W47240   8.344  13.506   1.525 -0.0062  0.1731  0.0626
32110W        W47241  12.852  17.342   5.774  0.0913  0.4693 -0.0576
32111W        W47242  13.379  12.185   2.823  0.1372  0.1248 -0.0273
32112W        W47243   6.301   9.057  15.190 -0.3758 -0.0304 -0.2310
32113W        W47244   2.288  17.172   1.056  0.0294  0.1460  0.0529
32114W        W47245  16.064  16.564   0.201  0.0604 -0.4950  0.2937
32115W        W47246   3.483  16.505  11.585 -0.3385 -0.0112 -0.2387
32116W        W47247   5.577  14.041   5.392 -0.0870  0.1842 -0.2059
32117W        W47248  10.115  17.406  13.793  0.2254  0.1517 -0.0755
32118W        W47249   5.785   7.429  15.312  0.0993  0.1436 -0.1235
32119W        W47250   4.881  14.171   1.524 -0.0103  0.0470  0.2119
32120W        W47251  10.515  12.477  12.523  0.0782 -0.1971  0.3494
32121W        W47252   9.596   5.376   2.143 -0.0202 -0.4759  0.2060
32122W        W47253  14.531   7.656   5.667 -0.1945  0.2802 -0.0239
32123W        W47254   6.393  10.288   0.239 -0.0962  0.1745  0.1340
32124W        W47255  17.518   4.915   3.146  0.0549 -0.2302  0.0605
32125W        W47256  15.745   7.699   4.238 -0.0012 -0.1718 -0.1102
32126W        W47257   3.498   5.207   5.127  0.1772 -0.1795 -0.0071
32127W        W47258  10.991   1.808  13.618  0.3412  0.0419  0.2368
32128W        W47259  12.505   0.538  11.740  0.0122  0.1300 -0.1562
32129W        W47260   7.879   9.250  14.861  0.0413 -0.1954 -0.1914
32130W        W47261   9.300   7.667   4.515 -0.0146  0.1748  0.1860
32131W        W47262  18.013  15.310  14.286  0.0030  0.0495 -0.1860
32132W        W47263   7.778  13.594   0.127 -0.1115  0.2674  0.1838
32133W        W47264   0.938  14.634  13.873 -0.1521  0.2162 -0.0627
32134W        W47265  11.867   9.617   1.413  0.0801  0.1379 -0.0519
32135W        W47266   3.929   8.008   2.378  0.3965 -0.0766  0.1890
32136W        W47267  14.268  18.058  13.301 -0.2126 -0.0575  0.0718
32137W        W47268   3.316   6.883   2.543 -0.0872  0.3206 -0.1221
32138W        W47269  14.460   2.423   9.941  0.1742  0.1511 -0.1917
32139W        W47270   1.448   7.055  15.473  0.0481  0.1339  0.0005
32140W        W47271   3.180  17.002   2.385  0.0472 -0.1419 -0.1350
32141W        W47272   3.027  12.804  14.298  0.1549 -0.2197 -0.0650
32142W        W47273  16.685  11.954  15.214  0.3027  0.0750 -0.3192
32143W        W47274   3.100   4.354   0.862 -0.1386 -0.1327 -0.1589
32144W        W47275   0.730  11.249  12.986 -0.0591  0.2492  0.0433
32145W        W47276   0.220  10.709  10.972  0.1034  0.0060 -0.1338
32146W        W47277   5.515  12.524  15.094  0.2680 -0.0877  0.2507
32147W        W47278   2.932   1.462  15.090  0.0042  0.0368 -0.2588
32148W        W47279   3.662  11.867   0.464  0.0305  0.0648  0.1261
32149W        W47280   7.536  12.285  14.590  0.0689  0.1070 -0.0854
32150W        W47281  11.506   3.286   4.565  0.0577  0.1653  0.1477
32151W        W47282   8.957   2.565   2.296 -0.3623 -0.5774 -0.1118
32152W        W47283  14.966  13.335   5.142 -0.3154 -0.0129 -0.0349
32153W        W47284  11.936   1.604  10.865  0.2495 -0.0619  0.0541
32154W        W47285  13.634   5.980   5.212 -0.0490 -0.3242 -0.1664
32155W        W47286  17.254   9.924  13.028  0.5508 -0.1799 -0.0613
32156W        W47287   3.606  13.381  12.698  0.1523 -0.1275  0.1530
32157W        W47288   5.195   8.403   0.421  0.0275 -0.1915  0.2885
32158W        W47289  12.677   3.731   5.150 -0.1686  0.3277  0.2152
32159W        W47290  17.811   0.399   5.481 -0.0699  0.0764 -0.3454
32160W        W47291  10.244  17.647   3.852  0.0093  0.2137  0.3662
32161W        W47292  11.615   7.035  13.323  0.2052  0.0725 -0.0444
32162W        W47293  10.653   0.789  13.268  0.1888 -0.0013  0.1965
32163W        W47294  10.709   0.755  15.490 -0.2756 -0.2004 -0.3438
32164W        W47295   7.633   5.731   3.875  0.1470  0.0319  0.3397
32165W        W47296   8.492   4.203  16.072  0.0452  0.1214 -0.0201
32166W        W47297  16.756  11.967  14.604 -0.1737  0.2353  0.0767
32167W        W47298  12.354  15.216   3.531  0.2115  0.0974  0.1280
32168W        W47299   3.231  17.422  11.506  0.1332 -0.1760 -0.2529
32169W        W47300   1.838  16.296   0.282  0.1967 -0.0693 -0.0791
32170W        W47301  12.527   1.448   5.141 -0.1006  0.1514  0.0061
32171W        W47302   2.968  10.720  12.009 -0.1051 -0.2924  0.0342
32172W        W47303  17.376  14.021   3.418 -0.2910 -0.0916 -0.0567
32173W        W47304  17.354   7.653   0.575  0.1911  0.2518  0.1047
32174W        W47305  13.211  16.192   0.793 -0.0794  0.0766  0.0192
32175W        W47306  11.485  10.759   1.791 -0.0581  0.2099 -0.0120
32176W        W47307   9.699   9.494   1.774  0.0798 -0.2580 -0.3451
32177W        W47308   3.267  11.108   1.438  0.0787 -0.1153  0.1407
32178W        W47309   9.176   9.884   0.526  0.0993  0.0086 -0.1736
32179W        W47310   5.741   5.807  16.168  0.1806 -0.1641  0.1246
32180W        W47311   7.513   3.070   0.178 -0.4100 -0.2624  0.1107
32181W        W47312   6.503   5.664   1.256 -0.0643  0.0816 -0.1579
32182W        W47313  17.466  16.997  15.701  0.0695 -0.1075  0.1169
32183W        W47314   7.914   9.457  11.963  0.1056  0.0209  0.0380
32184W        W47315  12.408  11.063  11.759  0.4445 -0.1141 -0.1017
32185W        W47316  12.910   8.804   1.248  0.3944  0.0496 -0.1287
32186W        W47317  11.714  17.842   2.434  0.1732  0.0592  0.1761
32187W        W47318   3.611  13.715   5.239  0.0606  0.2848  0.2327
32188W        W47319  17.283   2.633   4.593  0.1781 -0.1903 -0.1496
32189W        W47320  16.475   3.499  12.476 -0.0696 -0.2362 -0.1000
32190W        W47321  13.779   4.775  13.113 -0.0259  0.0323  0.2761
32191W        W47322   2.506  13.001   0.374 -0.0024  0.0873  0.0616
32192W        W47323   4.853  11.378   1.752 -0.1447 -0.3562 -0.2290
32193W        W47324   8.459   0.339   5.022  0.0103  0.2108 -0.1167
32194W        W47325  11.195  15.961  12.187 -0.1077 -0.1221 -0.0791
32195W        W47326   1.256   7.506  15.681 -0.1589  0.2105 -0.0932
32196W        W47327   1.448  16.855  11.975  0.0261 -0.2882 -0.1141
32197W        W47328   2.560   8.281  12.848 -0.0228  0.1230  0.1841
32198W        W47329   6.007   6.049  12.049 -0.1981  0.1066  0.5054
32199W        W47330   6.906  12.790  15.472 -0.1422 -0.0414 -0.1137
32200W        W47331  14.725   2.033  10.856 -0.0397 -0.1258  0.3739
32201W        W47332   6.971  15.814   1.270  0.1332  0.2121  0.0531
32202W        W47333  10.550   9.801  11.973 -0.1169 -0.1927 -0.1940
32203W        W47334   1.167  16.949  12.754 -0.2118 -0.2210 -0.1205
32204W        W47335  14.259  14.151  13.685  0.0757 -0.3575 -0.0547
32205W        W47336   9.707   8.816  13.898  0.0378  0.0257  0.0449
32206W        W47337  17.272   5.477   3.918 -0.2841 -0.1294  0.0364
32207W        W47338   1.363   0.838  15.998 -0.2512  0.0190  0.1742
32208W        W47339   4.529  16.909  11.779 -0.0033 -0.2032  0.2572
32209W        W47340   8.434   2.834   3.781  0.1956 -0.1883  0.0101
32210W        W47341   2.018   3.423  13.254  0.2140 -0.2315  0.0208
32211W        W47342  11.316   5.930  14.807  0.0312 -0.3518 -0.0882
32212W        W47343  14.341  11.041  13.499 -0.0048 -0.0574 -0.2184
32213W        W47344   6.150  12.200   1.627 -0.4176 -0.0654  0.1199
32214W        W47345  10.377   1.223   0.269  0.3162  0.0510  0.0518
32215W        W47346   8.415   4.114   0.408 -0.1322  0.2917 -0.0065
32216W        W47347  13.773   9.826   4.738  0.1982 -0.2990  0.0156
32217W        W47348   9.670  16.212   4.785 -0.2379  0.1161  0.4040
32218W        W47349   8.027  14.135  11.515 -0.2046  0.1039  0.0582
32219W        W47350   1.176   4.506  12.140 -0.1380  0.0064 -0.1719
32220W        W47351  10.697   9.129  12.932 -0.0976  0.1336  0.1000
32221W        W47352  12.027   3.811   2.940 -0.1431 -0.0931  0.1570
32222W        W47353  14.966  14.280  13.238 -0.1482  0.1390  0.1961
32223W        W47354  17.062  11.074   1.772 -0.0421  0.2296  0.0434
32224W        W47355  15.037   7.218   5.089  0.0591 -0.1491 -0.4091
32225W        W47356   0.175   3.213  16.021 -0.1470 -0.1174 -0.0700
32226W        W47357  15.103   3.432  12.014  0.0210  0.1371  0.0373
32227W        W47358   8.366   8.296  15.642  0.2279 -0.0305 -0.0112
32228W        W47359  16.861   8.435  14.485  0.1861  0.1332 -0.1285
32229W        W47360  12.487  17.324   4.402  0.0868  0.2231 -0.0132
32230W        W47361   7.741  12.905   4.313  0.0630 -0.4675 -0.3873
32231W        W47362   7.810   7.210   0.367  0.0923  0.2058  0.1672
32232W        W47363  14.148   0.031  15.763  0.3411  0.0557  0.0954
32233W        W47364   8.614   5.509   4.171 -0.3452  0.2265  0.0478
32234W        W47365   3.709   3.202   3.896 -0.3053  0.0526 -0.0486
32235W        W47366  16.661   8.887  13.826  0.0973 -0.3235 -0.0604
32236W        W47367   7.307   1.092   0.699 -0.2467  0.0647  0.1250
32237W        W47368  16.915   9.934   0.977 -0.2884 -0.1548 -0.4033
32238W        W47369  15.434   0.609  13.133 -0.1546  0.0104 -0.1665
32239W        W47370  11.134  15.020   0.890 -0.2809 -0.2859  0.2305
32240W        W47371   9.955   8.064  15.686 -0.2608  0.1822  0.1259
32241W        W47372   8.404  14.955   5.171  0.0507 -0.6199  0.1326
32242W        W47373  10.500   4.874  11.005  0.0832  0.1265  0.2078
32243W        W47374   0.557  11.462  11.385  0.3080  0.0428 -0.1696
32244W        W47375  10.923  11.281   0.764 -0.1960 -0.1743 -0.0404
32245W        W47376   6.640   5.002  10.027 -0.0346  0.4870  0.1283
32246W        W47377   5.398   3.866   5.254 -0.0556  0.4549 -0.1787
32247W        W47378  15.604  14.392   3.941  0.0162  0.1975  0.0762
32248W        W47379  14.143   6.052  14.933 -0.1215 -0.2242 -0.3578
32249W        W47380  11.484   7.335   3.022 -0.0520 -0.0225  0.0863
32250W        W47381  16.965  11.344   3.055  0.0976 -0.2732 -0.0013
32251W        W47382   0.948  14.318  13.497 -0.1410  0.0165 -0.0874
32252W        W47383  15.084  10.225   3.935 -0.1200 -0.1560  0.0356
32253W        W47384  11.663   6.891   1.566 -0.2455  0.1006 -0.0070
32254W        W47385   8.390   5.754  15.743 -0.0059  0.0847  0.0384
32255W        W47386   5.535  14.403   2.137 -0.3211 -0.3549  0.1444
32256W        W47387   5.682   3.708   3.186  0.0801  0.1896 -0.2504
32257W        W47388   7.590   6.212  11.802  0.1598  0.1989  0.1781
32258W        W47389  13.081  17.021  13.939  0.1590 -0.3218  0.0518
32259W        W47390  17.427   5.535  12.119  0.1310  0.1363  0.0276
32260W        W47391  11.680   0.773   2.346  0.1637  0.3953 -0.0104
32261W        W47392   4.976  15.325   5.559  0.3282  0.2528  0.1235
32262W        W47393   2.311  14.221   0.872  0.1484 -0.2982 -0.0797
32263W        W47394   6.222  12.951  13.891  0.1673 -0.0934  0.2023
32264W        W47395   2.524  15.829  12.949 -0.2393  0.2452 -0.2984
32265W        W47396  10.785   9.250   6.104 -0.1087  0.0479  0.2645
32266W        W47397   8.436  17.171  11.749  0.3107 -0.3768 -0.0110
32267W        W47398   2.868  11.301  13.115 -0.1387 -0.3310  0.1074
32268W        W47399   6.640   8.093   4.667  0.0302  0.1706 -0.0866
32269W        W47400  10.779  16.087  13.907  0.1008  0.0894 -0.0460
32270W        W47401   2.392   9.938  11.139  0.3274  0.0489 -0.1665
32271W        W47402   6.762  10.384   0.682  0.1216 -0.0813  0.0675
32272W        W47403   1.996  12.217   0.557  0.1672  0.1040 -0.1238
32273W        W47404  17.579   3.655  12.063 -0.0175 -0.0290 -0.2803
32274W        W47405   3.276   5.762  15.431  0.2706 -0.2277 -0.1325
32275W        W47406   7.891   8.189   2.304  0.2651 -0.0164  0.3242
32276W        W47407   9.433   7.138  12.261  0.0493  0.0853  0.3649
32277W        W47408  10.603  14.050   2.392  0.0617  0.0312 -0.0513
32278W        W47409  17.249  13.603   3.716 -0.1581 -0.2860 -0.2278
32279W        W47410  12.090  14.167  15.327 -0.1546 -0.1657 -0.2093
32280W        W47411   2.537   8.658   3.038  0.0452  0.0888  0.1824
32281W        W47412  10.110  11.140  11.254  0.1217  0.0543  0.1476
32282W        W47413  11.608   7.310  10.855 -0.2376 -0.0313  0.0875
32283W        W47414  16.831  14.282  15.186  0.1284 -0.2449  0.0551
32284W        W47415   8.148   2.427   0.186 -0.0397  0.3532 -0.1394
32285W        W47416  15.952   4.041   3.899  0.1829 -0.0853  0.0462
32286W        W47417  18.081   8.254   4.453  0.2705 -0.1173  0.0222
32287W        W47418   2.457   9.794  13.822 -0.1815  0.0617  0.1538
32288W        W47419   7.138   6.841  14.089  0.1466 -0.1253 -0.0769
32289W        W47420   3.131  17.804  12.497  0.0286  0.0619 -0.0960
32290W        W47421   8.030   2.180   2.564  0.0091 -0.4585  0.1839
32291W        W47422   1.328  13.932  13.607  0.0969 -0.1877 -0.0988
32292W        W47423  16.151  10.772   2.920 -0.0049 -0.2627 -0.0460
32293W        W47424  17.609   0.794   3.091 -0.1683 -0.0332 -0.1431
32294W        W47425   2.556  13.388   3.761  0.0726 -0.0015 -0.0307
32295W        W47426   2.580  12.223  16.137 -0.0064 -0.1895  0.1466
32296W        W47427   2.449   4.868  12.687  0.1091  0.2180 -0.2415
32297W        W47428   4.754  13.479   4.720 -0.0909  0.2730 -0.2253
32298W        W47429  10.137   7.726  11.897  0.1460 -0.2425 -0.0964
32299W        W47430  11.783  15.242   5.260  0.0760  0.1076  0.2498
32300W        W47431   2.834   1.861  14.028 -0.0200  0.1100 -0.3905
32301W        W47432   7.983  16.524   2.519  0.1064  0.2112  0.1502
32302W        W47433  16.649  16.227   0.489  0.0832 -0.1945  0.1261
32303W        W47434  16.143   4.203   0.859  0.0840 -0.1801  0.0210
32304W        W47435  13.551  12.745   3.701 -0.1315  0.0768 -0.1499
32305W        W47436  14.434   5.760   0.624  0.3150  0.0232  0.0080
32306W        W47437  15.567  16.709   2.765  0.0212 -0.0429  0.2243
32307W        W47438   3.724  17.221  11.448 -0.3159  0.1732 -0.2942
32308W        W47439  17.218   3.470  15.718  0.1113 -0.1638  0.1667
32309W        W47440   7.785   3.909   3.559  0.0155 -0.2922 -0.0161
32310W        W47441   1.791   8.432   0.482  0.0987 -0.1318  0.0177
32311W        W47442  11.144  10.664  15.957 -0.0910 -0.2505 -0.0209
32312W        W47443   5.583  15.240  15.142  0.1982  0.0397 -0.1120
32313W        W47444   7.178  15.367  13.735 -0.1907  0.0981  0.0380
32314W        W47445   6.134  16.802   2.551  0.1639 -0.2373 -0.0800
32315W        W47446  11.381   1.240   3.188  0.0924 -0.3911 -0.2200
32316W        W47447  16.887   0.454  14.335  0.3988 -0.1576 -0.0018
32317W        W47448   2.648  17.491  11.158  0.0827  0.0618 -0.2662
32318W        W47449   3.582  13.923  11.134 -0.0382 -0.0450  0.1366
32319W        W47450  16.515  15.049   2.314  0.1116 -0.1789 -0.1602
32320W        W47451   8.392   5.686   0.860  0.1100 -0.2262  0.1653
32321W        W47452   6.739   0.349   5.548  0.0925  0.2684 -0.0135
32322W        W47453  10.113  15.287  15.198  0.2869  0.0398 -0.0594
32323W        W47454   6.396   3.701   3.730 -0.0559  0.3344  0.1223
32324W        W47455  17.859   1.728   5.604 -0.0906 -0.2275  0.2852
32325W        W47456  12.697  15.024   0.270  0.4287  0.2658 -0.1061
32326W        W47457  14.943   3.892   4.559  0.0105 -0.1703 -0.0102
32327W        W47458   0.260   0.094  16.064  0.0567 -0.0861  0.1582
32328W        W47459  15.534   4.081  13.582  0.0213 -0.7311  0.0937
32329W        W47460  10.059  16.266   4.094  0.2959  0.1270  0.3296
32330W        W47461  14.261  13.625  13.675 -0.2888 -0.0188 -0.1174
32331W        W47462   1.097  11.299   3.731  0.0372  0.1883 -0.0857
32332W        W47463  15.831   1.337   2.310  0.0159  0.3805  0.2057
32333W        W47464   7.376   6.038  13.608 -0.1125 -0.1678  0.2935
32334W        W47465  16.114   7.083   2.750 -0.1404  0.1534 -0.3732
32335W        W47466   8.791   8.633   4.340  0.1250  0.0188  0.2756
32336W        W47467  12.809   3.214  12.905 -0.1912 -0.1641  0.0333
32337W        W47468   7.282   1.879   2.590 -0.0129  0.0384 -0.1199
32338W        W47469  10.153   0.611   4.334  0.2881  0.0466 -0.0500
32339W        W47470  16.967   7.642   5.927  0.0518  0.0055 -0.1443
32340W        W47471  12.985  14.815  15.320  0.0946  0.0207 -0.4135
32341W        W47472  10.301   7.156   0.993 -0.1160  0.5035  0.2171
32342W        W47473  15.810  16.170   4.394 -0.1931 -0.2651 -0.1276
32343W        W47474  17.257   6.659   3.998  0.1913  0.0073 -0.1372
32344W        W47475   5.078   0.926   0.385 -0.2445  0.1944 -0.0333
32345W        W47476  14.739   9.108  11.276  0.0165  0.1172  0.2019
32346W        W47477   0.387  16.652  11.288  0.3254  0.0962  0.3033
32347W        W47478   8.794   9.798  15.341  0.1591 -0.0924  0.1491
32348W        W47479  16.352   1.900   4.605 -0.2253 -0.0805  0.1062
32349W        W47480  10.639   8.044   3.142  0.1750 -0.3712 -0.1046
32350W        W47481  13.919  16.062   3.099 -0.0446  0.4935  0.1784
32351W        W47482  10.128   6.020   2.339 -0.1098  0.1052  0.2100
32352W        W47483  11.528  13.532  14.372  0.2595  0.0570  0.0939
32353W        W47484  17.597  13.881  14.864 -0.0579  0.1663  0.0130
32354W        W47485   5.060  16.631   5.684 -0.2017  0.2001  0.2554
32355W        W47486   6.997   6.425  13.668 -0.1555 -0.2672 -0.3187
32356W        W47487   8.178  15.208  11.885  0.1416  0.0683  0.3180
32357W        W47488   3.099  15.593   2.104  0.1624 -0.0332  0.0271
32358W        W47489   2.760  10.550   4.561 -0.1012 -0.0790 -0.2155
32359W        W47490   7.027  10.014   0.863 -0.0440  0.1163  0.1614
32360W        W47491   6.587   4.870  13.886  0.0980  0.1180 -0.3605
32361W        W47492  15.818   6.712   1.454  0.2129  0.1880 -0.0538
32362W        W47493  14.268   9.043   5.404 -0.1932  0.1206 -0.1024
32363W        W47494  10.091  13.859   1.221 -0.3994  0.1625 -0.2176
32364W        W47495   0.835   6.968   3.984 -0.0007 -0.0445 -0.0057
32365W        W47496   8.536  11.748   6.136 -0.1515  0.0430  0.3911
32366W        W47497  14.544  14.320  14.145  0.3051  0.2835 -0.0072
32367W        W47498   8.963   7.549   0.883  0.0225  0.3597 -0.0207
32368W        W47499   1.670   7.728   1.039  0.1898 -0.3001 -0.0780
32369W        W47500  10.279  13.202  15.478  0.0454 -0.1176 -0.0581
32370W        W47501   3.040   9.822   2.714 -0.0534  0.0203  0.0242
32371W        W47502   1.647  10.801  16.114  0.4662  0.1028  0.1900
32372W        W47503  15.871  12.847  13.261  0.3461  0.0111  0.2684
32373W        W47504  13.762  10.376  11.524 -0.0707  0.1407 -0.0451
32374W        W47505  11.233   7.858   4.729 -0.5328 -0.1532 -0.0339
32375W        W47506  12.169  15.339  14.385  0.2073  0.1947  0.3965
32376W        W47507  17.307  12.995  15.725 -0.1504 -0.0716  0.2089
32377W        W47508   4.080   9.750   4.029 -0.1602 -0.1294  0.0777
32378W        W47509  10.488  13.000   1.536  0.0434  0.0644  0.1181
32379W        W47510  16.098   0.887   2.325 -0.0287  0.0500  0.0435
32380W        W47511   5.849  17.795  14.135 -0.0758 -0.2466  0.0901
32381W        W47512   8.240  16.015   4.092 -0.0979  0.1163  0.0291
32382W        W47513  13.304   5.711  10.822 -0.0217  0.2406 -0.0176
32383W        W47514  11.209   3.330   2.819  0.0215 -0.2239  0.1037
32384W        W47515   2.423   8.214  15.835 -0.0446  0.0044  0.3333
32385W        W47516   7.018  17.891   0.169  0.2945  0.1013 -0.4362
32386W        W47517   5.480  13.779  14.815 -0.0388  0.0443  0.3544
32387W        W47518  10.649   0.194  13.493 -0.0393 -0.0611 -0.4583
32388W        W47519   1.957   3.853  15.026  0.0035  0.0242  0.2210
32389W        W47520   1.833   5.267  10.196  0.0645 -0.0076 -0.0464
32390W        W47521   2.306   0.683  12.085  0.1981 -0.0837 -0.0329
32391W        W47522  16.292   8.882  15.618  0.0366 -0.2655  0.0655
32392W        W47523   5.079   2.615  12.535 -0.3169  0.1105  0.1545
32393W        W47524   2.704  16.153  13.744  0.0409 -0.3541  0.2563
32394W        W47525   7.210   8.367   5.230 -0.0665 -0.0034  0.2209
32395W        W47526   7.702   0.282  11.182  0.1257 -0.0631 -0.1353
32396W        W47527   6.285  11.978   0.727 -0.0951 -0.4738  0.1381
32397W        W47528  12.944   8.396  11.384 -0.1260 -0.2526  0.2619
32398W        W47529   0.327   4.160   6.293 -0.1535  0.1755 -0.0180
32399W        W47530  17.282   8.774   3.162  0.0208  0.1286 -0.0913
32400W        W47531   1.868   8.816   1.895 -0.0502  0.3559  0.1822
32401W        W47532   0.183   4.906   1.950  0.0023  0.1095 -0.0015
32402W        W47533   6.453  16.523  14.013 -0.0386 -0.0076  0.1281
32403W        W47534  10.024   9.826  16.206  0.1728 -0.1923  0.2921
32404W        W47535   6.147   9.469  15.559 -0.1373  0.0881 -0.0723
32405W        W47536  10.548   2.931   0.106  0.1534  0.1227 -0.1512
32406W        W47537   5.284  14.257   0.717 -0.0447 -0.3082 -0.1686
32407W        W47538   5.759   4.314   1.082 -0.1126  0.0031  0.0417
32408W        W47539   5.085  16.527  12.020 -0.1961 -0.3278 -0.1945
32409W        W47540  16.553  16.737  11.477  0.0312 -0.1936 -0.1204
32410W        W47541  14.255   2.398  12.134  0.0352  0.1441 -0.3056
32411W        W47542  10.113   1.127   4.494 -0.0830 -0.2708  0.1428
32412W        W47543   8.277  12.033   4.158  0.2102  0.0590 -0.0112
32413W        W47544   5.264  13.121   4.195  0.1346 -0.1086 -0.1214
32414W        W47545  11.232  15.026  13.125  0.0060 -0.1500 -0.2042
32415W        W47546   7.681  17.289  13.154 -0.3786 -0.1670  0.1735
32416W        W47547   9.984   7.077  11.133  0.0001  0.0779  0.0232
32417W        W47548   9.228   0.784   3.315 -0.1185 -0.0863  0.0907
32418W        W47549  16.363  17.980   5.414  0.0270  0.1855  0.1425
32419W        W47550   3.841   1.996  10.482 -0.1513  0.3075 -0.2363
32420W        W47551   1.169  12.080  13.970 -0.0268 -0.0407 -0.0876
32421W        W47552   5.241   2.239   0.435 -0.0012  0.2860 -0.0051
32422W        W47553  12.126   4.667  13.735 -0.0050 -0.2665  0.1673
32423W        W47554  15.902  15.515  10.651  0.1330 -0.0990 -0.2638
32424W        W47555   5.073  16.990   3.150 -0.3239 -0.0164 -0.4018
32425W        W47556   4.003  11.205  10.957 -0.0775  0.0481  0.0768
32426W        W47557  12.193  12.616   2.100 -0.1761  0.3060  0.2848
32427W        W47558  14.100  13.959  13.249 -0.2271  0.0057  0.0099
32428W        W47559   7.702  17.752  15.705  0.0459 -0.0870 -0.2900
32429W        W47560   9.897   8.984   5.111 -0.2902  0.0778 -0.1627
32430W        W47561   8.822  12.340  13.866 -0.1824 -0.3714  0.2445
32431W        W47562   8.075  17.832  12.234 -0.1388  0.1874  0.0556
32432W        W47563  15.730   9.397  11.353  0.0216 -0.0158  0.1595
32433W        W47564  11.802   6.441   3.009 -0.1235 -0.0314  0.0745
32434W        W47565  13.615  13.511   0.642  0.1583  0.3238 -0.3605
32435W        W47566  12.074   2.812  13.820 -0.3166 -0.1406 -0.1333
32436W        W47567   5.503   8.961   2.153  0.0826 -0.2609  0.1473
32437W        W47568  17.042  13.822   2.540 -0.0664 -0.0475  0.0165
32438W        W47569   7.149  17.625   2.594  0.0947 -0.1555  0.0900
32439W        W47570   7.997  17.102   3.654 -0.0208  0.2092 -0.1805
32440W        W47571   2.917   8.114  14.322 -0.1379 -0.0147 -0.2631
32441W        W47572   6.607   5.924  14.701 -0.2889 -0.0438 -0.0740
32442W        W47573  10.889   2.714   4.425  0.0920 -0.1512 -0.0355
32443W        W47574  12.111  10.581   5.085 -0.2156 -0.0323 -0.1866
32444W        W47575  16.778   9.413  13.814  0.1081  0.0509 -0.0323
32445W        W47576   4.935  16.530   3.231  0.1860 -0.1502 -0.0832
32446W        W47577   9.503  17.419  15.364 -0.0789 -0.0802 -0.1500
32447W        W47578  16.854   9.303  14.794 -0.2127  0.1522 -0.3796
32448W        W47579  13.020  12.190  13.151 -0.1005  0.1246  0.0043
32449W        W47580   2.023  13.120   0.277  0.0028  0.2209  0.0179
32450W        W47581  11.965   7.818  15.984 -0.3841 -0.0344  0.0445
32451W        W47582   1.685   6.597   0.652  0.1292  0.3209  0.1696
32452W        W47583   4.516  14.354   4.062 -0.1983 -0.1007 -0.0601
32453W        W47584   4.860  11.997  14.785  0.2198  0.4509 -0.1752
32454W        W47585   2.380  11.360  10.196 -0.1398 -0.0109  0.3904
32455W        W47586   0.887  11.591   0.734 -0.2431  0.3315 -0.1681
32456W        W47587   7.567  11.761  12.879 -0.0378  0.1526  0.0612
32457W        W47588   5.292   2.638  15.728  0.1003  0.0656 -0.1089
32458W        W47589   0.927  12.038   4.290 -0.2810  0.1423 -0.1553
32459W        W47590  15.016   4.525   6.201  0.1000 -0.3459 -0.0781
32460W        W47591   1.948   0.162  14.905 -0.0260  0.0832  0.0299
32461W        W47592   9.547  11.513   1.476 -0.1750 -0.0533  0.0094
32462W        W47593   0.315  12.531  13.116  0.0268  0.0248  0.1236
32463W        W47594  18.034   4.312  14.257  0.0871 -0.1224 -0.0396
32464W        W47595  12.352   2.586   2.798  0.0697 -0.0379 -0.1386
32465W        W47596  15.031   6.941  12.843  0.0392  0.0743  0.0368
32466W        W47597   5.383   7.055  13.078  0.2007 -0.1807 -0.1723
32467W        W47598  12.806  11.867  14.368  0.0348 -0.1086  0.1586
32468W        W47599   6.962  17.293  15.136  0.1712  0.1546  0.0132
32469W        W47600  16.715   2.655   4.517  0.0631 -0.0187 -0.0942
32470W        W47601  16.487  14.786  12.523  0.1207 -0.1685  0.1965
32471W        W47602   4.618   6.564   5.944  0.0433 -0.0180  0.2682
32472W        W47603   4.484  16.798   3.922  0.0061 -0.0984  0.1533
32473W        W47604  10.729  15.837  11.372  0.0210  0.0989 -0.0761
32474W        W47605   1.472   7.890  11.179 -0.0914 -0.2256  0.2574
32475W        W47606   9.557   3.430   0.976 -0.0764 -0.0653  0.0350
32476W        W47607  17.184   5.021  13.005  0.1320 -0.0419 -0.0073
32477W        W47608   9.738   9.600   3.404  0.0014  0.2558 -0.0005
32478W        W47609   4.231   1.960  15.028  0.0956  0.0808 -0.1744
32479W        W47610   0.011   9.764  11.786  0.0015 -0.0867 -0.3643
32480W        W47611  14.972   0.926   0.771 -0.0934  0.1505 -0.1670
32481W        W47612   3.067   4.095   5.766  0.0937  0.3597  0.0264
32482W        W47613  15.014  15.028   5.482 -0.0374 -0.1322 -0.1553
32483W        W47614  16.148   6.416   3.404 -0.2316 -0.0416  0.0752
32484W        W47615  10.189   7.112   5.352 -0.0543 -0.0192  0.1530
32485W        W47616  17.718   8.208   5.664  0.0475 -0.0449  0.0870
32486W        W47617  16.241   7.812  15.477  0.2491 -0.2269 -0.1756
32487W        W47618  17.037  16.702  11.393  0.0537 -0.0251 -0.2575
32488W        W47619  12.362  17.552   3.485  0.0398  0.0443  0.0714
32489W        W47620  13.615   6.132  14.919  0.1137 -0.0647  0.1524
32490W        W47621  17.488  10.430  10.592  0.2509  0.4733  0.1848
32491W        W47622   1.797   0.748   1.418  0.2250  0.1204  0.2657
32492W        W47623  10.586   6.009  15.110  0.0749 -0.0232  0.1553
32493W        W47624   1.039   0.085   2.112  0.0085 -0.2345 -0.1041
32494W        W47625   4.338   3.677  14.824  0.0625 -0.1337  0.0844
32495W        W47626   3.472  14.594  11.651  0.0487  0.1347  0.0937
32496W        W47627  15.650  11.028   4.639 -0.2483  0.1098  0.1833
32497W        W47628  12.955  15.081  10.115 -0.3560  0.0230  0.0052
32498W        W47629  17.962   3.598   5.097  0.0817  0.0067 -0.1828
32499W        W47630   2.828  12.256  12.222  0.1306  0.1113 -0.0138
32500W        W47631  13.868   5.154  14.885  0.1390  0.1233  0.2118
32501W        W47632   0.445   2.805   5.128 -0.0491 -0.3274 -0.1070
32502W        W47633   3.607  16.977  12.778 -0.0492 -0.0502  0.0171
32503W        W47634  10.003  11.260  14.661 -0.3152 -0.2182 -0.0674
32504W        W47635   3.298   1.423  16.057  0.0235 -0.1098  0.0250
32505W        W47636   3.363  16.027   2.819  0.2414  0.0084 -0.1326
32506W        W47637   8.385   9.796  15.674 -0.0048 -0.3259  0.0463
32507W        W47638  15.199   8.475  14.972  0.0349 -0.1389  0.1101
32508W        W47639  11.425  12.106  15.345  0.0662 -0.0739  0.0917
32509W        W47640  12.877   0.292  11.096  0.0769  0.1099  0.1466
32510W        W47641   1.429   3.478  11.434  0.3357 -0.2209  0.0328
32511W        W47642   6.943  12.009   1.743 -0.0544  0.1579  0.0557
32512W        W47643  13.230   6.125  12.684 -0.0465 -0.1463  0.1630
32513W        W47644   6.687   8.888   1.527 -0.1095 -0.0713  0.0252
32514W        W47645  17.479  17.692   4.281  0.1153 -0.0682 -0.2907
32515W        W47646  10.718   1.339  11.143  0.1413  0.1990  0.0534
32516W        W47647  13.929   0.442  11.066  0.2398  0.0216 -0.1538
32517W        W47648  10.337   2.448  13.223 -0.1509  0.2760 -0.0889
32518W        W47649   5.435  17.651  12.141  0.2729  0.2989  0.0494
32519W        W47650   3.426   2.268   5.424  0.1289 -0.1944  0.2883
32520W        W47651   2.604  10.965  11.068 -0.4308  0.0523 -0.0207
32521W        W47652  14.519  12.133   0.707  0.0476  0.1115 -0.3083
32522W        W47653   7.156   3.058  15.168 -0.0469  0.0795  0.0810
32523W        W47654  11.343  13.036  13.614 -0.1961 -0.2880 -0.0192
32524W        W47655   3.509  10.156   5.489  0.1709  0.0948 -0.2837
32525W        W47656  14.860   3.728  11.573  0.2381 -0.0460 -0.0986
32526W        W47657   3.668   5.883   0.327  0.1302  0.2546 -0.0623
32527W        W47658  17.228   9.346   3.224  0.2386 -0.0837 -0.3569
32528W        W47659  16.164   9.983   1.122  0.0083  0.1854  0.0091
32529W        W47660   6.191   9.344   1.436 -0.2742 -0.1335  0.0898
32530W        W47661   8.639  10.675   1.676 -0.1664 -0.0297 -0.3368
32531W        W47662   8.945  17.890  15.575  0.0095 -0.0261 -0.0986
32532W        W47663   7.118  15.948  14.093 -0.0262 -0.2346  0.0532
32533W        W47664   1.384   1.976  13.407 -0.0486 -0.0416  0.0187
32534W        W47665  16.220   1.155  12.777 -0.1162  0.1923 -0.1576
32535W        W47666  10.173  11.684  16.139  0.0261 -0.0628  0.1163
32536W        W47667   7.096  11.978  12.688 -0.1991  0.1210  0.1496
32537W        W47668   9.259   3.033   5.143 -0.0154  0.1535  0.0354
32538W        W47669  17.515  18.028   2.704  0.0526  0.3366  0.0643
32539W        W47670  17.869  11.107   1.409  0.2908  0.0074  0.1667
32540W        W47671   7.709  13.233  15.062  0.0635  0.2551 -0.1580
32541W        W47672   2.536   1.226   2.417 -0.0164  0.0533 -0.0064
32542W        W47673  15.614  12.817  10.744 -0.6031 -0.1004  0.0811
32543W        W47674  10.718   9.212   0.556  0.0305  0.1837  0.1721
32544W        W47675  16.769   2.162   4.398  0.1976 -0.0084 -0.1185
32545W        W47676  16.073  18.055  14.558 -0.1818  0.4147  0.3244
32546W        W47677  17.709   8.058   3.161  0.0762 -0.2188 -0.0538
32547W        W47678   4.531  12.963  14.098 -0.0997  0.3179 -0.3851
32548W        W47679   4.505   2.139  14.521  0.0628  0.1008 -0.1516
32549W        W47680   8.398  15.799   5.466  0.0416  0.3594 -0.2568
32550W        W47681  17.130   4.296   5.286  0.0305  0.0030 -0.0455
32551W        W47682  16.931  17.789  15.426  0.0265  0.0894  0.1182
32552W        W47683   1.822   6.056   5.170 -0.1825  0.0680 -0.1975
32553W        W47684   6.101  15.888   1.167  0.1405  0.2416  0.1772
32554W        W47685   2.818   8.171   4.892 -0.0240 -0.0405 -0.2308
32555W        W47686  14.852   6.859   1.491 -0.0872 -0.1000 -0.0584
32556W        W47687   4.389  13.967   2.420  0.0031  0.0529  0.0227
32557W        W47688   2.953   3.616  12.853  0.0110  0.1139  0.1076
32558W        W47689  10.933  12.137   0.268  0.3043 -0.1208 -0.0093
32559W        W47690  16.748   8.564  13.415  0.1401 -0.3825 -0.0838
32560W        W47691   4.108   6.804   4.111  0.0207  0.0575  0.2180
32561W        W47692  17.051   3.562   4.673 -0.0453  0.0577  0.2567
32562W        W47693  16.068   2.001  10.661 -0.1033 -0.1726 -0.1710
32563W        W47694   5.611  17.528  14.527  0.0723 -0.1104 -0.1462
32564W        W47695   2.743  13.372  10.450  0.3324 -0.0657 -0.1536
32565W        W47696  18.071   4.784  15.706  0.0651  0.0526 -0.2644
32566W        W47697   4.195  10.899   4.176  0.1752  0.3515 -0.0735
32567W        W47698   0.841   5.547  12.099  0.0032  0.0155 -0.0898
32568W        W47699  11.640  14.634  12.922  0.0865  0.1039 -0.0826
32569W        W47700   0.382   2.168  11.362 -0.0473  0.2365 -0.1946
32570W        W47701   5.726   2.288   0.530 -0.1324  0.1534 -0.2578
32571W        W47702   6.196  12.354   1.146 -0.2076 -0.0131 -0.1408
32572W        W47703  14.872  12.365  11.289  0.0715 -0.1993 -0.1453
32573W        W47704   9.939   4.684   5.254  0.0500  0.0076  0.1051
32574W        W47705  12.554   9.768   3.040 -0.1565 -0.0021 -0.0390
32575W        W47706   3.894   6.965   4.657 -0.1762 -0.1163 -0.0581
32576W        W47707   0.372   5.260   3.263  0.3201  0.1288 -0.0721
32577W        W47708  11.948   7.641   5.294 -0.0663  0.2573  0.0481
32578W        W47709   9.662   9.356  13.474  0.0139  0.4961 -0.0853
32579W        W47710   3.277   7.125   1.373  0.0358  0.1293 -0.2795
32580W        W47711  17.626   9.841  11.843 -0.1026 -0.1219  0.1897
32581W        W47712  14.838   7.690   1.783  0.2513  0.1033  0.1887
32582W        W47713   3.947   8.441  15.640 -0.0959 -0.0042 -0.1876
32583W        W47714   6.592   0.726   5.858  0.0334  0.2149  0.2531
32584W        W47715  12.373   1.348   5.683 -0.1586  0.0184 -0.0029
32585W        W47716   5.572   8.434   1.266 -0.0232 -0.1231  0.0281
32586W        W47717  10.591   9.983   1.925  0.0224  0.1385 -0.0863
32587W        W47718  14.056   6.598  15.539 -0.0286 -0.0514  0.3159
32588W        W47719   4.267   4.752  14.681  0.1528 -0.2285 -0.0439
32589W        W47720   7.004   7.219   2.675 -0.0804  0.0808 -0.1188
32590W        W47721  10.794   5.821   4.772  0.1021  0.2650  0.0695
32591W        W47722   4.834   6.951   2.568  0.0737  0.1580  0.0836
32592W        W47723  17.884  17.213  15.942  0.3129  0.1884  0.1206
32593W        W47724  17.934  11.322   5.796 -0.3367 -0.2756 -0.4876
32594W        W47725   0.363   6.792   5.413  0.1145  0.1276  0.0766
32595W        W47726  13.786   1.357  11.215  0.0654 -0.0803 -0.1363
32596W        W47727  16.138   5.735   1.094  0.2505  0.3216  0.1915
32597W        W47728   2.176  13.489  14.545  0.3516  0.0016  0.1697
32598W        W47729   1.302  11.472   5.607 -0.1052 -0.0732  0.1808
32599W        W47730   6.326   9.266   5.589  0.2691 -0.6614  0.0767
32600W        W47731  10.512  10.474   1.746 -0.1417  0.1505 -0.0005
32601W        W47732  12.550   6.907   3.629  0.1868  0.5959  0.0714
32602W        W47733   7.315   3.633  12.110  0.2305  0.1267  0.2726
32603W        W47734   4.923  17.676  11.304 -0.1153 -0.4237  0.0630
32604W        W47735  10.928  17.561  12.918 -0.1958  0.2622  0.2519
32605W        W47736   4.646   8.814  11.422  0.0203  0.1511 -0.1230
32606W        W47737  14.874  13.216   1.468 -0.0850  0.1477  0.3049
32607W        W47738   1.604   0.790   4.381  0.0517  0.1958 -0.1615
32608W        W47739   6.102   6.197  14.747  0.0697 -0.1093  0.0536
32609W        W47740   0.759  15.462  10.516 -0.1800 -0.1128 -0.0771
32610W        W47741  10.858   1.436   1.430 -0.0388  0.1077 -0.1735
32611W        W47742  17.151  16.836  15.285  0.0212 -0.1605  0.1515
32612W        W47743   2.026   8.516   1.410  0.2019 -0.1785 -0.1741
32613W        W47744  11.814   5.903   4.951  0.1679  0.2041  0.0680
32614W        W47745   9.889   9.642  14.366 -0.3272  0.2327  0.3278
32615W        W47746   3.271   8.445   3.762  0.2663 -0.3043 -0.4246
32616W        W47747  15.871   1.747  15.486  0.3739  0.0764 -0.1097
32617W        W47748  14.569  10.823   1.742 -0.1152  0.0544  0.0141
32618W        W47749   2.297   2.333  12.280 -0.1997  0.3481 -0.0251
32619W        W47750   9.855  13.192   4.869  0.3239  0.3310 -0.1920
32620W        W47751   8.527  16.625   2.380 -0.0113  0.1521  0.0647
32621W        W47752   6.806  13.318  10.248  0.1096 -0.0542 -0.3474
32622W        W47753  15.336  17.248   2.219 -0.0420 -0.0189 -0.0607
32623W        W47754   0.534  17.774  15.834 -0.1425  0.1791  0.1458
32624W        W47755  11.540  13.024  11.737 -0.1387 -0.1509 -0.1972
32625W        W47756   8.850  13.336  16.049  0.0043  0.1779  0.0284
32626W        W47757   8.565   4.565   1.414  0.3275 -0.1289 -0.0535
32627W        W47758  16.932   8.774   0.756  0.0729 -0.0307  0.0115
32628W        W47759   1.638   9.100   4.128  0.1265 -0.0167  0.2916
32629W        W47760   6.671  10.931   2.705 -0.0290 -0.2722 -0.0475
32630W        W47761  10.210   6.006   5.712 -0.0417  0.2017 -0.1191
32631W        W47762   3.707   5.266   3.236 -0.4302  0.0081 -0.1193
32632W        W47763  17.492   2.125   5.545 -0.1658  0.1548  0.1834
32633W        W47764  14.446   4.894  13.366 -0.0778  0.1399  0.2211
32634W        W47765   6.841   9.799  13.415  0.0410 -0.3607 -0.0477
32635W        W47766   8.698  13.011   3.266 -0.3511  0.0720  0.0882
32636W        W47767   3.943  14.294  15.079  0.3165 -0.0439 -0.0011
32637W        W47768   0.164  16.311  10.769 -0.1629  0.1421  0.0379
32638W        W47769   9.612  11.472   0.321 -0.1944  0.1665 -0.1099
32639W        W47770   1.821   4.474  13.751 -0.1414 -0.1949  0.4237
32640W        W47771   6.625   1.677   1.693  0.0728 -0.2209  0.1308
32641W        W47772  13.043  11.022  15.009 -0.1496 -0.2425 -0.0191
32642W        W47773   5.943   5.873  10.339 -0.1710  0.1071 -0.3180
32643W        W47774   1.147  10.407   5.248  0.2214  0.0220  0.1676
32644W        W47775  14.573   7.031   4.167  0.1243  0.3088  0.0425
32645W        W47776   2.715  13.448   1.071 -0.1162  0.0537 -0.2190
32646W        W47777   7.427   9.524  12.797  0.3174 -0.0993 -0.1601
32647W        W47778  17.437   9.180   1.618 -0.0763 -0.2566 -0.1885
32648W        W47779   9.727   5.816   3.714 -0.1201  0.1907  0.3170
32649W        W47780  14.826   5.029  12.326  0.0828 -0.0811  0.1133
32650W        W47781   2.881   8.345   4.099  0.1063 -0.1194  0.0470
32651W        W47782   3.136   4.131  14.373  0.1699  0.2327 -0.0298
32652W        W47783  13.107  12.670   0.947  0.0219 -0.0781  0.0229
32653W        W47784   4.239  16.116   2.183 -0.2065 -0.1145  0.0344
32654W        W47785   0.489  12.921   0.537 -0.1310  0.0723 -0.3755
32655W        W47786   8.071  17.953   4.108  0.0831 -0.0647 -0.0597
32656W        W47787   8.032   2.877  16.107  0.0317 -0.0144  0.0077
32657W        W47788  14.172   2.442   3.293 -0.1425  0.0086 -0.4092
32658W        W47789   9.829  14.690   1.396 -0.0658  0.1703  0.0523
32659W        W47790  15.632  10.442   3.847 -0.0820  0.0093  0.0261
32660W        W47791   8.662  12.474   0.914  0.2536 -0.1499 -0.1078
32661W        W47792  11.471   1.847   0.304 -0.3822 -0.3841  0.2725
32662W        W47793  16.918   6.647  15.574  0.4120 -0.3449 -0.5048
32663W        W47794   0.039  10.399  16.234  0.0728  0.3118  0.1756
32664W        W47795   1.633  15.999  11.679  0.1389 -0.0461  0.2714
32665W        W47796   7.734  14.381  13.196 -0.0371 -0.1064 -0.3681
32666W        W47797   7.419   9.035   1.215  0.0495  0.0655  0.1051
32667W        W47798   7.362   6.737  10.814 -0.0232  0.2900 -0.0080
32668W        W47799   0.335  14.025  12.264  0.4012  0.2449 -0.0214
32669W        W47800   4.800   7.670  12.729 -0.1763 -0.0319  0.0078
32670W        W47801   1.392  13.302   3.848 -0.1401  0.2779  0.2850
32671W        W47802   4.516   4.960  16.044  0.0036 -0.0715  0.1247
32672W        W47803   4.940   6.467   1.378  0.1164  0.0814  0.0777
32673W        W47804   2.716   9.268   2.338 -0.1118 -0.2084  0.0535
32674W        W47805  15.133   0.403  10.433 -0.0172  0.1758 -0.1740
32675W        W47806   4.431  12.616   4.288 -0.1936 -0.0459  0.0714
32676W        W47807   7.682  17.320  11.966 -0.3607  0.3073  0.1579
32677W        W47808  12.312  14.236   1.732 -0.0117  0.1066 -0.0655
32678W        W47809  12.332   8.565   0.574  0.0350  0.0910  0.2268
32679W        W47810   7.533   3.285  13.877 -0.0876 -0.2973  0.2418
32680W        W47811   5.356   0.806   4.080 -0.1955 -0.0102  0.1211
32681W        W47812   6.288   2.071  12.058 -0.0491 -0.1865  0.1607
32682W        W47813   3.358   4.610   4.341  0.2034 -0.0257 -0.1439
32683W        W47814   1.933   7.917   4.951  0.0967  0.0730  0.3478
32684W        W47815   6.517   0.212   2.235  0.0237  0.0498 -0.0842
32685W        W47816  10.369  10.749  14.098  0.1229  0.2430  0.3493
32686W        W47817  16.904   7.352   1.920 -0.0403  0.0259  0.1690
32687W        W47818   9.567  14.478  12.697  0.0721 -0.3815  0.2037
32688W        W47819   7.036   0.820   1.501 -0.0517 -0.0644  0.0121
32689W        W47820   5.643  11.751  14.771 -0.2710  0.0988 -0.0173
32690W        W47821   7.781  17.495   1.541  0.0868 -0.0054  0.1841
32691W        W47822  16.107  11.226  15.035 -0.0293 -0.0459 -0.1154
32692W        W47823  13.842  13.399  11.594  0.1765 -0.1442 -0.0483
32693W        W47824   6.535   6.995   4.797  0.0913 -0.0886 -0.1555
32694W        W47825   0.922  13.271   1.565 -0.2380 -0.0395 -0.0200
32695W        W47826   7.595   5.226   0.703 -0.4502  0.1984  0.1980
32696W        W47827  15.287   7.756  12.568 -0.0539 -0.0086 -0.2422
32697W        W47828  10.126   6.257  13.029  0.1522 -0.2050 -0.1389
32698W        W47829   3.093  13.770  13.999  0.1967 -0.2507  0.0262
32699W        W47830   9.696  16.593  14.005 -0.1907  0.1978 -0.1270
32700W        W47831   0.962   1.563   3.912  0.0689  0.0189  0.2384
32701W        W47832  11.432   9.525   3.457  0.3002  0.3429 -0.1513
32702W        W47833   4.005  16.926   0.499 -0.0062 -0.1556 -0.0567
32703W        W47834   2.465  14.335   3.753 -0.1151 -0.0497  0.2532
32704W        W47835  14.135   5.148  15.699 -0.2022  0.0635 -0.2561
32705W        W47836  13.570  16.321  10.782 -0.2123  0.1913 -0.1846
32706W        W47837  11.439   5.179   4.960 -0.0572 -0.1176  0.2202
32707W        W47838  17.438  11.918  13.299 -0.2017  0.3808  0.2535
32708W        W47839   4.265  13.038  13.387 -0.0846  0.1306  0.1685
32709W        W47840   1.076  17.245  11.149  0.2170  0.2535 -0.1070
32710W        W47841   3.158  14.266   1.930  0.0359 -0.2742  0.0439
32711W        W47842  13.410  11.959   0.460  0.0036  0.1960  0.1916
32712W        W47843  13.449   2.948  12.496  0.0316 -0.0390  0.1907
32713W        W47844   1.325   7.737   3.359 -0.0719  0.2030 -0.3240
32714W        W47845  11.906   7.128   1.063 -0.3609  0.3023  0.1345
32715W        W47846   2.037  14.922   3.330  0.3206  0.0191  0.0105
32716W        W47847  10.869   7.407   1.942  0.1410 -0.2303 -0.1830
32717W        W47848  10.812   6.287   1.602  0.1582 -0.1251 -0.3553
32718W        W47849  14.803  14.368   0.535  0.1642 -0.2143 -0.1403
32719W        W47850  14.144  17.612  13.532  0.0949  0.1784  0.0150
32720W        W47851  11.245   7.489  11.134 -0.0442 -0.2700 -0.2044
32721W        W47852  12.601   1.711   4.665  0.1110 -0.0105  0.1299
32722W        W47853   5.126   1.720   2.819 -0.0108 -0.0118 -0.0830
32723W        W47854   1.953  15.549  10.780  0.2178 -0.1470 -0.0839
32724W        W47855  16.461  12.390  14.483 -0.4875 -0.1988 -0.0285
32725W        W47856  14.432   5.441   1.593  0.3741 -0.5026 -0.3295
32726W        W47857  15.338   3.351   4.935 -0.1033 -0.0627 -0.0525
32727W        W47858  12.823  15.801  11.194 -0.1008 -0.0080  0.1012
32728W        W47859  11.808  12.699   2.747 -0.1904  0.2290 -0.1954
32729W        W47860   2.603  16.894   4.692 -0.1090 -0.0767  0.5812
32730W        W47861  10.545   4.397  11.101  0.0225 -0.3003  0.0396
32731W        W47862   7.596   2.585   0.349  0.0831 -0.1944  0.0219
32732W        W47863  12.001  16.792  15.310  0.2412 -0.1308 -0.0090
32733W        W47864  13.926   9.270  13.146 -0.0018  0.0310  0.1902
32734W        W47865   6.883  16.804   4.758  0.0874 -0.1590 -0.1378
32735W        W47866   0.745  16.031   1.945 -0.0087 -0.0625 -0.1699
32736W        W47867  17.111   1.644   0.304 -0.0847 -0.0720  0.1748
32737W        W47868   9.683   8.032  11.180  0.2969 -0.1742 -0.1539
32738W        W47869   5.918   3.378   1.023 -0.1237  0.1575 -0.2630
32739W        W47870  15.083   9.664  14.046 -0.1849  0.1172  0.3309
32740W        W47871   0.314   0.090  14.344  0.1243  0.2811  0.2531
32741W        W47872   7.843  10.192   2.387  0.1678 -0.1026 -0.2434
32742W        W47873  17.050   9.253  11.587  0.0804 -0.1324  0.0126
32743W        W47874   7.284  17.616  13.369 -0.1139  0.1195 -0.1647
32744W        W47875   9.128  15.729  11.983 -0.2008  0.0180 -0.0210
32745W        W47876  12.816   5.929  15.211  0.0654 -0.2520 -0.1062
32746W        W47877  10.709  10.612   0.087 -0.2487  0.0841  0.1813
32747W        W47878   0.588   3.594  15.956 -0.0162 -0.1941  0.1434
32748W        W47879   9.006   2.032   0.537  0.1104 -0.1988  0.1252
32749W        W47880  15.830   1.909  12.238 -0.0389  0.0210 -0.0210
32750W        W47881  14.250   1.097  12.925 -0.0202 -0.3274  0.0164
32751W        W47882   6.610  11.206  10.142  0.1385  0.1831  0.0058
32752W        W47883   9.632   7.976   5.258  0.0204  0.1267 -0.1848
32753W        W47884   7.175   8.784   1.594 -0.0405 -0.1758 -0.2150
32754W        W47885   6.348   6.739  13.586  0.1113  0.2398  0.1358
32755W        W47886  15.842  17.736  11.606 -0.0250 -0.0010  0.0670
32756W        W47887   9.821  11.809   5.087  0.2505 -0.2166 -0.1565
32757W        W47888  13.140   3.207   2.572 -0.0816 -0.0162  0.0252
32758W        W47889  16.752  17.506  12.594 -0.4293 -0.0940  0.1697
32759W        W47890   0.573   4.154   4.867  0.2132  0.0833 -0.1246
32760W        W47891  17.271   6.040   2.474 -0.2665  0.0396 -0.0955
32761W        W47892   2.905   0.031  14.898 -0.0291 -0.0966 -0.1315
32762W        W47893   2.135   6.795   0.467  0.0976  0.1133 -0.0178
32763W        W47894   0.488  16.179  11.195 -0.1419  0.0138 -0.0055
32764W        W47895  11.452  13.978  11.673 -0.3603  0.3856  0.0844
32765W        W47896   8.673   0.460   3.309  0.0145  0.3390  0.3587
32766W        W47897   0.205  16.262   3.529  0.0715  0.1319  0.0399
32767W        W47898   6.715  11.426  16.165 -0.0963 -0.1878 -0.1243
32768W        W47899   9.647  15.176  14.291  0.0273  0.0772 -0.0531
32769W        W47900   8.417   5.331  13.180  0.0039 -0.1022 -0.0501
32770W        W47901  16.030   9.959  14.251  0.1368  0.0429  0.1898
32771W        W47902   6.873  15.661  10.760 -0.3128  0.2017  0.1750
32772W        W47903   0.611   8.751   0.757 -0.1755  0.0381  0.0431
32773W        W47904   2.239   2.096   1.760  0.1999 -0.0077  0.2145
32774W        W47905   1.263  13.421   0.975 -0.0176 -0.1200 -0.0576
32775W        W47906  17.379  14.764  11.248  0.1330  0.2084 -0.0871
32776W        W47907   3.184   0.216   3.322  0.2847 -0.0637 -0.0320
32777W        W47908   5.490  16.555   4.801 -0.1252  0.1832 -0.1158
32778W        W47909  11.141   6.736  13.769  0.1985 -0.2324  0.1386
32779W        W47910  15.170  10.041  15.121  0.0390  0.1664  0.0017
32780W        W47911  12.772  16.448  11.450  0.0652  0.2236 -0.0086
32781W        W47912   7.657   2.215  15.222  0.0208  0.0234 -0.0798
32782W        W47913   6.553  17.812  14.453 -0.2246 -0.1009  0.2741
32783W        W47914   1.258   5.081  12.761  0.0742  0.2516  0.2833
32784W        W47915  11.966   4.810  15.213 -0.1078  0.3303  0.1886
32785W        W47916   0.171  10.149   3.687  0.0323 -0.1497 -0.0574
32786W        W47917  13.392  15.138   1.452  0.1393 -0.1288  0.1341
32787W        W47918  10.118   9.888   0.458  0.0009  0.0977  0.1639
32788W        W47919   8.354  11.196  16.128  0.0142 -0.0243 -0.1257
32789W        W47920   7.802  17.524  16.183 -0.2497  0.1378  0.0665
32790W        W47921  13.524   4.710  12.699  0.0936 -0.0656  0.2939
32791W        W47922  13.406  12.066  16.055  0.1303  0.0693 -0.1270
32792W        W47923  12.847   3.195  11.284  0.0821 -0.0908 -0.1378
32793W        W47924   2.284  13.618   3.006 -0.1176  0.1270  0.0216
32794W        W47925   2.348  15.498  13.251 -0.0291  0.0168 -0.0224
32795W        W47926   8.974  15.450  14.318 -0.0780 -0.0003  0.2317
32796W        W47927   9.792   7.690   4.389  0.0412  0.2207 -0.0641
32797W        W47928   7.019  13.246   2.239  0.1070  0.1394 -0.2767
32798W        W47929  13.501   4.163  12.480 -0.0108 -0.2792 -0.0020
32799W        W47930  15.598   5.667  14.489 -0.1194 -0.0743  0.0518
32800W        W47931   4.053  14.950   4.999 -0.0233 -0.1416  0.1299
32801W        W47932   1.737  16.596   1.672  0.1678 -0.0868  0.2095
32802W        W47933   7.594  17.130   2.830  0.1765  0.1971  0.2435
32803W        W47934  16.105   1.434   3.027 -0.0771 -0.1636  0.4083
32804W        W47935   3.558  11.648   2.210  0.1648 -0.2688  0.3286
32805W        W47936   4.129  10.278   3.949  0.0790 -0.1043 -0.1121
32806W        W47937  16.449   8.404  14.778  0.1305 -0.1056 -0.1000
32807W        W47938   5.438  15.132  12.126 -0.4812  0.2752 -0.0961
32808W        W47939  11.133   4.940   2.835 -0.1405  0.1949  0.0943
32809W        W47940  13.791   8.462   2.470 -0.2168 -0.0932  0.0919
32810W        W47941  17.236   4.659   5.609 -0.0197  0.0809 -0.3034
32811W        W47942  12.593  14.297  13.053  0.0399  0.2699  0.2783
32812W        W47943   1.793  17.837  13.034  0.2082  0.2627  0.0075
32813W        W47944  11.617   5.648   0.071  0.2931  0.1039 -0.0925
32814W        W47945  17.628   5.889   5.739 -0.3996 -0.1855  0.1306
32815W        W47946  14.012   3.435   5.630 -0.0938 -0.0457 -0.2856
32816W        W47947  15.517  16.345   1.244 -0.0074 -0.3001 -0.2901
32817W        W47948  13.225  17.254   3.471 -0.0640  0.2323 -0.3104
32818W        W47949  13.126   6.376   3.136 -0.2028  0.1959 -0.1285
32819W        W47950   1.411   7.432   3.005 -0.2605 -0.2211  0.2457
32820W        W47951   0.807  16.311  13.666  0.1998 -0.0797 -0.1370
32821W        W47952   0.230   8.839  16.225 -0.0472  0.0778 -0.0600
32822W        W47953  17.342  17.738  10.863  0.1348 -0.0157  0.0082
32823W        W47954  14.647  13.780  14.417 -0.0403 -0.3296 -0.1951
32824W        W47955   7.944   9.719   5.763 -0.1029 -0.0858 -0.1317
32825W        W47956   9.722   0.189  11.803 -0.2422  0.1372 -0.2246
32826W        W47957   4.606   2.858  13.891  0.0211 -0.2509 -0.1092
32827W        W47958   2.954   8.081   1.350 -0.0566 -0.0891  0.2268
32828W        W47959  10.358   3.155   1.358 -0.1681  0.2576 -0.0353
32829W        W47960   5.409  13.587  11.389  0.0596 -0.0852 -0.1455
32830W        W47961   2.314   1.293  15.880  0.2293  0.0408 -0.2001
32831W        W47962   6.849   5.889   4.224  0.0856  0.1107 -0.0510
32832W        W47963   0.239  12.850   1.408  0.0641 -0.1745 -0.2662
32833W        W47964   7.591   9.820  10.160 -0.1800 -0.0436 -0.1251
32834W        W47965   6.954   1.233   4.784 -0.2217  0.1944 -0.0234
32835W        W47966  11.123  13.597   4.985  0.1422  0.3078  0.0134
32836W        W47967  16.430   5.089   0.602  0.1558  0.1848  0.1588
32837W        W47968   0.407   2.769   3.784  0.0942 -0.1263  0.1854
32838W        W47969  13.829  12.097   2.687 -0.3001 -0.0192  0.0724
32839W        W47970  12.868  11.212   3.370  0.2271  0.0757 -0.0180
32840W        W47971  10.423  11.376   4.445  0.1286  0.1243  0.1628
32841W        W47972   7.337  14.027  13.110 -0.2019 -0.1523  0.0040
32842W        W47973   1.970  11.957   2.390 -0.0144  0.0099 -0.0835
32843W        W47974  10.594  17.854  13.786  0.0491 -0.2945  0.1874
32844W        W47975   8.895  11.765   5.476  0.1093 -0.2046 -0.5485
32845W        W47976   7.434  14.747   2.446  0.2650 -0.0813 -0.1206
32846W        W47977   3.339   9.766  11.001  0.2612 -0.0999  0.4377
32847W        W47978  17.774   5.973  15.354  0.2914  0.1539 -0.1872
32848W        W47979   3.293  13.358  13.850  0.1896 -0.0066 -0.0430
32849W        W47980   8.296   5.704   0.009 -0.1918 -0.0683 -0.1484
32850W        W47981   9.545   8.820   1.214 -0.1491 -0.1359 -0.0517
32851W        W47982   2.361  17.121   1.751 -0.0470 -0.1991  0.1976
32852W        W47983  15.275  12.120  13.390 -0.3403 -0.0690  0.6216
32853W        W47984   0.146  10.078   4.224 -0.0638  0.2211  0.0013
32854W        W47985   8.017  15.243   5.006  0.1686  0.0870  0.0618
32855W        W47986   8.978   0.455   9.997 -0.2778 -0.1166 -0.1010
32856W        W47987  11.594   9.129  11.525 -0.1631 -0.0740  0.1054
32857W        W47988   8.746   9.218  12.018 -0.0288 -0.0696  0.1430
32858W        W47989   7.409   3.038  12.922 -0.0619  0.0948 -0.0343
32859W        W47990  14.176  12.189   4.976 -0.1152 -0.1097  0.0219
32860W        W47991  17.301   7.313   5.219  0.1276 -0.0735  0.0618
32861W        W47992   5.192   9.145  14.542 -0.3605 -0.1366 -0.1196
32862W        W47993  12.084  17.277   0.383  0.2042  0.1230  0.1627
32863W        W47994   1.406   9.195  15.684 -0.0145  0.0577  0.0234
32864W        W47995  13.415  12.407   0.163  0.0318 -0.0717 -0.0062
32865W        W47996   1.075   7.855  15.080 -0.0616  0.0142 -0.2841
32866W        W47997   2.963   1.277  13.021 -0.0160 -0.0184  0.0112
32867W        W47998  17.185   4.416  13.535  0.1049 -0.0699  0.1748
32868W        W47999   0.428  16.880  10.697 -0.0011  0.0180  0.0356
32869W        W48000  16.482  14.066   3.819 -0.0538  0.0302  0.1262
32870W        W48001   0.751   5.785  15.706  0.1424  0.2652  0.4359
32871W        W48002   9.209  17.850  14.002  0.0895 -0.3538  0.0915
32872W        W48003   4.278   8.331   2.516  0.2457  0.1397 -0.1824
32873W        W48004   3.097   2.349   4.467 -0.3428 -0.2769 -0.0289
32874W        W48005   2.902   3.670   4.615 -0.1569 -0.0153 -0.1307
32875W        W48006   0.309   3.033  11.316 -0.1886  0.0100  0.1730
32876W        W48007   3.110  13.465  10.838 -0.1534 -0.0445 -0.2615
32877W        W48008   2.933   9.085   1.048  0.1756 -0.1001 -0.2215
32878W        W48009   9.900   0.077   0.647  0.2484 -0.0622 -0.0627
32879W        W48010   8.791   3.685  13.291 -0.1532 -0.4292 -0.1923
32880W        W48011  15.526   1.528   1.929 -0.0429  0.0425 -0.3447
32881W        W48012  14.892  15.846  11.599 -0.2100 -0.2598  0.5055
32882W        W48013   9.279   6.074  14.991 -0.2248  0.0091 -0.0151
32883W        W48014  13.688  15.689   2.782 -0.0057  0.3802  0.0647
32884W        W48015  10.629  11.147  12.596 -0.1018 -0.2027  0.0527
32885W        W48016   5.076   5.118  14.322  0.0117 -0.1792  0.0226
32886W        W48017  10.996  15.477   1.928  0.0059  0.1370 -0.0290
32887W        W48018  12.649   0.751   1.081  0.3297 -0.1432 -0.0451
32888W        W48019   7.214   4.542   4.574  0.1900  0.2953 -0.0768
32889W        W48020  10.538   8.444  14.269 -0.0888  0.0123  0.3486
32890W        W48021   1.586  12.191   2.666 -0.1003  0.1937  0.1027
32891W        W48022  11.347   1.214   4.772  0.1597  0.1366  0.1599
32892W        W48023   8.457   0.707   3.688  0.2692 -0.0424  0.0807
32893W        W48024   8.953  14.978   4.829  0.1792 -0.1584  0.3356
32894W        W48025  15.025  17.884   0.127 -0.1327 -0.0553 -0.1295
32895W        W48026  17.001  15.661  12.841  0.4290  0.1086 -0.4962
32896W        W48027   0.057   9.546   1.011  0.1168 -0.1197 -0.1970
32897W        W48028   4.607  11.070   4.396  0.0405 -0.1164  0.1649
32898W        W48029   3.482  14.813  11.175  0.0270 -0.0094  0.2808
32899W        W48030  14.091   4.635  14.881  0.2312 -0.2434 -0.3107
32900W        W48031   5.067  10.206   4.580 -0.0613 -0.0867 -0.0845
32901W        W48032  11.260   1.576   2.847  0.0587  0.1610 -0.2819
32902W        W48033  11.781   2.002  15.202  0.0684 -0.0434  0.2898
32903W        W48034   8.628  16.986   6.066 -0.5375  0.1613  0.0529
32904W        W48035   9.083   4.593  14.575 -0.2002 -0.0499 -0.3361
32905W        W48036  13.910   4.837   1.954  0.0174  0.2129 -0.0294
32906W        W48037   9.989   0.043  14.630  0.3348  0.1256 -0.0545
32907W        W48038  17.319   0.300   2.998  0.0424  0.2105 -0.0686
32908W        W48039   0.491   6.136  15.059 -0.0847  0.0297  0.5155
32909W        W48040  15.768   7.668   0.378 -0.1487 -0.0345  0.1028
32910W        W48041   3.270   9.180   2.040 -0.2170 -0.0146  0.1932
32911W        W48042  17.446  12.894   0.315 -0.1697 -0.1785  0.1109
32912W        W48043  12.178   0.591  13.241 -0.0247  0.1441 -0.0256
32913W        W48044  12.959  13.457   4.927  0.1441 -0.0122  0.1812
32914W        W48045   8.819  13.940  12.023  0.3307  0.0256 -0.0962
32915W        W48046  13.942   6.255  14.537  0.0427  0.1076  0.1246
32916W        W48047   1.115   7.305   3.519 -0.0991 -0.1606 -0.1941
32917W        W48048   3.121  17.574  10.961  0.1420 -0.1940  0.2355
32918W        W48049  13.140   3.736   4.897 -0.3151 -0.1196 -0.1322
32919W        W48050  10.570   3.375  11.185  0.2655  0.1148 -0.1193
32920W        W48051   4.133   4.607  12.680  0.1322  0.1429 -0.0111
32921W        W48052  16.136   5.766  12.061  0.4437 -0.2416  0.2428
32922W        W48053   9.139   0.895  14.063 -0.1506  0.1123 -0.5405
32923W        W48054  12.905   0.995  14.667 -0.1253 -0.1525  0.1304
32924W        W48055  14.146  16.681  10.070 -0.0001  0.3230 -0.0686
32925W        W48056  14.553  11.245   2.706 -0.0470  0.0945 -0.0618
32926W        W48057  15.953   0.629  15.806 -0.0112 -0.0323  0.2398
32927W        W48058  17.167   8.999   0.358 -0.0268 -0.0625 -0.2363
32928W        W48059   6.330   6.362   1.003 -0.0964 -0.1068  0.0853
32929W        W48060  14.546   3.190   3.288 -0.1839  0.1120 -0.2123
32930W        W48061   7.459   4.501  11.296  0.1503  0.1270 -0.1452
32931W        W48062   9.651   5.763  15.031 -0.2063 -0.0048  0.0104
32932W        W48063  11.216  11.973  14.530 -0.4479  0.2365  0.0973
32933W        W48064   1.976   1.866   3.213 -0.0384  0.1834  0.1584
32934W        W48065   9.277   0.505   1.702 -0.3052 -0.1498  0.2061
32935W        W48066   6.253   8.359   5.432 -0.0128  0.0017  0.2423
32936W        W48067   0.014  18.001  14.737 -0.0652  0.0054 -0.2045
32937W        W48068  16.284  17.565  15.207 -0.0133 -0.1092  0.0023
32938W        W48069  10.055  16.823  14.608  0.1593  0.2687  0.2615
32939W        W48070   5.664   2.243  15.420  0.0477  0.0423  0.0899
32940W        W48071  18.087   5.224  14.162  0.1976  0.0253 -0.0261
32941W        W48072   1.660  14.763   1.006 -0.0315 -0.0633 -0.0567
32942W        W48073   8.486   8.131   0.245  0.2956 -0.0581  0.0469
32943W        W48074   3.068  13.380   4.067 -0.0040  0.0173 -0.4857
32944W        W48075  12.998   2.803  12.667  0.0768 -0.0643 -0.3152
32945W        W48076  10.548   5.123   4.775 -0.2125 -0.1014 -0.0629
32946W        W48077  10.473   4.517  12.071 -0.3179  0.1755  0.0689
32947W        W48078  18.080   1.207  12.799  0.0695  0.0170 -0.0508
32948W        W48079  14.160  13.075   5.497 -0.2769 -0.0500  0.1939
32949W        W48080   3.363  12.943  12.786  0.1962  0.1161  0.1244
32950W        W48081  16.526   7.204  14.850 -0.0124 -0.1121 -0.2831
32951W        W48082  15.607  18.060   1.883 -0.2302 -0.0296  0.3812
32952W        W48083  10.769   0.071   5.900 -0.1194 -0.0209 -0.3067
32953W        W48084  13.889   3.500  10.019  0.2166 -0.1170  0.0607
32954W        W48085   4.593   1.030  11.107 -0.0440  0.3813  0.0324
32955W        W48086   1.271   6.829   3.590 -0.1366  0.0783  0.2593
32956W        W48087  10.837   5.570   0.818 -0.2150 -0.1762 -0.0612
32957W        W48088  10.229   6.124  13.535 -0.3219 -0.0588  0.1825
32958W        W48089  14.930   2.793   3.199  0.0956  0.1994 -0.0615
32959W        W48090  14.243   7.809  11.442 -0.1410 -0.0297 -0.3279
32960W        W48091  12.498   0.590  11.200  0.2485  0.0077 -0.0362
32961W        W48092   7.560  12.449  11.028  0.2425 -0.0875  0.1117
32962W        W48093  17.627   8.844  11.349 -0.0966 -0.1077  0.0631
32963W        W48094   1.643  16.762   4.891 -0.0031 -0.1511 -0.0162
32964W        W48095   6.364   2.467   1.371 -0.0131  0.1724 -0.1253
32965W        W48096   5.254  10.571  12.074  0.1222  0.0099 -0.2829
32966W        W48097  13.297   0.155   1.572 -0.2352  0.1465 -0.0965
32967W        W48098  12.167   4.361  15.427 -0.1982 -0.0542  0.1330
32968W        W48099  13.853  16.971   1.972 -0.0041  0.0747  0.0108
32969W        W48100   3.061   9.699  14.023 -0.2199  0.2340  0.1164
32970W        W48101  14.118  16.379   1.916 -0.0069 -0.0127 -0.1174
32971W        W48102  10.496  18.098   1.464 -0.1570  0.0636 -0.1344
32972W        W48103   2.501   3.518   2.770 -0.1354 -0.0946  0.4569
32973W        W48104   4.290   5.782   2.293 -0.0185 -0.1663  0.0319
32974W        W48105   9.873   0.492  10.343 -0.1256 -0.0646 -0.0283
32975W        W48106  14.605   4.259  15.664  0.1589 -0.3137 -0.3943
32976W        W48107  14.626  11.713   3.339  0.0413  0.2031  0.1497
32977W        W48108  16.151   9.889   4.585 -0.1392  0.0853 -0.2301
32978W        W48109  17.686  13.025  12.118  0.2465 -0.2895  0.2857
32979W        W48110  11.525   1.357  11.734  0.0963 -0.0775 -0.0570
32980W        W48111  15.293  12.791   2.145  0.1112  0.0777  0.1526
32981W        W48112   0.072  13.810   4.014 -0.0512 -0.1566  0.2853
32982W        W48113   5.071  15.301   0.525  0.0463  0.0957 -0.1961
32983W        W48114   3.620  17.510  12.631  0.1332 -0.0350 -0.0476
32984W        W48115   5.574   3.450   2.680  0.0098  0.0131 -0.0150
32985W        W48116  12.054   0.044   2.634 -0.3534 -0.1875  0.3160
32986W        W48117   8.018   6.051   0.793  0.0081 -0.0492  0.0265
32987W        W48118  11.540  14.687  14.777  0.1561 -0.1753 -0.0762
32988W        W48119  15.386   1.591  15.951  0.3259  0.4319  0.0851
32989W        W48120  16.175  16.948   5.462  0.1095 -0.1837  0.1578
32990W        W48121   6.227  13.521   3.411  0.0339 -0.1136 -0.0754
32991W        W48122  16.270   1.271   1.955 -0.3142 -0.1199 -0.3028
32992W        W48123  17.222   1.725  11.900  0.0651 -0.2576 -0.3036
32993W        W48124   2.787   7.501   4.275  0.1671 -0.1045 -0.4952
32994W        W48125  17.102   0.827   1.387 -0.1017  0.0636  0.0347
32995W        W48126  11.882   5.406  13.635  0.3028 -0.1411 -0.0149
32996W        W48127  13.446   2.959   2.081  0.2013 -0.0413 -0.2260
32997W        W48128  15.125   7.250   1.781 -0.1515  0.1804  0.0478
32998W        W48129  17.800   3.673   0.814  0.1145  0.0536 -0.1698
32999W        W48130   3.275   0.363  11.201 -0.2142  0.1530  0.3464
33000W        W48131   2.913  11.988   5.413  0.0187  0.0437  0.1735
33001W        W48132  11.528   9.340   2.958  0.3295 -0.0268  0.1417
33002W        W48133   9.501   8.052   4.170  0.3516 -0.2115  0.0367
33003W        W48134  11.836  17.554   3.283 -0.2847 -0.1332  0.0153
33004W        W48135  10.332  17.011  10.924 -0.2042 -0.0375 -0.1688
33005W        W48136   8.181  12.596   0.946  0.0528 -0.0328  0.1887
33006W        W48137  14.951   4.075   3.533 -0.0056 -0.1662 -0.4073
33007W        W48138   5.411  12.806  11.491  0.2209 -0.0077  0.3774
33008W        W48139  18.072  11.073  14.967  0.0985  0.0001 -0.0924
33009W        W48140  15.459   9.846  12.172  0.1434  0.0582  0.0150
33010W        W48141  11.853  12.390  15.393  0.2463  0.2638 -0.1218
33011W        W48142  14.444  10.543   2.127 -0.0597  0.3226  0.0387
33012W        W48143  11.473   8.421  13.311  0.2857  0.0027  0.1154
33013W        W48144  10.331   6.747  15.074  0.0774  0.2028  0.0992
33014W        W48145  14.841   9.308   0.528  0.1984 -0.2468 -0.2278
33015W        W48146   0.773   0.637  13.103  0.1386  0.0582 -0.0081
33016W        W48147   6.571   5.663  15.106  0.0639  0.2298 -0.2644
33017W        W48148   8.513  12.970  15.214 -0.0052 -0.3327 -0.1080
33018W        W48149  12.284   6.040  10.768  0.2565  0.1364  0.1478
33019W        W48150  10.482   8.261  13.360  0.0754  0.1806 -0.2137
33020W        W48151  12.934  13.091  11.708 -0.1125 -0.0056  0.1056
33021W        W48152  12.718  14.954   0.733  0.0176  0.1682  0.0108
33022W        W48153  13.906  13.703   4.504 -0.1214  0.2666 -0.1022
33023W        W48154   5.723   2.270  13.605  0.1498 -0.1524  0.1884
33024W        W48155  13.851   9.190  14.072  0.1100  0.2092 -0.0169
33025W        W48156  13.706   8.269   4.444 -0.0190  0.1335  0.1224
33026W        W48157  12.946   2.516  15.638  0.1333  0.2220 -0.0426
33027W        W48158   0.555   4.904  15.852  0.0710  0.2437 -0.0919
33028W        W48159   8.061  13.552   3.811  0.2768 -0.0595  0.0070
33029W        W48160   5.955   2.986   1.981 -0.0068 -0.2601  0.1203
33030W        W48161   8.720   1.979   0.089 -0.1625  0.0682  0.0884
33031W        W48162  10.067   4.779  11.854  0.3100 -0.3495 -0.0095
33032W        W48163  10.078   5.499   1.995 -0.4136 -0.1799 -0.0802
33033W        W48164   2.127  12.878  11.769 -0.1885 -0.0578  0.1504
33034W        W48165   3.762   5.970   4.588 -0.0812 -0.1369  0.1783
33035W        W48166   8.398  12.212   5.882 -0.0119 -0.0678 -0.0764
33036W        W48167   5.986   7.967   5.150  0.0561 -0.1011 -0.2029
33037W        W48168  11.039   8.617   3.757  0.1804  0.0150  0.1309
33038W        W48169   5.570   0.432  11.180 -0.0318 -0.0575  0.0257
33039W        W48170   0.183  12.152  14.065 -0.2798 -0.0256  0.1997
33040W        W48171  14.039  14.706   1.867 -0.0045 -0.0775  0.0664
33041W        W48172   0.300   0.754  11.685  0.1525  0.2391  0.1747
33042W        W48173  14.753   4.574  11.674  0.0560 -0.0241 -0.1708
33043W        W48174   9.654   1.559  11.801 -0.0461 -0.0775  0.0983
33044W        W48175   2.714   8.919  14.128 -0.1119  0.0945  0.1353
33045W        W48176   3.364   4.663   5.806 -0.0573  0.0819  0.3391
33046W        W48177  12.860   3.369   4.221  0.2064  0.0204 -0.1399
33047W        W48178  15.858   1.621  13.682 -0.1246  0.0793 -0.1105
33048W        W48179   8.362  17.899  13.437 -0.0143  0.1052  0.0849
33049W        W48180  11.837  12.727   4.939 -0.1202 -0.0120 -0.0597
33050W        W48181   7.437   2.521   1.723  0.2792 -0.3107 -0.1856
33051W        W48182   0.953   6.025   5.020  0.0775 -0.3029  0.1427
33052W        W48183   4.133  14.954   0.944 -0.0892 -0.0510  0.0512
33053W        W48184  11.007  16.098   3.532  0.0002 -0.1310  0.1067
33054W        W48185  13.647   3.108  13.408  0.1938  0.0019  0.0046
33055W        W48186   2.613   0.571  11.719 -0.1333 -0.0626  0.2286
33056W        W48187  13.439   7.268   2.302 -0.1945 -0.0707  0.0696
33057W        W48188  16.533  16.448   2.776 -0.1770 -0.1448 -0.0540
33058W        W48189   2.784  10.057   4.025 -0.3296 -0.3104  0.0799
33059W        W48190  16.497  13.728   5.897 -0.6948 -0.2810  0.1253
33060W        W48191  16.926  16.320   3.199  0.2642  0.1806  0.0774
33061W        W48192   6.786  12.794   2.313  0.4017  0.0036  0.0733
33062W        W48193  12.659  13.447   0.672 -0.1887 -0.4346  0.0990
33063W        W48194  16.458   8.693   4.792  0.2135 -0.0142  0.1125
33064W        W48195  11.878  18.103   5.065 -0.3245  0.1216  0.2475
33065W        W48196  12.447   2.691  15.465  0.3987 -0.0358  0.0956
33066W        W48197  11.104   0.595   4.510  0.2757 -0.0177 -0.3794
33067W        W48198   4.822  16.180   5.458 -0.0362 -0.1228 -0.2114
33068W        W48199  14.157   7.068  12.443  0.0295  0.0968  0.3697
33069W        W48200   6.053   7.191  11.405  0.1130 -0.1141 -0.2933
33070W        W48201  15.815   1.208  15.026 -0.0139  0.2099 -0.0765
33071W        W48202  14.230   0.266   5.795  0.3006  0.0271 -0.1356
33072W        W48203  11.276  10.281  12.080 -0.1087 -0.0407  0.2692
33073W        W48204  18.048  17.643  11.299  0.3484 -0.1414  0.0271
33074W        W48205   4.611   3.353   0.891 -0.3092  0.1184 -0.0927
33075W        W48206   4.549   6.321  12.541 -0.1044 -0.1905 -0.2206
33076W        W48207  17.780   8.480  14.454 -0.0548  0.3296  0.0094
33077W        W48208  16.196  17.306  11.531  0.2047 -0.0037  0.2526
33078W        W48209   8.029   6.616  14.720  0.1699  0.1673  0.1894
33079W        W48210   2.165   5.504  16.220  0.0217  0.2798 -0.1528
33080W        W48211  13.228   3.708  15.748  0.0806 -0.0186  0.0382
33081W        W48212  11.120   3.612   5.515  0.0681  0.0202 -0.1972
33082W        W48213  11.160   2.132   5.618 -0.1302  0.0925 -0.2853
33083W        W48214   7.437   0.188  13.210  0.0763  0.2819  0.3206
33084W        W48215   6.766  13.590   2.447 -0.1479 -0.4222 -0.0929
33085W        W48216   3.380   8.996   2.501 -0.1510  0.0861  0.1593
33086W        W48217   9.242  14.254   4.444  0.0932 -0.0525  0.2861
33087W        W48218  12.893   2.871   3.700  0.0782 -0.2533  0.2200
33088W        W48219   0.056   4.780   4.414  0.0961  0.3144  0.3603
33089W        W48220   5.797  15.989  11.273 -0.1371  0.1328  0.0464
33090W        W48221   5.533  17.606  15.302  0.0031  0.0941 -0.0138
33091W        W48222   4.866  10.064   2.911  0.1076  0.3950 -0.0030
33092W        W48223  17.549  11.834  12.438  0.0933 -0.1662  0.0456
33093W        W48224   2.077  14.693  12.681  0.0440  0.0135 -0.2212
33094W        W48225   2.981  13.766   1.926 -0.1701  0.3796  0.0584
33095W        W48226   3.586  13.526   4.756  0.0114 -0.0593 -0.1227
33096W        W48227  13.790   7.369  12.567  0.2437 -0.2417 -0.3575
33097W        W48228   1.896  14.013  15.422  0.1564 -0.0198  0.0831
33098W        W48229   6.161   3.451   4.108 -0.3545  0.1426  0.0944
33099W        W48230   9.245  15.738  11.458  0.1380  0.0099 -0.1490
33100W        W48231  12.546   5.741  15.573 -0.2691  0.2935 -0.0530
33101W        W48232  12.831   9.945  13.864  0.1169 -0.0750 -0.0219
33102W        W48233  11.220   3.153   5.801  0.1297  0.3140  0.2610
33103W        W48234  13.852   6.416   5.153  0.0934 -0.1391  0.0184
33104W        W48235  11.277   6.104   4.889 -0.2120 -0.3287 -0.2296
33105W        W48236   2.790  14.559   0.387  0.2082  0.0195 -0.2970
33106W        W48237   0.621   6.473   6.307  0.1151 -0.1422  0.1733
33107W        W48238   2.586  13.676  16.029 -0.4234  0.2426 -0.0244
33108W        W48239   1.010  17.967   5.453 -0.0588 -0.2107 -0.0194
33109W        W48240   8.871  14.221   1.328 -0.0015  0.1918  0.1950
33110W        W48241  10.922  14.605   2.433  0.0355 -0.3314 -0.0556
33111W        W48242  14.300   0.949   5.036 -0.1976  0.2672 -0.2956
33112W        W48243   1.262   9.661   2.248  0.1878  0.1432 -0.0383
33113W        W48244  16.308   8.184  12.021 -0.2996  0.0434  0.1047
33114W        W48245   4.385   5.935  11.013  0.2888 -0.2130  0.0533
33115W        W48246  12.310   7.771  10.493  0.1035  0.2880  0.0664
33116W        W48247  12.155   8.927  15.604  0.1329 -0.0252 -0.1752
33117ION     NA48248  16.880  17.132   9.884  0.4389  0.1394  0.2437
33118ION     NA48249   3.358   8.588   1.146 -0.1292 -0.0891  0.0414
33119ION     NA48250   4.600   7.272  12.491  0.1724 -0.1006 -0.1346
33120ION     NA48251   8.894   2.498   5.982  0.0838 -0.0977 -0.0898
33121ION     NA48252  11.871   7.069   1.943  0.1806 -0.3228 -0.0725
33122ION     NA48253   1.946   1.289   3.768 -0.0262 -0.0668  0.1176
33123ION     NA48254   0.889  11.156   2.594 -0.1321  0.0691  0.0349
33124ION     NA48255   2.876  16.012  13.255  0.0134 -0.0015  0.3573
33125ION     NA48256  11.068   1.389   1.932  0.0612 -0.1904 -0.1497
33126ION     NA48257  15.131   5.524  10.990  0.3050  0.2903 -0.0745
33127ION     NA48258  14.534  11.537  13.157 -0.2251  0.0163 -0.6054
33128ION     NA48259   7.280  16.273   5.835  0.0094  0.5074  0.0928
33129ION     NA48260  17.600   9.569  10.957 -0.1305  0.2377  0.0395
33130ION     NA48261  14.697   8.651  11.075  0.3725  0.1434  0.2078
33131ION     NA48262  14.198   7.016   3.421  0.1422  0.5220 -0.2747
33132ION     NA48263  10.712  15.425  15.852  0.0264  0.0274 -0.1708
33133ION     NA48264  10.732   1.306  10.028  0.0542  0.2117  0.2353
33134ION     NA48265  11.096  14.720   1.488  0.2358 -0.0368  0.0531
33135ION     NA48266  17.089   8.437   5.284  0.0753 -0.2887 -0.0005
33136ION     NA48267  18.044   7.706   3.004  0.1730 -0.1847  0.1585
33137ION     NA48268   8.657   5.190   6.156 -0.0351 -0.0782  0.0429
33138ION     NA48269   0.085   3.584   2.478  0.0279  0.1523 -0.0893
33139ION     NA48270   1.704   3.282   5.578 -0.2184 -0.0369  0.1293
33140ION     NA48271  12.720  13.990   5.909  0.1183 -0.1706  0.0668
33141ION     NA48272   5.638   7.069  15.586 -0.0651 -0.1394 -0.0015
33142ION     NA48273   8.191  12.741   4.797 -0.0847 -0.0322  0.2550
33143ION     NA48274  10.361   5.002  10.522  0.2587 -0.2638 -0.0158
33144ION     NA48275  15.297  14.299   5.822  0.2351 -0.2505 -0.0953
33145ION     NA48276  10.794   1.947   1.362 -0.1374  0.0705 -0.0307
33146ION     NA48277  17.581  14.258  12.678  0.2234  0.3070 -0.0171
33147ION     NA48278  11.266   1.233   5.707 -0.0230  0.0562  0.0280
33148ION     NA48279  11.137   9.355   0.804  0.1229  0.2032  0.1693
33149ION     NA48280  13.007   6.578   6.352  0.1164  0.1027  0.1346
33150ION     NA48281   2.528   5.046   2.444 -0.2306 -0.0905 -0.1347
33151ION     NA48282   8.403   3.856  12.923 -0.2633  0.2075 -0.0418
33152ION     NA48283   8.356   8.848   1.272  0.0328 -0.0826 -0.0104
33153ION     NA48284   3.861   7.155  10.536  0.1816 -0.2256  0.1579
33154ION     NA48285  15.688   0.304   5.789 -0.0430  0.1098 -0.0264
33155ION     NA48286   8.657  16.307  14.049  0.3824 -0.2759  0.0823
33156ION     NA48287  12.504   9.772   1.261  0.2176  0.0830 -0.1402
33157ION     NA48288   0.274  10.026   0.952 -0.0571 -0.0943 -0.3159
33158ION     NA48289   8.540  14.934  15.441 -0.0897 -0.0753  0.1132
33159ION     NA48290  16.172   8.572   1.340  0.0056  0.1614  0.3540
33160ION     NA48291   6.932  11.522  15.694 -0.2155 -0.0705  0.0152
33161ION     NA48292   7.948  14.673  10.213 -0.2675  0.0081 -0.1114
33162ION     NA48293   6.426  17.463   3.327  0.0175 -0.0511  0.0634
33163ION     NA48294  16.664   4.322  15.927  0.2886  0.0220  0.2818
33164ION     NA48295  15.833   2.858   1.276 -0.0717 -0.1537 -0.0396
33165ION     NA48296   2.264   1.256   2.908 -0.0838  0.3194  0.0406
33166ION     NA48297   7.701  12.730   6.199 -0.0901  0.2376  0.0940
33167ION     NA48298  12.624  15.112   5.837 -0.4234 -0.2955  0.1506
33168ION     NA48299  13.630   1.144  15.197 -0.1831  0.2073  0.1780
33169ION     NA48300  10.394   3.589   5.594  0.1671 -0.2587  0.0179
33170ION     NA48301   7.102   0.398  15.745 -0.0284 -0.0929 -0.0398
33171ION     NA48302   7.721   9.062   3.457 -0.2547 -0.2519  0.4109
33172ION     NA48303   9.284  16.704   0.123 -0.0296 -0.1786 -0.1152
33173ION     NA48304  14.938   6.004  14.319  0.0239 -0.0556  0.2069
33174ION     NA48305  11.707   4.062  15.250 -0.2045 -0.0289  0.0531
33175ION     NA48306  13.448   2.529  12.791 -0.1518 -0.1563 -0.1871
33176ION     NA48307  12.288   4.239   3.090  0.1274 -0.2342 -0.2132
33177ION     NA48308   5.628  15.780   5.680  0.1749 -0.0976  0.2297
33178ION     NA48309   5.426   0.695  10.288  0.1812 -0.1290 -0.2803
33179ION     NA48310  16.689   0.578  10.185 -0.1449  0.0342  0.1833
33180ION     NA48311  16.925   4.716  10.319 -0.1811  0.0071  0.0332
33181ION     NA48312  17.759   3.179  15.909  0.1121 -0.2322  0.1840
33182ION     NA48313   3.172  11.127  13.894  0.2313 -0.0179  0.0748
33183ION     NA48314  12.776   9.390  10.412  0.1184 -0.2000 -0.1625
33184ION     NA48315   7.617   0.029  12.315 -0.0307 -0.1233  0.1209
33185ION     NA48316   6.423   4.051   2.076  0.3390  0.1731  0.1206
33186ION     NA48317   4.110  15.359   5.320 -0.1778  0.1132 -0.1345
33187ION     NA48318   7.604  11.537  10.377 -0.1040 -0.2343 -0.0233
33188ION     NA48319  16.487   9.454   1.821  0.2780 -0.3248 -0.1033
33189ION     NA48320   7.409  10.857   5.593  0.1196  0.0065 -0.0400
33190ION     NA48321  14.833   4.676   1.944  0.4151 -0.3034 -0.3310
33191ION     NA48322   9.910   8.994   6.218  0.0943 -0.0746 -0.0445
33192ION     NA48323   8.616   8.867  16.065 -0.4034 -0.1161 -0.4690
33193ION     NA48324  17.826   9.313  11.853  0.0609 -0.2869  0.1823
33194ION     NA48325   5.751  16.569   1.755  0.2448  0.0338 -0.0547
33195ION     NA48326   0.714   6.230  15.512 -0.2044  0.2443  0.1325
33196ION     NA48327   9.337   0.976   1.856  0.0191 -0.2326  0.0744
33197ION     NA48328  16.319  18.001  15.564 -0.0148  0.1686  0.1050
33198ION     NA48329   6.269  14.430  14.944 -0.1141  0.0089  0.0995
33199ION     NA48330   0.970   9.943   5.814 -0.2569 -0.0363  0.0371
33200ION     NA48331   6.497   7.978   3.195  0.2069  0.1495 -0.0825
33201ION     NA48332   4.341   6.817   5.381 -0.0116  0.1629 -0.4227
33202ION     NA48333   9.019  12.917   6.251 -0.0532 -0.2397 -0.3192
33203ION     NA48334  14.950  10.429  10.361  0.4253 -0.3902  0.1913
33204ION     NA48335  16.667  14.801   6.043 -0.1660 -0.0258 -0.1206
33205ION     NA48336  11.986  13.207  12.091 -0.1730 -0.0175  0.1338
33206ION     NA48337   7.207   5.236   6.257  0.2932 -0.0060  0.3175
33207ION     NA48338  12.200   6.230   4.122 -0.1219 -0.5245  0.2289
33208ION     NA48339  15.657   0.758  14.692 -0.0152  0.1504 -0.0227
33209ION     NA48340   1.253  10.526  13.776  0.0765  0.0065 -0.2711
33210ION     NA48341  14.201  16.171  10.128 -0.2627  0.0622 -0.0812
33211ION     NA48342   1.906  15.648   9.563  0.1586  0.1125  0.0753
33212ION     NA48343  14.491   9.386   4.070 -0.2264  0.0297  0.2270
33213ION     NA48344   7.154  14.882  10.680  0.0890  0.0442  0.1744
33214ION     NA48345  15.098   6.542  10.525 -0.0754  0.3504 -0.2496
33215ION     NA48346  13.524  14.137   2.327  0.2806 -0.2783  0.3832
33216ION     NA48347   7.175  11.502   4.738  0.0851 -0.0615 -0.2394
33217ION     NA48348   5.248  17.613  15.779  0.2662 -0.1671  0.0813
33218ION     NA48349  10.655   6.989   6.050 -0.0822  0.0002  0.0546
33219ION     NA48350  11.022  10.458  13.171 -0.1238  0.0811 -0.0048
33220ION     NA48351   8.140  12.248  15.239  0.0509  0.3714  0.0461
33221ION     NA48352  15.930  17.292   5.792 -0.2116 -0.2207  0.1129
33222ION     NA48353   4.471  11.484  10.190  0.2230 -0.0254  0.0448
33223ION     NA48354   8.868   4.570  15.072  0.1064 -0.2195  0.0322
33224ION     NA48355   9.091   7.314   6.120  0.0208  0.3493  0.0262
33225ION     NA48356  17.124  17.224  11.179  0.0825 -0.0773  0.0693
33226ION     NA48357  17.761   9.063   4.836  0.1299 -0.2026  0.2148
33227ION     NA48358  12.957   1.510   2.283  0.0423 -0.0355 -0.4684
33228ION     NA48359   0.301  10.919  15.459 -0.1416 -0.0070  0.0035
33229ION     NA48360   9.301   4.254   5.791  0.0751 -0.0106 -0.3141
33230ION     NA48361  10.052   9.885   5.895  0.3598 -0.1591  0.0490
33231ION     NA48362   4.822   4.906   4.615 -0.3837 -0.2777 -0.0195
33232ION     NA48363   8.392  12.224  10.233  0.1842 -0.4044  0.0971
33233ION     NA48364   2.215   4.304   6.222 -0.0860 -0.1643  0.0978
33234ION     NA48365  12.049   1.209  14.491  0.2524  0.2286  0.0964
33235ION     NA48366   9.017   3.295  11.696 -0.0008 -0.1521 -0.0769
33236ION     NA48367   2.452  12.476   1.169 -0.2201 -0.2630 -0.1493
33237ION     NA48368  13.398  15.634   0.165  0.1593 -0.1125 -0.2569
33238ION     NA48369   8.872   4.960   1.609  0.2166 -0.0816 -0.0366
33239ION     NA48370   4.793  15.740   5.733 -0.0026 -0.2067 -0.0935
33240ION     NA48371   9.571  16.802  14.443  0.0799 -0.1837  0.0447
33241ION     NA48372  13.511  14.569   0.222  0.4062  0.1185 -0.0266
33242ION     NA48373  15.435   7.038   5.826  0.1052  0.5376 -0.0193
33243ION     NA48374   0.356   7.765   6.367  0.0916 -0.1098 -0.1564
33244ION     NA48375   0.361   3.867  11.920 -0.0825 -0.2308  0.0402
33245ION     NA48376  13.922   3.854   3.452  0.3508 -0.0537  0.0913
33246ION     NA48377   6.568   4.005   1.114  0.1636  0.0943  0.1416
33247ION     NA48378   3.397   0.642  14.149  0.0214 -0.1876  0.2745
33248ION     NA48379   5.557  11.166  16.175 -0.0096 -0.1145  0.1513
33249ION     NA48380   7.747  15.821  10.372  0.1236  0.2617  0.2772
33250ION     NA48381   9.239  12.017  10.332 -0.0014 -0.0538 -0.2200
33251ION     NA48382   0.584  13.656   2.447  0.0755  0.1301 -0.2002
33252ION     NA48383   3.501   7.196   4.872  0.1859 -0.0835  0.0614
33253ION     NA48384   0.888   7.157   2.231  0.0652 -0.2413  0.4210
33254ION     NA48385  11.886  12.311   5.545 -0.0908  0.2901 -0.0025
33255ION     NA48386  15.165  11.835   0.465  0.1866  0.0895 -0.1154
33256ION     NA48387  11.851   0.424   3.197  0.2393 -0.2354 -0.2726
33257ION     NA48388   0.155   9.980  10.521  0.0181 -0.1050 -0.2070
33258ION     NA48389   4.756   1.055  12.233 -0.0434 -0.2480 -0.0044
33259ION     NA48390   9.402   9.005   6.156  0.1819 -0.0059  0.0613
33260ION     NA48391  14.141   3.952   5.811  0.1342  0.0562  0.4245
33261ION     NA48392   3.704  14.479  13.872 -0.2235  0.0379 -0.1841
33262ION     NA48393  13.841  10.764   6.126  0.0389  0.0429 -0.1548
33263ION     NA48394   4.381  12.252  10.055  0.0630 -0.0469 -0.0118
33264ION     NA48395  12.139  16.588  16.166  0.1994  0.0007 -0.1586
33265ION     NA48396   8.026  15.023  13.449  0.0006  0.1446  0.1116
33266ION     NA48397  16.735   1.867   0.074  0.0164 -0.0247  0.0426
33267ION     NA48398   4.705   5.930   0.226 -0.1660  0.0077  0.2323
33268ION     NA48399   6.861  15.965  16.030 -0.0126  0.1664  0.0326
33269ION     NA48400  17.177   2.554   5.645 -0.3804 -0.3116 -0.1325
33270ION     NA48401  12.249   9.457  12.094  0.1839 -0.0062  0.2063
33271ION     NA48402   2.568  13.279  15.055  0.1031  0.1082 -0.1271
33272ION     NA48403   4.627   8.918  10.506 -0.0723  0.2120  0.0875
33273ION     NA48404  11.980  10.126  10.403 -0.1895  0.3610 -0.0282
33274ION     NA48405   9.959   6.699   5.073  0.3030  0.0782  0.1934
33275ION     NA48406  13.816   9.090   2.796 -0.3146 -0.2412 -0.2706
33276ION     NA48407  17.121   2.805   0.266  0.0859  0.2276 -0.2763
33277ION     NA48408  17.347   3.106   9.966  0.0226 -0.2118  0.1322
33278ION     NA48409   2.846   0.887   5.763 -0.0329 -0.2638  0.1744
33279ION     NA48410  14.430   3.930   4.402 -0.0430  0.1507 -0.1693
33280ION     NA48411  12.118   6.545   5.816  0.0578  0.1995  0.1484
33281ION     NA48412  11.061   8.095   5.191  0.0403  0.0316 -0.0261
33282ION     NA48413  15.524  13.976   1.176  0.0481 -0.1072  0.0690
33283ION     NA48414  16.488   0.526   0.834  0.1220  0.3054  0.0341
33284ION     NA48415   7.241   7.370  14.325 -0.1772  0.0784  0.0066
33285ION     NA48416  10.250   5.591   6.019 -0.0569  0.0965  0.0029
33286ION     NA48417  14.850   9.757  12.417 -0.0657 -0.2561  0.2288
33287ION     NA48418   1.892   4.797  15.581  0.1274  0.2071 -0.0131
33288ION     NA48419   5.824   8.435  10.320 -0.0452  0.0886 -0.4963
33289ION     NA48420  16.514   0.893   4.114  0.1737 -0.1695 -0.0634
33290ION     NA48421  14.323   2.621  15.943 -0.1749 -0.2032 -0.2124
33291ION     NA48422  10.445   4.235  10.178  0.0613  0.1407 -0.1603
33292ION     NA48423   3.034   3.028  15.869 -0.2845 -0.1892 -0.0426
33293ION     NA48424  12.797  12.364   1.366 -0.0232  0.0646  0.0428
33294ION     NA48425  10.505  10.273   0.546  0.1515  0.0716  0.1188
33295ION     NA48426   1.266   3.418  10.213 -0.2150  0.2466 -0.2538
33296ION     NA48427   5.637   3.748   4.071  0.2755  0.1070  0.4632
33297ION     NA48428   4.039  14.747  11.050 -0.1101 -0.3693 -0.2907
33298ION     NA48429  16.959  16.844   6.023 -0.1165 -0.2253  0.1705
33299ION     NA48430  11.901  11.783  13.911 -0.3793 -0.0014 -0.0966
33300ION     NA48431  17.154  14.394  14.270  0.0518  0.2021  0.2017
33301ION     NA48432   6.179  16.185  13.160 -0.1480 -0.0758 -0.0787
33302ION     NA48433   9.822  14.710  14.067 -0.3578 -0.3158  0.1727
33303ION     NA48434   3.548   1.072   9.959  0.3338  0.0680  0.0171
33304ION     NA48435   0.068  15.862  11.077 -0.3500  0.1029 -0.2825
33305ION     NA48436   8.415  10.132  15.159  0.0220 -0.1233 -0.4291
33306ION     NA48437  18.012  14.711   4.889 -0.2116  0.3414  0.1581
33307ION     NA48438   0.797   8.270  13.548  0.0595  0.0009  0.2140
33308ION     NA48439  14.255   1.195   3.799 -0.0937 -0.3114  0.0220
33309ION     NA48440   2.642   8.623  10.424 -0.0664  0.1969  0.1664
33310ION     NA48441   4.833  11.844  10.176 -0.2164  0.0309  0.1698
33311ION     NA48442   9.330  11.069   0.379  0.0538 -0.0675 -0.1175
33312ION     NA48443   3.445  15.924   9.785 -0.0176 -0.1377 -0.1593
33313ION     NA48444   9.695  12.195  11.079 -0.2598  0.3334 -0.2367
33314ION     NA48445   7.814  15.762   3.270 -0.1186  0.1703  0.0153
33315ION     NA48446   6.940   7.263   5.873  0.1060  0.1175  0.1348
33316ION     NA48447  16.900   4.532   4.199 -0.1110 -0.2202  0.1563
33317ION     NA48448  17.632   3.346   2.090  0.1501  0.1576  0.0087
33318ION     NA48449  16.338  16.732  15.883 -0.3131 -0.0931  0.2008
33319ION     NA48450   9.182   9.028  15.422 -0.1310 -0.0257 -0.0015
33320ION     NA48451  12.499   2.727  10.193  0.1462  0.0867 -0.1746
33321ION     NA48452  10.070  14.844   0.090 -0.0605  0.0108 -0.0240
33322ION     NA48453  13.871  17.910   5.509  0.1819  0.1501 -0.0355
33323ION     NA48454  14.428   2.112   1.527  0.0068 -0.1151 -0.0228
33324ION     NA48455  12.386  17.282   9.881  0.2073 -0.0175  0.1240
33325ION     NA48456  10.063   8.223  15.234 -0.0926  0.0894  0.0374
33326ION     NA48457   9.103   2.385  16.126  0.2109  0.0385 -0.0590
33327ION     NA48458  14.867  15.686  14.062 -0.1077 -0.2417  0.0502
33328ION     NA48459  17.172  14.004   1.540  0.3322 -0.0123 -0.1710
33329ION     NA48460   6.827   2.093  13.612 -0.0775 -0.2497  0.0557
33330ION     NA48461   4.066   3.262   0.765 -0.0233 -0.0741 -0.1953
33331ION     NA48462  12.170  14.642  10.370  0.2871 -0.0261 -0.1650
33332ION     NA48463  13.056  16.108  13.135  0.2136 -0.2541  0.0214
33333ION     NA48464   1.946  12.768   9.947  0.2096  0.1346 -0.0942
33334ION     NA48465   1.642   0.629   2.384  0.0753  0.5124  0.1492
33335ION     NA48466  12.945   8.036   1.657  0.3093  0.0289 -0.0197
33336ION     NA48467   5.665  14.230   5.861  0.3348 -0.1080  0.0280
33337ION     NA48468  13.594   3.126   5.673  0.0026 -0.1554 -0.2854
33338ION     NA48469  10.702   0.043  11.703  0.0415  0.1709  0.0223
33339ION     NA48470   4.441  13.042   3.922  0.1612  0.5894 -0.2152
33340ION     NA48471   8.415  10.173  13.753  0.0051  0.0252  0.1280
33341ION     NA48472   7.953  12.188   0.683  0.1929 -0.0972 -0.1111
33342ION     NA48473   1.095   9.477   6.045  0.2082  0.4445  0.1474
33343ION     NA48474  13.898   9.252  14.616 -0.0188  0.2408 -0.1205
33344ION     NA48475   0.898  14.371  12.697 -0.2380  0.1474  0.3105
33345ION     NA48476   6.647   8.044  14.655  0.0034  0.2139  0.4082
33346ION     NA48477  10.165  17.734   5.884 -0.1009 -0.1015  0.3509
33347ION     NA48478   3.953   7.069   3.716  0.0211  0.1329  0.1808
33348ION     NA48479  12.560  10.965   3.753 -0.0803 -0.0732 -0.0463
33349ION     NA48480  14.393  11.189   4.950  0.0712 -0.1282 -0.1786
33350ION     NA48481   2.477  15.557   5.760  0.0195 -0.2404  0.0989
33351ION     NA48482   4.939   6.186  14.183  0.2080 -0.0335 -0.0341
33352ION     NA48483   8.347   1.371  15.735 -0.1144 -0.2921 -0.0052
33353ION     NA48484  17.014   1.163   9.921  0.1895 -0.0473 -0.0308
33354ION     NA48485  13.377   6.063  10.383 -0.2744  0.3531 -0.0579
33355ION     NA48486   3.702  18.080   1.076  0.2332 -0.2935 -0.0558
33356ION     NA48487   5.786  11.162   2.513 -0.2552  0.0274  0.0377
33357ION     NA48488  14.864   5.628   1.418 -0.0769  0.0352 -0.1378
33358ION     NA48489  10.111  16.472  10.373  0.1907  0.1293  0.1899
33359ION     NA48490  17.912  13.122   4.762 -0.2524 -0.1579  0.2746
33360ION     NA48491   1.259   3.881  13.467 -0.0343  0.0426  0.1107
33361ION     NA48492  17.480   3.428   5.669 -0.0317  0.2757  0.0378
33362ION     NA48493  11.952  11.774  16.110  0.0374 -0.0187  0.2644
33363ION     NA48494   3.270   6.752   5.881 -0.3462  0.0236 -0.0704
33364ION     NA48495   3.171   8.387   4.532 -0.0919 -0.1108  0.0152
33365ION     NA48496  13.443   2.863  14.161  0.0309  0.0701 -0.0352
33366ION     NA48497   8.344   1.122   6.041  0.0879 -0.0664 -0.1234
33367ION     NA48498  16.960   0.459   5.784  0.0260  0.1528 -0.3887
33368ION     NA48499  16.805   9.239  10.527 -0.0094 -0.1017  0.1781
33369ION     NA48500   0.700   8.975  10.448 -0.1756 -0.0095  0.3721
33370ION     NA48501   4.755  15.342  10.142 -0.0067  0.2168  0.2981
33371ION     NA48502   7.603   1.296   3.355 -0.2000  0.0338  0.3541
33372ION     NA48503  11.703   5.264  10.364 -0.1830 -0.2311  0.1791
33373ION     NA48504   9.624   6.778   2.470 -0.2504  0.2280 -0.1022
33374ION     NA48505   4.150  14.545  10.029  0.0254  0.0940 -0.0373
33375ION     NA48506  10.592  16.162  15.056  0.0369 -0.3251 -0.1106
33376ION     NA48507   4.690   9.513   0.422  0.0107 -0.1310  0.2112
33377ION     NA48508   3.002   0.491   2.902 -0.1461 -0.0167  0.0593
33378ION     NA48509   1.723  14.486   3.817 -0.1294 -0.0703 -0.1986
33379ION     NA48510  13.679   5.916  11.806 -0.1221 -0.1562  0.0852
33380ION     NA48511   8.406  14.821   3.588  0.0477  0.1451  0.1208
33381ION     NA48512  11.113  11.553   5.713 -0.0741 -0.1275 -0.0401
33382ION     NA48513   3.295   4.920   2.041  0.2099  0.2363 -0.0412
33383ION     NA48514   2.542   6.621   1.921 -0.0217 -0.1051  0.1874
33384ION     NA48515   6.258   5.785  16.077 -0.0368  0.0065 -0.1336
33385ION     NA48516   8.021   2.803   5.660  0.0415  0.3112  0.0554
33386ION     NA48517   9.062  13.014  10.438  0.1362 -0.0666  0.3431
33387ION     NA48518  17.089  11.879  15.483 -0.0972  0.1945 -0.1379
33388ION     NA48519  14.701   5.521   5.944  0.0932  0.3558 -0.2329
33389ION     NA48520   9.627   1.378  15.151  0.0550  0.0460  0.1946
33390ION     NA48521  17.419   5.771   6.149  0.0515 -0.1650  0.0621
33391ION     NA48522   6.402  16.347   5.916  0.1494 -0.1275 -0.0325
33392ION     NA48523   0.933   8.503   6.113 -0.0301 -0.0766 -0.2022
33393ION     NA48524   1.748   8.716  10.484  0.1987  0.0050 -0.2661
33394ION     NA48525  13.161   6.091   1.938 -0.0716  0.1613 -0.1427
33395ION     NA48526   5.365  10.499  10.233  0.3227 -0.0414  0.0646
33396ION     NA48527  14.988  16.726  14.624  0.0605  0.0139 -0.1468
33397ION     NA48528  10.586   9.562   1.622  0.3275 -0.0805 -0.1064
33398ION     NA48529   4.354   6.494  10.419  0.2347  0.0701  0.3190
33399ION     NA48530  12.881  10.114   6.056  0.0986 -0.1547  0.2274
33400ION     NA48531   3.935  11.524  12.585 -0.2795  0.2432  0.0421
33401ION     NA48532  10.943   9.704  10.267 -0.3884 -0.0869 -0.2641
33402ION     NA48533   0.142  13.424  10.123  0.1503 -0.1330 -0.0417
33403ION     NA48534   3.123   4.001  15.764 -0.1215  0.0464 -0.0678
33404ION     NA48535  14.073   4.154   1.632  0.1815  0.1175  0.0744
33405ION     NA48536   8.480   2.750   2.588 -0.0077 -0.0374 -0.1507
33406ION     NA48537   2.916   8.716   1.950 -0.2019  0.0606 -0.0765
33407ION     NA48538  11.009   3.282  16.190 -0.0078 -0.1274  0.2129
33408ION     NA48539   3.717   0.818  13.302 -0.3110 -0.0433 -0.0655
33409ION     NA48540  11.776   5.701  12.903 -0.1344  0.0039 -0.1941
33410ION     NA48541  13.866  13.677  14.035 -0.3930 -0.1726  0.1960
33411ION     NA48542  11.220  11.371   2.591  0.0526 -0.0277 -0.0301
33412ION     NA48543  13.141  11.551   3.626  0.0013  0.2124  0.0904
33413ION     NA48544  10.402  11.526   5.844  0.0019  0.0596 -0.0128
33414ION     NA48545   4.945   6.168   5.972 -0.0701 -0.2267 -0.2182
33415ION     NA48546   3.471  10.155   3.364  0.1615 -0.0571 -0.0003
33416ION     NA48547  13.654   5.257   1.380 -0.0626 -0.1048  0.1889
33417ION     NA48548  13.541  16.762  11.729  0.1098  0.0530  0.2900
33418ION     NA48549  15.716   9.204   0.679 -0.2654  0.3431 -0.1356
33419ION     NA48550   0.127  17.558   0.472 -0.0722  0.0278  0.0371
33420ION     NA48551  14.717   9.037   1.008  0.3005  0.2516  0.0658
33421ION     NA48552   1.109   7.262   6.300 -0.2158 -0.0273 -0.2289
33422ION     NA48553   2.797  10.932   3.802  0.3396  0.3210 -0.1197
33423ION     NA48554   3.720  10.467   5.967 -0.0834 -0.3127 -0.0969
33424ION     NA48555   4.554   9.383   5.747  0.2251  0.0302 -0.0629
33425ION     NA48556  14.081   5.625  10.581  0.0623 -0.1391  0.1470
33426ION     NA48557  12.132  10.441   6.078  0.0247 -0.2426  0.1090
33427ION     NA48558  16.586  10.238   0.212 -0.1732 -0.0571  0.0501
33428ION     NA48559   6.914  17.676   1.610  0.0783  0.0775  0.0673
33429ION     NA48560   9.064  15.298   5.791  0.1759  0.2036  0.0011
33430ION     NA48561  10.073   3.346   2.903 -0.0698 -0.1832 -0.0521
33431ION     NA48562  10.361  13.397  10.242 -0.1593  0.2295 -0.0467
33432ION     NA48563  10.145  16.664   0.410 -0.0302  0.0130  0.0411
33433ION     NA48564  17.426   4.110  15.914 -0.0128  0.1265 -0.1540
33434ION     NA48565  13.382  16.222  11.544 -0.1587 -0.5393 -0.1223
33435ION     NA48566  10.189   9.154   0.654 -0.0863 -0.1932  0.0023
33436ION     NA48567   8.627  13.259   6.391  0.2020 -0.0396  0.0339
33437ION     NA48568  17.019  14.935  15.291  0.0779  0.2229 -0.1299
33438ION     NA48569   0.774   5.076  10.477  0.0155 -0.1024 -0.2077
33439ION     NA48570   4.524   1.480   5.630 -0.0190 -0.0022 -0.0284
33440ION     NA48571   6.145   4.792   3.130  0.0407 -0.0042  0.2255
33441ION     NA48572  12.501  13.868  10.113 -0.1177  0.2960  0.1202
33442ION     NA48573   1.384   6.094   1.476  0.1348 -0.1797  0.3364
33443ION     NA48574   5.363   2.272   5.840 -0.0281  0.1988  0.3239
33444ION     NA48575   0.526  16.485   2.867  0.1257 -0.0621 -0.1899
33445ION     NA48576   6.875  16.691  10.461  0.0474  0.0076  0.1174
33446ION     NA48577  15.785   3.086   5.917 -0.4095  0.2155 -0.0032
33447ION     NA48578   1.751   0.805  14.182 -0.2164  0.1098  0.1023
33448ION     NA48579  12.545   2.576  14.976 -0.0177  0.0871 -0.0772
33449ION     NA48580  10.445   4.593  14.173  0.0458  0.3769  0.1480
33450ION     NA48581  12.627   7.070   5.569 -0.1427 -0.1280 -0.0992
33451ION     NA48582  10.356   2.224  10.308  0.2594  0.0882  0.0397
33452ION     NA48583  16.803  11.963   6.188  0.0552 -0.0905 -0.1791
33453ION     NA48584   0.903  17.811   5.952  0.0563 -0.0258 -0.4467
33454ION     NA48585  11.920  14.535  14.541 -0.1508  0.0736 -0.0661
33455ION     NA48586   9.480  12.382  13.589  0.1010 -0.2163  0.2730
33456ION     NA48587   8.759  16.018  10.371 -0.0299  0.1776  0.0677
33457ION     NA48588  13.501  17.831  10.013 -0.0349 -0.1266 -0.0455
33458ION     NA48589   0.312  10.528  10.428 -0.1072 -0.3866  0.3331
33459ION     NA48590   1.082   9.344  10.293 -0.1079 -0.0962 -0.0687
33460ION     NA48591   6.284   2.359  11.593  0.1012  0.0088 -0.0703
33461ION     NA48592   5.833  14.709   1.931 -0.0963  0.1692 -0.2317
33462ION     NA48593  15.572   3.482  10.301 -0.2975  0.1594  0.0436
33463ION     NA48594  16.174   2.778  16.229  0.0254  0.3792  0.0250
33464ION     NA48595   4.291   8.168  10.482 -0.1078 -0.3940 -0.2722
33465ION     NA48596   9.302   4.915  10.770 -0.0713 -0.2894  0.0992
33466ION     NA48597   0.708  15.460   5.443 -0.1207 -0.0717  0.1491
33467ION     NA48598   4.454   0.336   4.243  0.0226 -0.0705 -0.0946
33468ION     NA48599   6.977   7.370   0.089  0.0653 -0.0468 -0.2734
33469ION     NA48600  10.222  10.314  15.618  0.0322  0.0859  0.0754
33470ION     NA48601   4.452   0.724   2.072 -0.0486  0.1832 -0.1002
33471ION     NA48602  12.174   5.183  12.216  0.0948 -0.1900 -0.1330
33472ION     NA48603   6.072  12.874   4.806  0.1679  0.0065 -0.1653
33473ION     NA48604   6.309  11.514  10.366 -0.0226  0.1344 -0.0701
33474ION     NA48605   3.313  12.284   5.563 -0.2137 -0.2510 -0.1095
33475ION     NA48606  17.383   3.705  13.290  0.0018  0.2161  0.0195
33476ION     NA48607  14.151   6.744  16.064 -0.0528 -0.3153  0.1608
33477ION     NA48608   8.627   8.452  14.773  0.3523  0.0760  0.0780
33478ION     NA48609   9.361  10.629  10.229  0.1148 -0.0491 -0.2017
33479ION     NA48610   3.928  13.105   0.025 -0.0635 -0.1561 -0.2148
33480ION     NA48611  15.024  15.005   2.082  0.1934 -0.3037 -0.0622
33481ION     NA48612   9.751  10.217   1.573 -0.0017 -0.3003  0.0003
33482ION     NA48613  13.927  15.298  10.248  0.0100 -0.2151  0.3276
33483ION     NA48614   9.155  11.039  10.488 -0.3142  0.4672 -0.1355
33484ION     NA48615  15.873  16.697   0.992  0.2586 -0.0269 -0.0985
33485ION     NA48616   4.818   3.286  10.244  0.4410 -0.1994  0.0859
33486ION     NA48617   7.901   7.650  10.341 -0.2106 -0.2312  0.1083
33487ION     NA48618   7.545  10.322  10.455 -0.1487 -0.0115  0.3640
33488ION     NA48619   9.003   3.261   1.992  0.4361  0.1003  0.0145
33489ION     NA48620   9.210   5.178  15.700  0.1048  0.1460 -0.1992
33490ION     NA48621   8.461   7.791   0.690  0.0883 -0.3927 -0.2591
33491ION     NA48622   0.158   4.399   2.966 -0.2569 -0.3243  0.1596
33492ION     NA48623  17.395  11.322   0.689  0.0110 -0.1796 -0.0962
33493ION     NA48624   7.865   6.866   5.957  0.1257  0.1240 -0.2794
33494ION     NA48625  14.737   8.065  10.341  0.3260 -0.1371  0.1118
33495ION     NA48626   0.656  13.113   4.892  0.2674 -0.2463  0.0008
33496ION     NA48627  13.255   5.316   2.421  0.0186 -0.1945 -0.0194
33497ION     NA48628  17.409   4.178   5.787  0.2281  0.0450  0.0382
33498ION     NA48629   4.359  15.814   1.773  0.2916 -0.1242 -0.0799
33499ION     NA48630   3.835   6.599   0.978  0.0235  0.3505  0.0205
33500ION     NA48631  14.779  15.550   4.555 -0.0668  0.3004  0.2319
33501ION     NA48632   7.038  14.862   6.056  0.0801  0.0299  0.1945
33502ION     NA48633   5.194  10.542   5.713 -0.1258 -0.1169 -0.0393
33503ION     NA48634  15.341  10.739   5.922 -0.0435  0.1630  0.1485
33504ION     NA48635  17.747   7.437   2.134 -0.0749 -0.1225  0.3367
33505ION     NA48636  11.033   0.898  10.922 -0.1968 -0.0143  0.0701
33506ION     NA48637   5.753   2.955   5.797 -0.2373  0.1522 -0.2494
33507ION     NA48638  12.356   1.546  10.010  0.0518 -0.1818 -0.0803
33508ION     NA48639   9.522   6.328   1.303  0.1289 -0.0596 -0.1456
33509ION     NA48640  11.684  10.286   0.180 -0.0141  0.0338  0.4421
33510ION     NA48641   2.366  11.566   5.408  0.1355  0.0376  0.0605
33511ION     NA48642   1.541  14.790  10.079  0.1150 -0.2483  0.1267
33512ION     NA48643  14.302  13.083  10.324  0.0371 -0.0907 -0.2069
33513ION     NA48644  17.750  10.805   1.764  0.1484  0.0827  0.0651
33514ION     NA48645  15.100   0.179  15.813  0.1180  0.0921 -0.0712
33515ION     NA48646   3.935   9.462   1.327 -0.0327 -0.0232 -0.1346
33516ION     NA48647  16.475  10.242   1.835  0.0564  0.0239  0.0737
33517ION     NA48648  12.578  17.326  13.563 -0.1354  0.3375 -0.1377
33518ION     NA48649   8.861   8.409   5.484  0.2188  0.1644 -0.1275
33519ION     NA48650   7.871   8.535   4.004 -0.0378  0.0194  0.2455
33520ION     NA48651  17.002  14.529  10.334  0.0958 -0.2615  0.2921
33521ION     NA48652   2.365  16.003   1.854 -0.0409 -0.3583 -0.0808
33522ION     NA48653  15.374   8.821   6.097  0.0276 -0.1299 -0.1549
33523ION     NA48654   9.494  15.827   0.041 -0.1805  0.0043 -0.1228
33524ION     NA48655   7.906   2.097  10.294  0.0110  0.0521 -0.1013
33525ION     NA48656   5.895   5.060   1.484  0.1592 -0.1714  0.2404
33526ION     NA48657   0.784  11.659   3.437 -0.0758 -0.3036  0.0095
33527ION     NA48658   1.850   6.235  10.538  0.0008 -0.1207  0.0964
33528ION     NA48659  15.187   9.948   0.177 -0.0644 -0.1833  0.1726
33529ION     NA48660   9.976   0.469   5.859  0.0450 -0.0658  0.0322
33530ION     NA48661   9.215   6.447  10.345 -0.1792 -0.1177  0.0875
33531ION     NA48662  10.655   6.931  13.821 -0.0357 -0.2035  0.0228
33532ION     NA48663  11.247   5.404   2.644 -0.0661  0.0194  0.4445
33533ION     NA48664  17.264  17.551   4.842 -0.0710  0.0804 -0.0043
33534ION     NA48665   2.513  13.701   0.691 -0.0733 -0.3162  0.0959
33535ION     NA48666   6.553  12.217  12.537 -0.0380  0.1482  0.1151
33536ION     NA48667   0.091  11.567   1.445 -0.1357 -0.2901  0.3174
33537ION     NA48668   0.185   4.644   2.461 -0.2384  0.2437  0.2383
33538ION     NA48669  11.745  17.039  11.494 -0.0103  0.0356 -0.0793
33539ION     NA48670  11.189  11.644  13.231 -0.3222  0.0624 -0.2337
33540ION     NA48671   0.231   2.962  13.650 -0.1412 -0.4623  0.1983
33541ION     NA48672   0.270   1.031  10.139  0.2262 -0.1190 -0.0475
33542ION     NA48673  14.497  11.404  12.231  0.0906  0.0580 -0.2788
33543ION     NA48674   5.345  10.451   3.796 -0.1693 -0.2282 -0.1208
33544ION     NA48675   3.567   2.581   5.828  0.2120  0.2019 -0.0320
33545ION     NA48676   8.302  10.864  10.423 -0.1370  0.0246 -0.1389
33546ION     NA48677   0.461  14.416  13.665  0.3856  0.1703 -0.1001
33547ION     NA48678  15.310   8.646  13.671  0.1458 -0.3220  0.0647
33548ION     NA48679  15.937   6.754  10.429 -0.1158  0.2142 -0.3184
33549ION     NA48680   4.180  16.247  14.783 -0.1090 -0.0426  0.3421
33550ION     NA48681  13.374  12.883  12.925  0.1355  0.0659 -0.2881
33551ION     NA48682  17.095   8.282   3.827 -0.1734 -0.0861  0.0143
33552ION     NA48683   0.623  13.875   3.915  0.4433 -0.0341  0.0589
33553ION     NA48684   9.934   6.447   5.891  0.0851  0.1074 -0.0379
33554ION     NA48685   1.617   4.276  11.863  0.0437 -0.1702  0.1190
33555ION     NA48686   1.269  14.913  13.446  0.2751  0.0433  0.1602
33556ION     NA48687   8.973   0.154   1.375  0.1349 -0.2468 -0.0056
33557ION     NA48688   5.123   4.564  10.528  0.2334  0.2221 -0.4195
33558ION     NA48689   4.175   8.608   6.021 -0.0818 -0.2421 -0.1644
33559ION     NA48690   5.244   5.278   3.729 -0.1847 -0.0067 -0.2884
33560ION     NA48691  14.895  16.897   9.874  0.0478  0.1215  0.1761
33561ION     NA48692   8.919   4.118   0.582 -0.0061 -0.0045  0.0766
33562ION     NA48693   8.937   0.013  10.285  0.2746  0.0897  0.0048
33563ION     NA48694   7.316   2.832  10.218  0.1639 -0.2344 -0.0011
33564ION     NA48695   7.315   0.958   5.105 -0.1219 -0.1923 -0.1130
33565ION     NA48696   5.962  12.168   5.579 -0.1776 -0.0533 -0.1029
33566ION     NA48697   7.395   0.284  10.407  0.1632 -0.0387 -0.2354
33567ION     NA48698  14.958   0.550   1.120  0.0395 -0.2692  0.1047
33568ION     NA48699   9.903   2.827  10.313 -0.0030  0.1679  0.0150
33569ION     NA48700   6.041   9.312   6.012  0.2975 -0.0301 -0.0346
33570ION     NA48701   1.374   2.534  14.760  0.3095 -0.3074 -0.0663
33571ION     NA48702   3.816  14.823  15.240  0.0555 -0.0672 -0.2864
33572ION     NA48703  10.797   7.080  12.899  0.1176 -0.2335 -0.2051
33573ION     NA48704  14.585   9.823   3.209  0.0714 -0.1843  0.0946
33574ION     NA48705   7.398   1.464  15.468 -0.2797 -0.1065 -0.1015
33575ION     NA48706  14.279  14.513  10.314  0.2673 -0.1809  0.0093
33576ION     NA48707  11.594  10.630  15.047  0.2654 -0.1588 -0.2684
33577ION     NA48708   4.306   9.164   4.931  0.0764 -0.0057 -0.0978
33578ION     NA48709  17.521  17.794   3.741  0.2388  0.0940 -0.1646
33579ION     NA48710   4.848  13.591   2.235  0.1049 -0.2531 -0.1521
33580ION     NA48711   4.430  16.526  12.526  0.1365 -0.1132  0.1159
33581ION     NA48712   9.683   4.964   6.262  0.0408 -0.3773  0.1677
33582ION     NA48713  14.007   4.924   0.506 -0.0072 -0.1379  0.1299
33583ION     NA48714   9.681   7.168  10.764 -0.3529  0.1365 -0.1200
33584ION     NA48715   6.917  13.960  11.770 -0.3221  0.0470  0.0374
33585ION     NA48716  16.310  11.470  10.067  0.1605  0.0278 -0.1011
33586ION     NA48717   2.515   4.908   4.320 -0.2596 -0.1342 -0.0010
33587ION     NA48718   1.834  15.547  12.299  0.3739 -0.0880 -0.0043
33588ION     NA48719  14.689   8.578  15.757 -0.1578  0.0414  0.1218
33589ION     NA48720   5.340  14.295   5.052  0.2288 -0.0542 -0.0374
33590ION     NA48721  13.779  12.611   1.572 -0.2821  0.4943  0.4154
33591ION     NA48722   4.279  10.650  13.943 -0.1489  0.0223  0.1816
33592ION     NA48723  15.551   3.587  12.123  0.0344 -0.0077 -0.0873
33593ION     NA48724   0.751  12.095  10.282  0.0521  0.1704  0.0308
33594ION     NA48725  11.697  14.398  15.589 -0.1058 -0.2000 -0.2416
33595ION     NA48726   3.733   6.321  12.192 -0.0648  0.1667  0.0730
33596ION     NA48727   9.043   9.493   0.070 -0.0012 -0.0921  0.3643
33597ION     NA48728   8.880  12.043   5.917 -0.2369  0.3541 -0.2943
33598ION     NA48729   6.352   8.562   2.481  0.3305  0.2359 -0.1781
33599ION     NA48730  17.689   8.925   1.234 -0.2675 -0.2330 -0.0775
33600ION     NA48731  17.210   4.798  14.995  0.0670 -0.1804 -0.0881
33601ION     NA48732   2.189  16.573   5.783  0.0436  0.0179 -0.0449
33602ION     NA48733  10.938   1.299  11.841 -0.4445  0.2074  0.0194
33603ION     NA48734   0.412  14.566  15.238 -0.0878  0.1563  0.3451
33604ION     NA48735  12.849   0.029  14.438 -0.3527 -0.1318  0.0481
33605ION     NA48736  15.332  16.404  11.847 -0.0413 -0.1230 -0.2897
33606ION     NA48737  17.125   2.973  14.724  0.1023 -0.0885  0.3058
33607ION     NA48738   0.981   0.468  15.652 -0.1215  0.0361  0.0556
33608ION     NA48739   1.175   5.434   2.381 -0.1231 -0.0344  0.2344
33609ION     NA48740  16.920  13.978   5.746  0.1472 -0.2170  0.0095
33610ION     NA48741   7.331  11.199   0.776  0.1175  0.1635 -0.0118
33611ION     NA48742   0.970   2.480  11.504  0.1705  0.5824  0.0054
33612ION     NA48743  17.422   9.957  13.473 -0.2101  0.1718  0.0766
33613ION     NA48744  13.281  12.619  10.501  0.3415  0.2231  0.2078
33614ION     NA48745   4.345  11.762   4.287 -0.0072 -0.0155  0.3647
33615ION     NA48746   2.706  14.294  10.698  0.1615 -0.0579  0.0772
33616ION     NA48747   0.446   9.465   0.092  0.2933  0.0020 -0.2515
33617ION     NA48748   3.679  13.038   9.884  0.0581 -0.2458  0.3052
33618ION     NA48749  17.799  14.826  10.291  0.0456  0.2450 -0.0710
33619ION     NA48750  15.028  16.307   5.558 -0.2921 -0.1331 -0.2608
33620ION     NA48751   3.022   3.414  10.602 -0.1605 -0.5675 -0.1704
33621ION     NA48752   9.582   7.560   3.974 -0.1059 -0.2332 -0.0251
33622ION     NA48753  10.913  13.745  12.881  0.0314 -0.1772 -0.0533
33623ION     NA48754   1.086  14.803   4.140  0.1023 -0.0258  0.0577
33624ION     NA48755   7.661   6.263  10.218 -0.4171  0.2572 -0.2975
33625ION     NA48756   7.667  12.521  13.879 -0.0126 -0.0721  0.1284
33626ION     NA48757  12.869  10.941   6.209  0.1739 -0.0038  0.0819
33627ION     NA48758  10.342  14.333  10.317  0.0678 -0.1002 -0.0784
33628ION     NA48759   5.340  14.073  13.043  0.2150  0.0508  0.2391
33629ION     NA48760  17.710  12.770   6.084 -0.1926 -0.0982 -0.0994
33630ION     NA48761  17.648   2.507   2.534  0.1413  0.2268  0.2640
33631ION     NA48762  16.566  17.189   0.386  0.1541 -0.1976 -0.2303
33632ION     NA48763  16.196   3.624   5.918 -0.2398 -0.0639 -0.0202
33633ION     NA48764  15.398  14.059  13.192 -0.1706  0.1418  0.1285
33634ION     NA48765   0.082  17.306   2.341  0.1496  0.0620 -0.0771
33635ION     NA48766  13.928  14.897  11.321 -0.3241 -0.2481 -0.1578
33636ION     NA48767   3.954   0.128   2.861 -0.2663  0.2225  0.2446
33637ION     NA48768   3.459  10.019   0.213 -0.3239 -0.0711 -0.1763
33638ION     NA48769   9.815   2.385   3.912 -0.2399  0.1077 -0.1386
33639ION     NA48770   0.218  12.919  10.441 -0.0158 -0.3364 -0.0385
33640ION     NA48771   8.302  13.828   2.836  0.3300  0.0204 -0.0572
33641ION     NA48772  14.304   6.309  13.470 -0.0348  0.2161  0.2361
33642ION     NA48773  13.276  14.643   5.753  0.1561 -0.1608  0.0477
33643ION     NA48774  17.448  11.883   3.462  0.1426  0.1726 -0.0993
33644ION     NA48775   3.600   8.697  14.153 -0.0126 -0.0528  0.2559
33645ION     NA48776   9.432   6.984  14.461  0.0084  0.1786 -0.3993
33646ION     NA48777  17.512   6.973  10.675 -0.2701 -0.4038  0.0910
33647ION     NA48778   0.152   8.421   3.439  0.2479  0.0902 -0.1270
33648ION     NA48779   5.594   8.670  15.760 -0.3001 -0.2744  0.0794
33649ION     NA48780  11.543   9.127  12.652  0.2463  0.1357 -0.2367
33650ION     NA48781   5.065   8.089  13.059  0.2429 -0.3140 -0.1213
33651ION     NA48782   3.973   5.757   3.297  0.2831 -0.1805 -0.0286
33652ION     NA48783   0.698   5.501   6.238  0.3703 -0.0931  0.1550
33653ION     NA48784   5.948   2.781   2.668  0.0402  0.1148 -0.2328
33654ION     NA48785   7.424   8.070   3.860  0.1146 -0.0637  0.3509
33655ION     NA48786   6.157   0.213   5.835  0.2450  0.1194 -0.0026
33656ION     NA48787   3.067  11.162   0.922  0.2556  0.1311  0.1415
33657ION     NA48788  11.328  14.714   0.085  0.0694  0.0217 -0.1460
33658ION     NA48789  12.364   8.625   4.281 -0.2203  0.0020  0.1023
33659ION     NA48790  18.032  11.742   4.136  0.1223 -0.0422  0.0407
33660ION     NA48791   2.232  10.433  10.295 -0.1938  0.0316  0.1010
33661ION     NA48792   5.425  12.094   2.761 -0.1084 -0.1837 -0.0490
33662ION     NA48793   5.015   8.445   4.238 -0.0692 -0.0495 -0.1008
33663ION     NA48794  15.026   2.645  11.442 -0.0537  0.0824  0.1800
33664ION     NA48795   6.721  14.109   2.941 -0.3519 -0.1097 -0.2466
33665ION     NA48796   9.920  11.406  10.407 -0.3429  0.0137 -0.1957
33666ION     NA48797   5.251  15.747   2.797 -0.0888 -0.0004  0.1651
33667ION     NA48798  16.502  15.782  10.024 -0.2678 -0.2351 -0.2310
33668ION     NA48799   5.231  11.216   0.885  0.3430 -0.3314  0.1341
33669ION     NA48800  17.442   0.572   1.791  0.0419  0.3584  0.1838
33670ION     NA48801  17.743   4.518  10.418  0.1768 -0.1037 -0.0172
33671ION     NA48802  12.127   9.630   6.144 -0.0905 -0.1033  0.0872
33672ION     NA48803  15.195  17.717   4.786 -0.0456 -0.0222  0.2085
33673ION     NA48804   5.688   6.894   5.118  0.1662  0.0345 -0.2930
33674ION     NA48805   4.999  15.895   0.111 -0.0725  0.0586 -0.2598
33675ION     NA48806  12.167   0.578  10.094 -0.3458 -0.0616  0.3027
33676ION     NA48807   9.366   2.149  10.516  0.3114 -0.1496 -0.1809
33677ION     NA48808   3.835  10.996  15.636  0.1277  0.0857 -0.1457
33678ION     NA48809   8.112  12.559   2.423 -0.2786 -0.3590 -0.0222
33679ION     NA48810   7.831   5.785  15.970  0.0727 -0.0359  0.2849
33680ION     NA48811  10.496   4.640  12.584  0.0875  0.0488  0.0175
33681ION     NA48812  11.839  16.320   1.304  0.2367  0.2087 -0.1042
33682ION     NA48813  12.057   1.124   5.284 -0.0407  0.0413 -0.0833
33683ION     NA48814  17.668   9.969   2.678  0.1058 -0.1749 -0.0018
33684ION     NA48815   4.111   1.319  15.541  0.0857 -0.0518  0.0808
33685ION     NA48816  10.927  10.235   6.022  0.1846 -0.1166  0.4035
33686ION     NA48817  12.560   6.034  10.259  0.2541  0.4090 -0.0441
33687ION     NA48818   5.977  16.992  11.146 -0.1254 -0.0121 -0.1551
33688ION     NA48819  17.343  13.596   1.795  0.1244  0.2204 -0.2455
33689ION     NA48820  16.465  13.192   2.148 -0.0814 -0.1619  0.1048
33690ION     NA48821   6.086   2.001  13.951  0.3771 -0.3239 -0.2637
33691ION     NA48822   6.454  17.907  15.403  0.1081  0.2260  0.1160
33692ION     NA48823   1.362  12.339   4.074  0.0749  0.0855  0.0954
33693ION     NA48824   8.182   0.672  10.403  0.0537  0.0282  0.0657
33694ION     NA48825  12.182  12.302   2.518 -0.4104  0.1988 -0.0460
33695ION     NA48826   3.884   4.713   3.011  0.0531 -0.4108  0.3531
33696ION     NA48827  17.356   5.505  10.201 -0.1919  0.2536 -0.3083
33697ION     NA48828   8.435  17.099   5.600 -0.2548  0.1824 -0.1971
33698ION     NA48829  10.089  17.313   5.054  0.2012  0.0846  0.1395
33699ION     NA48830   9.057   9.741  10.480 -0.0207  0.2201  0.0920
33700ION     NA48831  15.724  14.437  14.036 -0.3214  0.1472 -0.4608
33701ION     NA48832  17.727  10.666  11.972 -0.0734  0.2529 -0.2064
33702ION     NA48833  14.910  17.917   1.822  0.0320 -0.0862  0.0841
33703ION     NA48834   3.081  13.222   9.879  0.2287 -0.1501  0.0568
33704ION     NA48835  10.725   0.294  13.976 -0.3459 -0.0157  0.1620
33705ION     NA48836   0.831  12.146  15.931  0.0154 -0.2628  0.1551
33706ION     NA48837  11.974  13.751   2.593 -0.1492  0.2109  0.1096
33707ION     NA48838   1.014   1.226  12.040  0.1730 -0.0612  0.1255
33708ION     NA48839  12.630  12.664   4.473 -0.0002  0.3500 -0.1526
33709ION     NA48840  12.434   7.425  13.502  0.1744  0.1058 -0.4525
33710ION     NA48841   4.669  16.994   3.497  0.1131 -0.1815  0.2102
33711ION     NA48842   9.477   6.197  15.815  0.0557  0.1012  0.1284
33712ION     NA48843   5.675  12.972  12.345 -0.0320  0.0489  0.2555
33713ION     NA48844   7.284   6.819  10.293 -0.0217  0.0495 -0.1053
33714ION     NA48845   9.577  10.110  12.697 -0.0199 -0.0674 -0.1699
33715ION     NA48846   1.990   6.345   3.617  0.2445  0.0967  0.0667
33716ION     NA48847  15.444  14.000   3.661  0.0814 -0.0640  0.1120
33717ION     NA48848  10.780  16.526  10.204  0.1016  0.3007  0.1942
33718ION     NA48849  13.548  10.756  10.727  0.1424  0.1486 -0.1367
33719ION     NA48850   0.798  11.692   5.700 -0.3573 -0.0435  0.0031
33720ION     NA48851  12.967   9.229   6.214  0.0403  0.1601  0.1847
33721ION     NA48852   2.871   8.724   6.182 -0.2110 -0.2434  0.0275
33722ION     NA48853  13.613   2.656   0.769  0.3035  0.0139  0.0019
33723ION     NA48854   3.158   1.660  13.453  0.0469 -0.1534 -0.0018
33724ION     NA48855  13.758   1.115  14.105  0.0606 -0.1642 -0.1095
33725ION     NA48856  15.372   8.835  15.355  0.4407  0.1323  0.1190
33726ION     NA48857   8.804   0.147  15.234  0.0908 -0.0016 -0.0392
33727ION     NA48858   0.586  16.398   0.426  0.0647 -0.1571 -0.4625
33728ION     NA48859   0.823   7.013   0.424 -0.0319 -0.0197  0.1007
33729ION     NA48860   3.455  12.743   4.617  0.0366  0.0642  0.0578
33730ION     NA48861  13.788   4.516  10.199  0.0521 -0.0642 -0.1575
33731ION     NA48862   1.753  11.539   2.535 -0.1481  0.3037  0.0392
33732ION     NA48863  14.737  13.938   3.711  0.0692  0.2558 -0.2366
33733ION     NA48864   8.137   3.846   2.795 -0.2292 -0.1096 -0.0440
33734ION     NA48865   7.825  14.438   2.442 -0.0677 -0.1928  0.0464
33735ION     NA48866   6.609   8.466   5.163 -0.0148  0.0865 -0.1906
33736ION     NA48867   6.298  14.713   0.032  0.4580  0.1491  0.1052
33737ION     NA48868  12.324   7.838   2.230 -0.0688 -0.0707  0.1230
33738ION     NA48869  13.793   0.210  14.757  0.0924 -0.2456 -0.2490
33739ION     NA48870  13.018   6.888  10.357 -0.1577  0.2244  0.1020
33740ION     NA48871   6.749  16.985   6.164  0.2401  0.1022 -0.0745
33741ION     NA48872   5.887  11.743   1.812 -0.3368 -0.0348  0.0852
33742ION     NA48873   4.131  10.231   6.147  0.1652 -0.3541 -0.1611
33743ION     NA48874   8.820  15.666   2.170  0.0504  0.2304 -0.2658
33744ION     NA48875   0.332   5.410  15.443 -0.0031  0.3810  0.0628
33745ION     NA48876  13.993  17.613  10.029  0.0656  0.1602 -0.1124
33746ION     NA48877   5.773   5.634  14.391 -0.2610 -0.0877  0.2269
33747ION     NA48878  15.998   5.791  10.387 -0.1313  0.0388  0.0489
33748ION     NA48879  16.835  11.258   4.142 -0.0654  0.4127 -0.2677
33749ION     NA48880  15.849   7.267  11.891 -0.0411  0.1137  0.1570
33750ION     NA48881  11.133  14.827  10.339  0.2381 -0.1547 -0.0737
33751ION     NA48882   2.307   8.723  15.049 -0.3835  0.0026  0.2002
33752ION     NA48883  13.156   3.802  10.427  0.2107  0.0841  0.2944
33753ION     NA48884   2.125  14.079   9.989 -0.1627  0.1604  0.2293
33754ION     NA48885  10.314   6.533   2.916  0.3937  0.0794  0.0479
33755ION     NA48886   2.218   3.746  10.258 -0.3337  0.1054 -0.3179
33756ION     NA48887   4.913  14.829  10.117  0.0235 -0.1064  0.1236
33757ION     NA48888   8.128   4.551  10.342 -0.1334  0.2196 -0.5856
33758ION     NA48889   7.894  17.716  10.058  0.4402  0.2231  0.0505
33759ION     NA48890   6.716   1.244   1.905  0.1681  0.0589  0.1230
33760ION     NA48891  11.381   0.812  10.160 -0.2765  0.3384  0.3539
33761ION     NA48892  17.545   9.165   6.219  0.3391 -0.1315  0.0581
33762ION     NA48893   7.192  17.697  13.838 -0.0742 -0.0974 -0.1433
33763ION     NA48894  13.771   8.223  10.302 -0.0141 -0.0453  0.0951
33764ION     NA48895   9.656  16.035   3.864  0.2967 -0.3328 -0.4146
33765ION     NA48896   9.007   7.607   1.599 -0.0682  0.1500  0.0562
33766ION     NA48897   3.951   0.472  10.074  0.3052 -0.0866  0.1677
33767ION     NA48898  16.660   0.045  13.936  0.1034  0.1231  0.0412
33768ION     NA48899   5.292   2.485   0.011  0.0611  0.1199 -0.1061
33769ION     NA48900   7.142  11.839   2.171 -0.0050  0.3231  0.0642
33770ION     NA48901   2.755   0.265  10.392  0.2695  0.0750  0.1218
33771ION     NA48902  12.577  15.232   4.803  0.1460  0.1280  0.3215
33772ION     NA48903   6.621  14.097   5.674 -0.4229 -0.0327  0.0510
33773ION     NA48904  10.067   8.068  10.781 -0.2883 -0.1471  0.0431
33774ION     NA48905   8.948   7.035  15.718  0.1637  0.2916  0.1109
33775ION     NA48906  10.989   5.755  10.313 -0.1039  0.1247  0.2723
33776ION     NA48907   8.924  12.436   2.300 -0.2656  0.1021  0.3073
33777ION     NA48908   6.033  14.369  10.249  0.2715  0.1059 -0.2225
33778ION     NA48909  12.685  13.973   0.543 -0.1196  0.1329 -0.0705
33779ION     NA48910  17.961  16.690  15.062  0.0102  0.1090 -0.0540
33780ION     NA48911  12.738  11.366  14.448  0.0222 -0.0079 -0.1324
33781ION     NA48912   5.896  14.130   4.992  0.3734  0.1062  0.0464
33782ION     NA48913  15.959  16.949  13.648  0.0660  0.0301  0.0943
33783ION     NA48914   6.673   9.344  10.241  0.1469 -0.4520  0.4078
33784ION     NA48915  10.369   1.543   5.847  0.5219  0.1127  0.1353
33785ION     NA48916   3.152  14.564   2.376  0.1122  0.1743  0.0347
33786ION     NA48917   2.004  17.459  12.734  0.0610 -0.1282 -0.0992
33787ION     NA48918  17.783  14.278   6.129  0.0297 -0.1571  0.2506
33788ION     NA48919  15.293   3.799   5.898 -0.0220 -0.3079  0.0028
33789ION     NA48920  17.170   1.379   3.790 -0.2361  0.3240 -0.0477
33790ION     NA48921   3.401  14.062   5.485 -0.0622 -0.2148  0.1768
33791ION     NA48922   6.389   3.986   6.001 -0.1781 -0.1785 -0.0482
33792ION     NA48923  11.114  18.045   5.565 -0.2666 -0.0824 -0.2731
33793ION     NA48924   7.706  17.904   5.805 -0.2579  0.1469  0.0544
33794ION     NA48925   5.753   3.148  13.786  0.2877  0.1543  0.1611
33795ION     NA48926  11.752  15.823  13.449 -0.0703 -0.0897 -0.2082
33796ION     NA48927  12.200  17.634  14.725  0.2020  0.3769 -0.0786
33797ION     NA48928  17.202  15.485   3.091 -0.1025 -0.1917 -0.2795
33798ION     NA48929   0.608  14.852   5.675  0.0075 -0.1506  0.1055
33799ION     NA48930  10.594  10.320   3.530 -0.0333  0.0707  0.1051
33800ION     NA48931   1.770  11.683  13.352 -0.1445  0.1814 -0.0441
33801ION     NA48932  18.000   5.916   2.978 -0.0638 -0.3739  0.1909
33802ION     NA48933  10.616   5.512  13.932  0.0474 -0.1111  0.1626
33803ION     CL48934  10.481   9.606   0.815  0.1709 -0.0363  0.0647
33804ION     CL48935   3.434   6.991   4.429  0.0747  0.1209 -0.1921
33805ION     CL48936   3.458  12.499   5.096 -0.1226  0.1680 -0.5425
33806ION     CL48937   4.557   0.685  11.948  0.0625 -0.1403 -0.0166
33807ION     CL48938  12.020   9.931  11.928 -0.3731 -0.0594  0.0266
33808ION     CL48939  12.865   5.333   5.701 -0.2510 -0.1718  0.0013
33809ION     CL48940   6.842  12.545  12.812 -0.1950 -0.0895  0.3056
33810ION     CL48941   7.119  14.131  11.239  0.1501  0.1465 -0.1140
33811ION     CL48942   0.171  17.122   0.188  0.3303  0.0263  0.0466
33812ION     CL48943  12.824   9.956   0.917  0.0552  0.0607  0.1952
33813ION     CL48944   8.200  14.115   2.432  0.2657 -0.0155 -0.0253
33814ION     CL48945  13.097   2.255  14.086  0.1906 -0.1395  0.1278
33815ION     CL48946  17.553  11.992   4.025 -0.1279 -0.1207  0.2956
33816ION     CL48947   2.578  13.021   1.386 -0.2974 -0.1496  0.0075
  18.10376  18.10376  16.24753
